[1537885277.743990] [r8n3:29334:0]         sys.c:744  MXM  WARN  Conflicting CPU frequencies detected, using: 2499.99
[1537885277.750509] [r8n3:29334:0]         mxm.c:196  MXM  WARN  The 'ulimit -s' on the system is set to 'unlimited'. This may have negative performance implications. Please set the stack size to the default value (10240) 
[1537885277.752851] [r8n3:29334:0]         mxm.c:196  MXM  WARN  The 'ulimit -s' on the system is set to 'unlimited'. This may have negative performance implications. Please set the stack size to the default value (10240) 
 argument  1 = /storage/home/bikashp/nwchem_run/rabeet/pa8/nwrevtpss/H2Cl+.xyz.nw
                                         
                                         


              Northwest Computational Chemistry Package (NWChem) 6.6
              ------------------------------------------------------


                    Environmental Molecular Sciences Laboratory
                       Pacific Northwest National Laboratory
                                Richland, WA 99352

                              Copyright (c) 1994-2015
                       Pacific Northwest National Laboratory
                            Battelle Memorial Institute

             NWChem is an open-source computational chemistry package
                        distributed under the terms of the
                      Educational Community License (ECL) 2.0
             A copy of the license is included with this distribution
                              in the LICENSE.TXT file

                                  ACKNOWLEDGMENT
                                  --------------

            This software and its documentation were developed at the
            EMSL at Pacific Northwest National Laboratory, a multiprogram
            national laboratory, operated for the U.S. Department of Energy
            by Battelle under Contract Number DE-AC05-76RL01830. Support
            for this work was provided by the Department of Energy Office
            of Biological and Environmental Research, Office of Basic
            Energy Sciences, and the Office of Advanced Scientific Computing.


           Job information
           ---------------

    hostname        = r8n3.niserhpc.org
    program         = /home/bikashp/Code/nwchem-6.6_revtpss/bin/LINUX64/nwchem
    date            = Tue Sep 25 19:51:18 2018

    compiled        = Tue_Sep_25_17:05:19_2018
    source          = /home/bikashp/Code/nwchem-6.6_revtpss
    nwchem branch   = 6.6
    nwchem revision = 27746
    ga revision     = 10594
    input           = /storage/home/bikashp/nwchem_run/rabeet/pa8/nwrevtpss/H2Cl+.xyz.nw
    prefix          = H2Cl+.xyz.
    data base       = ./H2Cl+.xyz.db
    status          = startup
    nproc           =        1
    time left       =     -1s



           Memory information
           ------------------

    heap     =   13107196 doubles =    100.0 Mbytes
    stack    =   13107201 doubles =    100.0 Mbytes
    global   =   26214400 doubles =    200.0 Mbytes (distinct from heap & stack)
    total    =   52428797 doubles =    400.0 Mbytes
    verify   = yes
    hardfail = no 


           Directory information
           ---------------------

  0 permanent = .
  0 scratch   = .




                                NWChem Input Module
                                -------------------



 Scaling coordinates for geometry "geometry" by  1.889725989
 (inverse scale =  0.529177249)

 C2V symmetry detected

          ------
          auto-z
          ------


                             Geometry "geometry" -> ""
                             -------------------------

 Output coordinates in angstroms (scale by  1.889725989 to convert to a.u.)

  No.       Tag          Charge          X              Y              Z
 ---- ---------------- ---------- -------------- -------------- --------------
    1 Cl                  17.0000     0.00000000     0.00000000    -0.09115219
    2 H                    1.0000    -0.97252313     0.00000000     0.77479365
    3 H                    1.0000     0.97252313     0.00000000     0.77479365

      Atomic Mass 
      ----------- 

      Cl                34.968850
      H                  1.007825


 Effective nuclear repulsion energy (a.u.)      14.0889526096

            Nuclear Dipole moment (a.u.) 
            ----------------------------
        X                 Y               Z
 ---------------- ---------------- ----------------
     0.0000000000     0.0000000000     0.0000000000

      Symmetry information
      --------------------

 Group name             C2v       
 Group number             16
 Group order               4
 No. of unique centers     2

      Symmetry unique atoms

     1    2



                                Z-matrix (autoz)
                                -------- 

 Units are Angstrom for bonds and degrees for angles

      Type          Name      I     J     K     L     M      Value
      ----------- --------  ----- ----- ----- ----- ----- ----------
    1 Stretch                  1     2                       1.30218
    2 Stretch                  1     3                       1.30218
    3 Bend                     2     1     3                96.63552


            XYZ format geometry
            -------------------
     3
 geometry
 Cl                    0.00000000     0.00000000    -0.09115219
 H                    -0.97252313     0.00000000     0.77479365
 H                     0.97252313     0.00000000     0.77479365

 ==============================================================================
                                internuclear distances
 ------------------------------------------------------------------------------
       center one      |      center two      | atomic units |  angstroms
 ------------------------------------------------------------------------------
    2 H                |   1 Cl               |     2.46076  |     1.30218
    3 H                |   1 Cl               |     2.46076  |     1.30218
 ------------------------------------------------------------------------------
                         number of included internuclear distances:          2
 ==============================================================================



 ==============================================================================
                                 internuclear angles
 ------------------------------------------------------------------------------
        center 1       |       center 2       |       center 3       |  degrees
 ------------------------------------------------------------------------------
    2 H                |   1 Cl               |   3 H                |    96.64
 ------------------------------------------------------------------------------
                            number of included internuclear angles:          1
 ==============================================================================





 Summary of "ao basis" -> "" (cartesian)
 ------------------------------------------------------------------------------
       Tag                 Description            Shells   Functions and Types
 ---------------- ------------------------------  ------  ---------------------
 *                     6-311++G(3df,3pd)              on all atoms 



                                 NWChem DFT Module
                                 -----------------


                      Basis "ao basis" -> "ao basis" (cartesian)
                      -----
  Cl (Chlorine)
  -------------
            Exponent  Coefficients 
       -------------- ---------------------------------------------------------
  1 S  1.05819000E+05  0.000738
  1 S  1.58720000E+04  0.005718
  1 S  3.61965000E+03  0.029495
  1 S  1.03080000E+03  0.117286
  1 S  3.39908000E+02  0.362949
  1 S  1.24538000E+02  0.584149

  2 S  1.24538000E+02  0.134177
  2 S  4.95135000E+01  0.624250
  2 S  2.08056000E+01  0.291756

  3 S  6.58346000E+00  1.000000

  4 S  2.56468000E+00  1.000000

  5 S  5.59763000E-01  1.000000

  6 S  1.83273000E-01  1.000000

  7 P  5.89776000E+02  0.002391
  7 P  1.39849000E+02  0.018504
  7 P  4.51413000E+01  0.081377
  7 P  1.68733000E+01  0.221552
  7 P  6.74110000E+00  0.772569

  8 P  6.74110000E+00 -1.572244
  8 P  2.77152000E+00  0.992389

  9 P  1.02387000E+00  1.000000

 10 P  3.81368000E-01  1.000000

 11 P  1.09437000E-01  1.000000

 12 S  4.83000000E-02  1.000000

 13 P  4.83000000E-02  1.000000

 14 D  3.00000000E+00  1.000000

 15 D  7.50000000E-01  1.000000

 16 D  1.87500000E-01  1.000000

 17 F  7.00000000E-01  1.000000

  H (Hydrogen)
  ------------
            Exponent  Coefficients 
       -------------- ---------------------------------------------------------
  1 S  3.38650000E+01  0.025494
  1 S  5.09479000E+00  0.190373
  1 S  1.15879000E+00  0.852161

  2 S  3.25840000E-01  1.000000

  3 S  1.02741000E-01  1.000000

  4 S  3.60000000E-02  1.000000

  5 P  3.00000000E+00  1.000000

  6 P  7.50000000E-01  1.000000

  7 P  1.87500000E-01  1.000000

  8 D  1.00000000E+00  1.000000



 Summary of "ao basis" -> "ao basis" (cartesian)
 ------------------------------------------------------------------------------
       Tag                 Description            Shells   Functions and Types
 ---------------- ------------------------------  ------  ---------------------
 Cl                    6-311++G(3df,3pd)            17       53   7s6p3d1f
 H                     6-311++G(3df,3pd)             8       19   4s3p1d




 Summary of "ao basis" -> "ao basis" (cartesian)
 ------------------------------------------------------------------------------
       Tag                 Description            Shells   Functions and Types
 ---------------- ------------------------------  ------  ---------------------
 Cl                    6-311++G(3df,3pd)            17       53   7s6p3d1f
 H                     6-311++G(3df,3pd)             8       19   4s3p1d


      Symmetry analysis of basis
      --------------------------

        a1         39
        a2          9
        b1         26
        b2         17

  Caching 1-el integrals 

            General Information
            -------------------
          SCF calculation type: DFT
          Wavefunction type:  closed shell.
          No. of atoms     :     3
          No. of electrons :    18
           Alpha electrons :     9
            Beta electrons :     9
          Charge           :     1
          Spin multiplicity:     1
          Use of symmetry is: on ; symmetry adaption is: on 
          Maximum number of iterations: ***
          AO basis - number of functions:    91
                     number of shells:    33
          Convergence on energy requested: 1.00D-06
          Convergence on density requested: 1.00D-05
          Convergence on gradient requested: 5.00D-04

              XC Information
              --------------
                  TPSS metaGGA Exchange Functional  1.000          
             TPSS03 metaGGA Correlation Functional  1.000          

             Grid Information
             ----------------
          Grid used for XC integration:  medium    
          Radial quadrature: Mura-Knowles        
          Angular quadrature: Lebedev. 
          Tag              B.-S. Rad. Rad. Pts. Rad. Cut. Ang. Pts.
          ---              ---------- --------- --------- ---------
          Cl                  1.00       88          10.0       590
          H                   0.35       45          11.0       434
          Grid pruning is: on 
          Number of quadrature shells:   133
          Spatial weights used:  Erf1

          Convergence Information
          -----------------------
          Convergence aids based upon iterative change in 
          total energy or number of iterations. 
          Levelshifting, if invoked, occurs when the 
          HOMO/LUMO gap drops below (HL_TOL): 1.00D-02
          DIIS, if invoked, will attempt to extrapolate 
          using up to (NFOCK): 10 stored Fock matrices.

                    Damping( 0%)  Levelshifting(0.5)       DIIS
                  --------------- ------------------- ---------------
          dE  on:    start            ASAP                start   
          dE off:    2 iters        *** iters           *** iters 


      Screening Tolerance Information
      -------------------------------
          Density screening/tol_rho: 1.00D-10
          AO Gaussian exp screening on grid/accAOfunc:  14
          CD Gaussian exp screening on grid/accCDfunc:  20
          XC Gaussian exp screening on grid/accXCfunc:  20
          Schwarz screening/accCoul: 1.00D-08


      Superposition of Atomic Density Guess
      -------------------------------------

 Sum of atomic energies:        -460.47768407

 Renormalizing density from      19.00 to     18

      Non-variational initial energy
      ------------------------------

 Total energy =    -445.212748
 1-e energy   =    -628.593785
 2-e energy   =     169.292084
 HOMO         =      -1.036477
 LUMO         =      -0.345800


      Symmetry analysis of molecular orbitals - initial
      -------------------------------------------------

  Numbering of irreducible representations: 

     1 a1          2 a2          3 b1          4 b2      

  Orbital symmetries:

     1 a1          2 a1          3 b1          4 a1          5 b2      
     6 a1          7 b1          8 a1          9 b2         10 b1      
    11 a1         12 a1         13 b1         14 a1         15 b2      
    16 a1         17 a2         18 b2         19 a1      

   Time after variat. SCF:      0.5
   Time prior to 1st pass:      0.5

 Integral file          = ./H2Cl+.xyz.aoints.0
 Record size in doubles =    65536    No. of integs per rec  =    43688
 Max. records in memory =       90    Max. records in file   = ********
 No. of bits per label  =        8    No. of bits per value  =       64


 #quartets = 1.005D+05 #integrals = 2.649D+06 #direct =  0.0% #cached =100.0%


 Grid_pts file          = ./H2Cl+.xyz.gridpts.0
 Record size in doubles =  12289        No. of grid_pts per rec  =   3070
 Max. records in memory =     30        Max. recs in file   = 995302957


           Memory utilization after 1st SCF pass: 
           Heap Space remaining (MW):        6.84             6836612
          Stack Space remaining (MW):       13.11            13106604

   convergence    iter        energy       DeltaE   RMS-Dens  Diis-err    time
 ---------------- ----- ----------------- --------- --------- ---------  ------
 d= 0,ls=0.0,diis     1   -460.6261184287 -4.75D+02  2.44D-02  6.14D+00     1.9
 d= 0,ls=0.0,diis     2   -460.6169983129  9.12D-03  1.36D-02  3.01D+00     2.5
 d= 0,ls=0.0,diis     3   -460.8728221968 -2.56D-01  2.94D-03  1.70D-01     3.1
 d= 0,ls=0.0,diis     4   -460.8955147506 -2.27D-02  5.05D-04  4.18D-03     3.7
 d= 0,ls=0.0,diis     5   -460.8959010501 -3.86D-04  1.49D-04  5.20D-04     4.3
  Resetting Diis
 d= 0,ls=0.0,diis     6   -460.8959687652 -6.77D-05  6.36D-06  4.04D-07     4.9
 d= 0,ls=0.0,diis     7   -460.8959691895 -4.24D-07  1.81D-06  1.33D-08     5.5


         Total DFT energy =     -460.895969189471
      One electron energy =     -657.290231628391
           Coulomb energy =      210.806070954980
          Exchange energy =      -27.790215451650
       Correlation energy =       -0.710545673992
 Nuclear repulsion energy =       14.088952609581

 Numeric. integr. density =       18.000000133831

     Total iterative time =      5.0s



                  Occupations of the irreducible representations
                  ----------------------------------------------

                     irrep           alpha         beta
                     --------     --------     --------
                     a1                5.0          5.0
                     a2                0.0          0.0
                     b1                2.0          2.0
                     b2                2.0          2.0


                       DFT Final Molecular Orbital Analysis
                       ------------------------------------

 Vector    1  Occ=2.000000D+00  E=-1.014517D+02  Symmetry=a1
              MO Center= -9.7D-19,  4.6D-29, -9.1D-02, r^2= 3.1D-03
   Bfn.  Coefficient  Atom+Function         Bfn.  Coefficient  Atom+Function  
  ----- ------------  ---------------      ----- ------------  ---------------
     2      0.653360  1 Cl s                  1      0.412411  1 Cl s          

 Vector    2  Occ=2.000000D+00  E=-9.659021D+00  Symmetry=a1
              MO Center=  6.4D-17,  2.1D-17, -8.9D-02, r^2= 6.6D-02
   Bfn.  Coefficient  Atom+Function         Bfn.  Coefficient  Atom+Function  
  ----- ------------  ---------------      ----- ------------  ---------------
     4      0.613661  1 Cl s                  3      0.486168  1 Cl s          
     2     -0.327079  1 Cl s          

 Vector    3  Occ=2.000000D+00  E=-7.417864D+00  Symmetry=b1
              MO Center=  5.5D-15, -1.2D-19, -9.1D-02, r^2= 5.8D-02
   Bfn.  Coefficient  Atom+Function         Bfn.  Coefficient  Atom+Function  
  ----- ------------  ---------------      ----- ------------  ---------------
     7      1.229278  1 Cl px                10      0.329993  1 Cl px         

 Vector    4  Occ=2.000000D+00  E=-7.413602D+00  Symmetry=a1
              MO Center= -5.6D-15,  3.2D-28, -9.3D-02, r^2= 5.8D-02
   Bfn.  Coefficient  Atom+Function         Bfn.  Coefficient  Atom+Function  
  ----- ------------  ---------------      ----- ------------  ---------------
     9      1.229460  1 Cl pz                12      0.330030  1 Cl pz         

 Vector    5  Occ=2.000000D+00  E=-7.405044D+00  Symmetry=b2
              MO Center=  2.6D-18, -7.1D-17, -9.1D-02, r^2= 5.8D-02
   Bfn.  Coefficient  Atom+Function         Bfn.  Coefficient  Atom+Function  
  ----- ------------  ---------------      ----- ------------  ---------------
     8      1.229945  1 Cl py                11      0.330137  1 Cl py         

 Vector    6  Occ=2.000000D+00  E=-1.178768D+00  Symmetry=a1
              MO Center=  4.0D-17,  3.0D-16,  1.3D-01, r^2= 8.1D-01
   Bfn.  Coefficient  Atom+Function         Bfn.  Coefficient  Atom+Function  
  ----- ------------  ---------------      ----- ------------  ---------------
     5      0.535886  1 Cl s                  6      0.529588  1 Cl s          
     4     -0.391517  1 Cl s                  3     -0.202502  1 Cl s          

 Vector    7  Occ=2.000000D+00  E=-8.198925D-01  Symmetry=b1
              MO Center= -5.5D-15, -1.7D-16,  2.8D-01, r^2= 1.2D+00
   Bfn.  Coefficient  Atom+Function         Bfn.  Coefficient  Atom+Function  
  ----- ------------  ---------------      ----- ------------  ---------------
    16      0.411646  1 Cl px                 7     -0.299452  1 Cl px         
    13      0.227359  1 Cl px                55     -0.201916  2 H  s          
    74      0.201916  3 H  s          

 Vector    8  Occ=2.000000D+00  E=-7.435071D-01  Symmetry=a1
              MO Center=  7.2D-15, -1.6D-15, -1.0D-01, r^2= 1.2D+00
   Bfn.  Coefficient  Atom+Function         Bfn.  Coefficient  Atom+Function  
  ----- ------------  ---------------      ----- ------------  ---------------
    18      0.508102  1 Cl pz                 6     -0.356385  1 Cl s          
     9     -0.320600  1 Cl pz                15      0.233547  1 Cl pz         
     5     -0.210124  1 Cl s                 55      0.162992  2 H  s          
    74      0.162992  3 H  s          

 Vector    9  Occ=2.000000D+00  E=-6.439035D-01  Symmetry=b2
              MO Center=  2.2D-16,  6.8D-16, -4.3D-02, r^2= 1.1D+00
   Bfn.  Coefficient  Atom+Function         Bfn.  Coefficient  Atom+Function  
  ----- ------------  ---------------      ----- ------------  ---------------
    17      0.726363  1 Cl py                 8     -0.372864  1 Cl py         
    14      0.251888  1 Cl py                20      0.250164  1 Cl py         

 Vector   10  Occ=0.000000D+00  E=-3.302287D-01  Symmetry=b1
              MO Center= -4.1D-15, -3.5D-17,  2.1D-01, r^2= 2.1D+00
   Bfn.  Coefficient  Atom+Function         Bfn.  Coefficient  Atom+Function  
  ----- ------------  ---------------      ----- ------------  ---------------
    16      0.626392  1 Cl px                56      0.447078  2 H  s          
    75     -0.447078  3 H  s                 19      0.388666  1 Cl px         
    34     -0.309249  1 Cl dxz               40     -0.306913  1 Cl dxz        
    55      0.299106  2 H  s                 74     -0.299106  3 H  s          
     7     -0.229932  1 Cl px         

 Vector   11  Occ=0.000000D+00  E=-3.001533D-01  Symmetry=a1
              MO Center=  4.9D-15, -9.8D-16,  5.8D-01, r^2= 3.2D+00
   Bfn.  Coefficient  Atom+Function         Bfn.  Coefficient  Atom+Function  
  ----- ------------  ---------------      ----- ------------  ---------------
     6      0.611035  1 Cl s                 56     -0.529451  2 H  s          
    75     -0.529451  3 H  s                 18      0.473187  1 Cl pz         
    22      0.346433  1 Cl s                 21      0.325795  1 Cl pz         
     5      0.304901  1 Cl s                 55     -0.276550  2 H  s          
    74     -0.276550  3 H  s                 57     -0.211943  2 H  s          

 Vector   12  Occ=0.000000D+00  E=-1.732881D-01  Symmetry=a1
              MO Center=  1.9D-16,  3.9D-16,  7.1D-01, r^2= 5.3D+00
   Bfn.  Coefficient  Atom+Function         Bfn.  Coefficient  Atom+Function  
  ----- ------------  ---------------      ----- ------------  ---------------
    22      1.283892  1 Cl s                 56     -0.994211  2 H  s          
    75     -0.994211  3 H  s                 21      0.541204  1 Cl pz         
    25      0.362521  1 Cl pz                 6      0.329921  1 Cl s          
    41      0.278120  1 Cl dyy               57      0.249701  2 H  s          
    76      0.249701  3 H  s                 43      0.230295  1 Cl dzz        

 Vector   13  Occ=0.000000D+00  E=-1.518528D-01  Symmetry=b1
              MO Center=  9.0D-15, -2.1D-15,  2.9D-01, r^2= 9.5D+00
   Bfn.  Coefficient  Atom+Function         Bfn.  Coefficient  Atom+Function  
  ----- ------------  ---------------      ----- ------------  ---------------
    57      1.097657  2 H  s                 76     -1.097657  3 H  s          
    56     -0.371192  2 H  s                 75      0.371192  3 H  s          
    23     -0.361628  1 Cl px                19     -0.217579  1 Cl px         
    34      0.157397  1 Cl dxz        

 Vector   14  Occ=0.000000D+00  E=-1.408799D-01  Symmetry=a1
              MO Center=  4.4D-15,  1.7D-14, -5.4D-01, r^2= 6.3D+00
   Bfn.  Coefficient  Atom+Function         Bfn.  Coefficient  Atom+Function  
  ----- ------------  ---------------      ----- ------------  ---------------
    22      1.047463  1 Cl s                 21      0.820623  1 Cl pz         
    25     -0.799325  1 Cl pz                56     -0.605346  2 H  s          
    75     -0.605346  3 H  s                 18      0.282898  1 Cl pz         
    64     -0.208930  2 H  px                83      0.208930  3 H  px         
    38      0.207174  1 Cl dxx               55     -0.155143  2 H  s          

 Vector   15  Occ=0.000000D+00  E=-1.290747D-01  Symmetry=b2
              MO Center=  8.9D-15, -1.8D-14,  1.2D-01, r^2= 8.2D+00
   Bfn.  Coefficient  Atom+Function         Bfn.  Coefficient  Atom+Function  
  ----- ------------  ---------------      ----- ------------  ---------------
    24      1.238622  1 Cl py                20     -0.514628  1 Cl py         
    42      0.167831  1 Cl dyz        

 Vector   16  Occ=0.000000D+00  E=-1.144043D-01  Symmetry=a1
              MO Center= -9.6D-15, -8.0D-15, -2.6D-01, r^2= 5.3D+00
   Bfn.  Coefficient  Atom+Function         Bfn.  Coefficient  Atom+Function  
  ----- ------------  ---------------      ----- ------------  ---------------
    25      0.723377  1 Cl pz                56     -0.502995  2 H  s          
    75     -0.502995  3 H  s                 38      0.298848  1 Cl dxx        
     6      0.293314  1 Cl s                 57      0.280150  2 H  s          
    76      0.280150  3 H  s                 41      0.270979  1 Cl dyy        
    43     -0.245127  1 Cl dzz               21      0.228042  1 Cl pz         

 Vector   17  Occ=0.000000D+00  E=-9.983144D-02  Symmetry=a2
              MO Center= -9.7D-15,  2.3D-15,  1.4D-01, r^2= 2.3D+00
   Bfn.  Coefficient  Atom+Function         Bfn.  Coefficient  Atom+Function  
  ----- ------------  ---------------      ----- ------------  ---------------
    39      0.962220  1 Cl dxy               33      0.482465  1 Cl dxy        
    65     -0.263070  2 H  py                84      0.263070  3 H  py         

 Vector   18  Occ=0.000000D+00  E=-8.254274D-02  Symmetry=b2
              MO Center=  1.1D-16,  5.9D-15, -1.5D-01, r^2= 2.8D+00
   Bfn.  Coefficient  Atom+Function         Bfn.  Coefficient  Atom+Function  
  ----- ------------  ---------------      ----- ------------  ---------------
    42      1.018509  1 Cl dyz               36      0.477047  1 Cl dyz        
    24     -0.372823  1 Cl py                65      0.230347  2 H  py         
    84      0.230347  3 H  py         

 Vector   19  Occ=0.000000D+00  E=-7.246202D-02  Symmetry=a1
              MO Center= -5.3D-13, -6.4D-16,  1.1D+00, r^2= 1.3D+01
   Bfn.  Coefficient  Atom+Function         Bfn.  Coefficient  Atom+Function  
  ----- ------------  ---------------      ----- ------------  ---------------
    22      6.340580  1 Cl s                 57     -2.558407  2 H  s          
    76     -2.558407  3 H  s                 25      1.849421  1 Cl pz         
    56     -0.963024  2 H  s                 75     -0.963024  3 H  s          
    21      0.279243  1 Cl pz                 5     -0.242473  1 Cl s          
    43     -0.161413  1 Cl dzz               38     -0.157499  1 Cl dxx        

 Vector   20  Occ=0.000000D+00  E=-5.639066D-02  Symmetry=b1
              MO Center=  3.8D-13,  1.6D-28,  9.5D-01, r^2= 1.4D+01
   Bfn.  Coefficient  Atom+Function         Bfn.  Coefficient  Atom+Function  
  ----- ------------  ---------------      ----- ------------  ---------------
    57      4.201352  2 H  s                 76     -4.201352  3 H  s          
    23      3.247879  1 Cl px                19     -1.031176  1 Cl px         
    56     -0.314340  2 H  s                 75      0.314340  3 H  s          
    55     -0.285952  2 H  s                 74      0.285952  3 H  s          
    40     -0.174203  1 Cl dxz               16     -0.161264  1 Cl px         

 Vector   21  Occ=0.000000D+00  E= 4.294948D-02  Symmetry=b1
              MO Center=  3.9D-14,  6.8D-17,  3.4D-01, r^2= 9.4D+00
   Bfn.  Coefficient  Atom+Function         Bfn.  Coefficient  Atom+Function  
  ----- ------------  ---------------      ----- ------------  ---------------
    56      3.824107  2 H  s                 75     -3.824107  3 H  s          
    19      1.657772  1 Cl px                57     -1.634248  2 H  s          
    76      1.634248  3 H  s                 40      1.526849  1 Cl dxz        
    16      0.717703  1 Cl px                23      0.450458  1 Cl px         
    34      0.355912  1 Cl dxz               66     -0.348309  2 H  pz         

 Vector   22  Occ=0.000000D+00  E= 6.340371D-02  Symmetry=a1
              MO Center=  1.1D-13,  2.9D-15,  5.2D-01, r^2= 6.8D+00
   Bfn.  Coefficient  Atom+Function         Bfn.  Coefficient  Atom+Function  
  ----- ------------  ---------------      ----- ------------  ---------------
    22      6.103261  1 Cl s                 56     -4.851848  2 H  s          
    75     -4.851848  3 H  s                 21      2.158326  1 Cl pz         
     6      1.913825  1 Cl s                 25      1.906044  1 Cl pz         
    38      1.127736  1 Cl dxx               43      0.946848  1 Cl dzz        
    57     -0.763676  2 H  s                 76     -0.763676  3 H  s          

 Vector   23  Occ=0.000000D+00  E= 1.272134D-01  Symmetry=a1
              MO Center=  9.1D-15,  3.9D-16, -5.0D-01, r^2= 7.3D+00
   Bfn.  Coefficient  Atom+Function         Bfn.  Coefficient  Atom+Function  
  ----- ------------  ---------------      ----- ------------  ---------------
    21      3.945626  1 Cl pz                56     -3.224011  2 H  s          
    75     -3.224011  3 H  s                  6      2.975798  1 Cl s          
    25     -1.345389  1 Cl pz                43      1.004007  1 Cl dzz        
    64     -0.999443  2 H  px                83      0.999443  3 H  px         
    57      0.822324  2 H  s                 76      0.822324  3 H  s          

 Vector   24  Occ=0.000000D+00  E= 1.677108D-01  Symmetry=b2
              MO Center=  3.5D-16,  3.7D-15, -1.0D-01, r^2= 6.9D+00
   Bfn.  Coefficient  Atom+Function         Bfn.  Coefficient  Atom+Function  
  ----- ------------  ---------------      ----- ------------  ---------------
    20     -2.413165  1 Cl py                17      2.328623  1 Cl py         
    24      1.554793  1 Cl py                50     -0.619988  1 Cl fyyy       
    45     -0.616395  1 Cl fxxy              52     -0.611671  1 Cl fyzz       
    42      0.249047  1 Cl dyz                8     -0.230116  1 Cl py         
    14     -0.219853  1 Cl py         

 Vector   25  Occ=0.000000D+00  E= 1.816034D-01  Symmetry=a1
              MO Center= -3.5D-14,  1.9D-16,  1.6D-01, r^2= 6.2D+00
   Bfn.  Coefficient  Atom+Function         Bfn.  Coefficient  Atom+Function  
  ----- ------------  ---------------      ----- ------------  ---------------
    22      1.588999  1 Cl s                 56      1.450337  2 H  s          
    75      1.450337  3 H  s                 41     -1.285594  1 Cl dyy        
    43     -1.185544  1 Cl dzz               18     -1.053489  1 Cl pz         
    55     -0.906376  2 H  s                 74     -0.906376  3 H  s          
    21      0.735086  1 Cl pz                57     -0.723271  2 H  s          

 Vector   26  Occ=0.000000D+00  E= 1.969357D-01  Symmetry=b1
              MO Center= -3.8D-14,  8.1D-28,  3.6D-01, r^2= 4.7D+00
   Bfn.  Coefficient  Atom+Function         Bfn.  Coefficient  Atom+Function  
  ----- ------------  ---------------      ----- ------------  ---------------
    19      3.007896  1 Cl px                56      2.636412  2 H  s          
    75     -2.636412  3 H  s                 66     -1.350261  2 H  pz         
    85      1.350261  3 H  pz                57     -1.331054  2 H  s          
    76      1.331054  3 H  s                 23     -0.933926  1 Cl px         
    16      0.343915  1 Cl px                34     -0.184234  1 Cl dxz        

 Vector   27  Occ=0.000000D+00  E= 2.060409D-01  Symmetry=b1
              MO Center=  2.0D-13,  8.0D-15,  5.2D-01, r^2= 8.8D+00
   Bfn.  Coefficient  Atom+Function         Bfn.  Coefficient  Atom+Function  
  ----- ------------  ---------------      ----- ------------  ---------------
    19      5.114951  1 Cl px                56      3.799444  2 H  s          
    75     -3.799444  3 H  s                 57     -3.531781  2 H  s          
    76      3.531781  3 H  s                 23     -3.401045  1 Cl px         
    40      1.284471  1 Cl dxz               16     -1.130951  1 Cl px         
    64      0.980511  2 H  px                83      0.980511  3 H  px         

 Vector   28  Occ=0.000000D+00  E= 2.201616D-01  Symmetry=a2
              MO Center=  1.7D-14, -8.0D-15,  6.3D-01, r^2= 3.6D+00
   Bfn.  Coefficient  Atom+Function         Bfn.  Coefficient  Atom+Function  
  ----- ------------  ---------------      ----- ------------  ---------------
    39      1.865995  1 Cl dxy               65      1.206624  2 H  py         
    84     -1.206624  3 H  py                33      0.359345  1 Cl dxy        

 Vector   29  Occ=0.000000D+00  E= 2.346119D-01  Symmetry=a1
              MO Center= -1.2D-13, -1.2D-15,  5.7D-01, r^2= 5.3D+00
   Bfn.  Coefficient  Atom+Function         Bfn.  Coefficient  Atom+Function  
  ----- ------------  ---------------      ----- ------------  ---------------
    22      4.324338  1 Cl s                 38     -1.797934  1 Cl dxx        
     6      1.347728  1 Cl s                 57     -1.324167  2 H  s          
    76     -1.324167  3 H  s                 41     -1.181315  1 Cl dyy        
    25      0.973661  1 Cl pz                64     -0.931325  2 H  px         
    83      0.931325  3 H  px                21      0.893868  1 Cl pz         

 Vector   30  Occ=0.000000D+00  E= 2.530340D-01  Symmetry=b2
              MO Center= -1.7D-14, -4.0D-16,  5.6D-01, r^2= 3.9D+00
   Bfn.  Coefficient  Atom+Function         Bfn.  Coefficient  Atom+Function  
  ----- ------------  ---------------      ----- ------------  ---------------
    20      2.107546  1 Cl py                42      1.849813  1 Cl dyz        
    65     -1.403216  2 H  py                84     -1.403216  3 H  py         
    36      0.346425  1 Cl dyz               24     -0.320664  1 Cl py         
    17     -0.220310  1 Cl py         

 Vector   31  Occ=0.000000D+00  E= 2.965459D-01  Symmetry=a1
              MO Center= -1.4D-13, -9.7D-16,  6.0D-01, r^2= 4.9D+00
   Bfn.  Coefficient  Atom+Function         Bfn.  Coefficient  Atom+Function  
  ----- ------------  ---------------      ----- ------------  ---------------
    22      4.054197  1 Cl s                  6      2.437371  1 Cl s          
    21     -1.961758  1 Cl pz                43     -1.920709  1 Cl dzz        
    25      1.400168  1 Cl pz                18      1.381073  1 Cl pz         
    66      1.190569  2 H  pz                85      1.190569  3 H  pz         
    57     -1.171871  2 H  s                 76     -1.171871  3 H  s          

 Vector   32  Occ=0.000000D+00  E= 3.216283D-01  Symmetry=b1
              MO Center=  7.9D-14, -1.5D-16,  5.0D-01, r^2= 4.2D+00
   Bfn.  Coefficient  Atom+Function         Bfn.  Coefficient  Atom+Function  
  ----- ------------  ---------------      ----- ------------  ---------------
    56      1.917379  2 H  s                 75     -1.917379  3 H  s          
    19     -1.711970  1 Cl px                16      1.601883  1 Cl px         
    40     -1.429621  1 Cl dxz               64      1.387765  2 H  px         
    83      1.387765  3 H  px                55     -1.319465  2 H  s          
    74      1.319465  3 H  s                 23      1.125647  1 Cl px         

 Vector   33  Occ=0.000000D+00  E= 5.634753D-01  Symmetry=a1
              MO Center= -7.7D-13,  9.3D-17,  3.3D-01, r^2= 5.8D+00
   Bfn.  Coefficient  Atom+Function         Bfn.  Coefficient  Atom+Function  
  ----- ------------  ---------------      ----- ------------  ---------------
     6      8.163490  1 Cl s                 56     -6.694124  2 H  s          
    75     -6.694124  3 H  s                 21      5.109319  1 Cl pz         
    18      3.639483  1 Cl pz                38      3.557239  1 Cl dxx        
    43      2.875023  1 Cl dzz               55     -2.621060  2 H  s          
    74     -2.621060  3 H  s                 64     -2.470117  2 H  px         


 center of mass
 --------------
 x =   0.00000000 y =   0.00000000 z =  -0.08306908

 moments of inertia (a.u.)
 ------------------
           5.103355920410           0.000000000000           0.000000000000
           0.000000000000          11.911248106119           0.000000000000
           0.000000000000           0.000000000000           6.807892185709

     Multipole analysis of the density
     ---------------------------------

     L   x y z        total         alpha         beta         nuclear
     -   - - -        -----         -----         ----         -------
     0   0 0 0      1.000000     -9.000000     -9.000000     19.000000

     1   1 0 0     -0.000000     -0.000000     -0.000000      0.000000
     1   0 1 0      0.000000      0.000000      0.000000      0.000000
     1   0 0 1      0.721001      0.360500      0.360500      0.000000

     2   2 0 0     -5.435841     -6.095437     -6.095437      6.755034
     2   1 1 0      0.000000      0.000000      0.000000      0.000000
     2   1 0 1     -0.000000     -0.000000     -0.000000      0.000000
     2   0 2 0     -9.145729     -4.572864     -4.572864      0.000000
     2   0 1 1      0.000000      0.000000      0.000000      0.000000
     2   0 0 2     -6.711092     -5.751478     -5.751478      4.791864


 Parallel integral file used      61 records with       0 large values


 Task  times  cpu:        5.4s     wall:        5.9s


                                NWChem Input Module
                                -------------------


 Summary of allocated global arrays
-----------------------------------
  No active global arrays



                         GA Statistics for process    0
                         ------------------------------

       create   destroy   get      put      acc     scatter   gather  read&inc
calls:  227      227     1.44e+04 6263     2244        0        0      494     
number of processes/call 1.00e+00 1.00e+00 1.00e+00 0.00e+00 0.00e+00
bytes total:             4.59e+07 1.43e+07 2.38e+07 0.00e+00 0.00e+00 3.95e+03
bytes remote:            0.00e+00 0.00e+00 0.00e+00 0.00e+00 0.00e+00 0.00e+00
Max memory consumed for GA by this process: 2583672 bytes

MA_summarize_allocated_blocks: starting scan ...
MA_summarize_allocated_blocks: scan completed: 0 heap blocks, 0 stack blocks
MA usage statistics:

	allocation statistics:
					      heap	     stack
					      ----	     -----
	current number of blocks	         0	         0
	maximum number of blocks	        24	        55
	current total bytes		         0	         0
	maximum total bytes		  50164184	  23559848
	maximum total K-bytes		     50165	     23560
	maximum total M-bytes		        51	        24


                                     CITATION
                                     --------
                Please cite the following reference when publishing
                           results obtained with NWChem:

                 M. Valiev, E.J. Bylaska, N. Govind, K. Kowalski,
              T.P. Straatsma, H.J.J. van Dam, D. Wang, J. Nieplocha,
                        E. Apra, T.L. Windus, W.A. de Jong
                 "NWChem: a comprehensive and scalable open-source
                  solution for large scale molecular simulations"
                      Comput. Phys. Commun. 181, 1477 (2010)
                           doi:10.1016/j.cpc.2010.04.018

                                      AUTHORS
                                      -------
          E. Apra, E. J. Bylaska, W. A. de Jong, N. Govind, K. Kowalski,
       T. P. Straatsma, M. Valiev, H. J. J. van Dam, D. Wang, T. L. Windus,
        J. Hammond, J. Autschbach, K. Bhaskaran-Nair, J. Brabec, K. Lopata,
       S. A. Fischer, S. Krishnamoorthy, W. Ma, M. Klemm, O. Villa, Y. Chen,
    V. Anisimov, F. Aquino, S. Hirata, M. T. Hackler, T. Risthaus, M. Malagoli,
       A. Marenich, A. Otero-de-la-Roza, J. Mullin, P. Nichols, R. Peverati,
     J. Pittner, Y. Zhao, P.-D. Fan, A. Fonari, M. Williamson, R. J. Harrison,
       J. R. Rehr, M. Dupuis, D. Silverstein, D. M. A. Smith, J. Nieplocha,
        V. Tipparaju, M. Krishnan, B. E. Van Kuiken, A. Vazquez-Mayagoitia,
        L. Jensen, M. Swart, Q. Wu, T. Van Voorhis, A. A. Auer, M. Nooijen,
      L. D. Crosby, E. Brown, G. Cisneros, G. I. Fann, H. Fruchtl, J. Garza,
        K. Hirao, R. A. Kendall, J. A. Nichols, K. Tsemekhman, K. Wolinski,
     J. Anchell, D. E. Bernholdt, P. Borowski, T. Clark, D. Clerc, H. Dachsel,
   M. J. O. Deegan, K. Dyall, D. Elwood, E. Glendening, M. Gutowski, A. C. Hess,
         J. Jaffe, B. G. Johnson, J. Ju, R. Kobayashi, R. Kutteh, Z. Lin,
   R. Littlefield, X. Long, B. Meng, T. Nakajima, S. Niu, L. Pollack, M. Rosing,
   K. Glaesemann, G. Sandrone, M. Stave, H. Taylor, G. Thomas, J. H. van Lenthe,
                               A. T. Wong, Z. Zhang.

 Total times  cpu:        5.5s     wall:        6.1s
