[1537885316.533461] [r8n3:29426:0]         sys.c:744  MXM  WARN  Conflicting CPU frequencies detected, using: 2499.99
[1537885316.539875] [r8n3:29426:0]         mxm.c:196  MXM  WARN  The 'ulimit -s' on the system is set to 'unlimited'. This may have negative performance implications. Please set the stack size to the default value (10240) 
[1537885316.542035] [r8n3:29426:0]         mxm.c:196  MXM  WARN  The 'ulimit -s' on the system is set to 'unlimited'. This may have negative performance implications. Please set the stack size to the default value (10240) 
 argument  1 = /storage/home/bikashp/nwchem_run/rabeet/pa8/nwrevtpss/H3+.xyz.nw
                                         
                                         


              Northwest Computational Chemistry Package (NWChem) 6.6
              ------------------------------------------------------


                    Environmental Molecular Sciences Laboratory
                       Pacific Northwest National Laboratory
                                Richland, WA 99352

                              Copyright (c) 1994-2015
                       Pacific Northwest National Laboratory
                            Battelle Memorial Institute

             NWChem is an open-source computational chemistry package
                        distributed under the terms of the
                      Educational Community License (ECL) 2.0
             A copy of the license is included with this distribution
                              in the LICENSE.TXT file

                                  ACKNOWLEDGMENT
                                  --------------

            This software and its documentation were developed at the
            EMSL at Pacific Northwest National Laboratory, a multiprogram
            national laboratory, operated for the U.S. Department of Energy
            by Battelle under Contract Number DE-AC05-76RL01830. Support
            for this work was provided by the Department of Energy Office
            of Biological and Environmental Research, Office of Basic
            Energy Sciences, and the Office of Advanced Scientific Computing.


           Job information
           ---------------

    hostname        = r8n3.niserhpc.org
    program         = /home/bikashp/Code/nwchem-6.6_revtpss/bin/LINUX64/nwchem
    date            = Tue Sep 25 19:51:56 2018

    compiled        = Tue_Sep_25_17:05:19_2018
    source          = /home/bikashp/Code/nwchem-6.6_revtpss
    nwchem branch   = 6.6
    nwchem revision = 27746
    ga revision     = 10594
    input           = /storage/home/bikashp/nwchem_run/rabeet/pa8/nwrevtpss/H3+.xyz.nw
    prefix          = H3+.xyz.
    data base       = ./H3+.xyz.db
    status          = startup
    nproc           =        1
    time left       =     -1s



           Memory information
           ------------------

    heap     =   13107196 doubles =    100.0 Mbytes
    stack    =   13107201 doubles =    100.0 Mbytes
    global   =   26214400 doubles =    200.0 Mbytes (distinct from heap & stack)
    total    =   52428797 doubles =    400.0 Mbytes
    verify   = yes
    hardfail = no 


           Directory information
           ---------------------

  0 permanent = .
  0 scratch   = .




                                NWChem Input Module
                                -------------------



 Scaling coordinates for geometry "geometry" by  1.889725989
 (inverse scale =  0.529177249)

 D3H symmetry detected

          ------
          auto-z
          ------


                             Geometry "geometry" -> ""
                             -------------------------

 Output coordinates in angstroms (scale by  1.889725989 to convert to a.u.)

  No.       Tag          Charge          X              Y              Z
 ---- ---------------- ---------- -------------- -------------- --------------
    1 H                    1.0000     0.34745473     0.34745473     0.00000000
    2 H                    1.0000    -0.47463198     0.12717726     0.00000000
    3 H                    1.0000     0.12717726    -0.47463198     0.00000000

      Atomic Mass 
      ----------- 

      H                  1.007825


 Effective nuclear repulsion energy (a.u.)       1.8652994815

            Nuclear Dipole moment (a.u.) 
            ----------------------------
        X                 Y               Z
 ---------------- ---------------- ----------------
     0.0000000000     0.0000000000     0.0000000000

      Symmetry information
      --------------------

 Group name             D3h       
 Group number             27
 Group order              12
 No. of unique centers     1

      Symmetry unique atoms

     1



                                Z-matrix (autoz)
                                -------- 

 Units are Angstrom for bonds and degrees for angles

      Type          Name      I     J     K     L     M      Value
      ----------- --------  ----- ----- ----- ----- ----- ----------
    1 Stretch                  1     2                       0.85109
    2 Stretch                  1     3                       0.85109
    3 Stretch                  2     3                       0.85109
    4 Bend                     1     2     3                60.00000
    5 Bend                     1     3     2                60.00000
    6 Bend                     2     1     3                60.00000


            XYZ format geometry
            -------------------
     3
 geometry
 H                     0.34745473     0.34745473     0.00000000
 H                    -0.47463198     0.12717726     0.00000000
 H                     0.12717726    -0.47463198     0.00000000



 Summary of "ao basis" -> "" (cartesian)
 ------------------------------------------------------------------------------
       Tag                 Description            Shells   Functions and Types
 ---------------- ------------------------------  ------  ---------------------
 *                     6-311++G(3df,3pd)              on all atoms 



                                 NWChem DFT Module
                                 -----------------


                      Basis "ao basis" -> "ao basis" (cartesian)
                      -----
  H (Hydrogen)
  ------------
            Exponent  Coefficients 
       -------------- ---------------------------------------------------------
  1 S  3.38650000E+01  0.025494
  1 S  5.09479000E+00  0.190373
  1 S  1.15879000E+00  0.852161

  2 S  3.25840000E-01  1.000000

  3 S  1.02741000E-01  1.000000

  4 S  3.60000000E-02  1.000000

  5 P  3.00000000E+00  1.000000

  6 P  7.50000000E-01  1.000000

  7 P  1.87500000E-01  1.000000

  8 D  1.00000000E+00  1.000000



 Summary of "ao basis" -> "ao basis" (cartesian)
 ------------------------------------------------------------------------------
       Tag                 Description            Shells   Functions and Types
 ---------------- ------------------------------  ------  ---------------------
 H                     6-311++G(3df,3pd)             8       19   4s3p1d




 Summary of "ao basis" -> "ao basis" (cartesian)
 ------------------------------------------------------------------------------
       Tag                 Description            Shells   Functions and Types
 ---------------- ------------------------------  ------  ---------------------
 H                     6-311++G(3df,3pd)             8       19   4s3p1d


      Symmetry analysis of basis
      --------------------------

        a1'        10
        a1"         1
        a2'         4
        a2"         4
        e'         28
        e"         10

  Caching 1-el integrals 
  Rotation of axis 

            General Information
            -------------------
          SCF calculation type: DFT
          Wavefunction type:  closed shell.
          No. of atoms     :     3
          No. of electrons :     2
           Alpha electrons :     1
            Beta electrons :     1
          Charge           :     1
          Spin multiplicity:     1
          Use of symmetry is: on ; symmetry adaption is: on 
          Maximum number of iterations: ***
          AO basis - number of functions:    57
                     number of shells:    24
          Convergence on energy requested: 1.00D-06
          Convergence on density requested: 1.00D-05
          Convergence on gradient requested: 5.00D-04

              XC Information
              --------------
                  TPSS metaGGA Exchange Functional  1.000          
             TPSS03 metaGGA Correlation Functional  1.000          

             Grid Information
             ----------------
          Grid used for XC integration:  medium    
          Radial quadrature: Mura-Knowles        
          Angular quadrature: Lebedev. 
          Tag              B.-S. Rad. Rad. Pts. Rad. Cut. Ang. Pts.
          ---              ---------- --------- --------- ---------
          H                   0.35       45          10.0       434
          Grid pruning is: on 
          Number of quadrature shells:    45
          Spatial weights used:  Erf1

          Convergence Information
          -----------------------
          Convergence aids based upon iterative change in 
          total energy or number of iterations. 
          Levelshifting, if invoked, occurs when the 
          HOMO/LUMO gap drops below (HL_TOL): 1.00D-02
          DIIS, if invoked, will attempt to extrapolate 
          using up to (NFOCK): 10 stored Fock matrices.

                    Damping( 0%)  Levelshifting(0.5)       DIIS
                  --------------- ------------------- ---------------
          dE  on:    start            ASAP                start   
          dE off:    2 iters        *** iters           *** iters 


      Screening Tolerance Information
      -------------------------------
          Density screening/tol_rho: 1.00D-10
          AO Gaussian exp screening on grid/accAOfunc:  14
          CD Gaussian exp screening on grid/accCDfunc:  20
          XC Gaussian exp screening on grid/accXCfunc:  20
          Schwarz screening/accCoul: 1.00D-08


      Superposition of Atomic Density Guess
      -------------------------------------

 Sum of atomic energies:          -1.49945450

 Renormalizing density from       3.00 to      2

      Non-variational initial energy
      ------------------------------

 Total energy =      -0.697634
 1-e energy   =      -3.225996
 2-e energy   =       0.663063
 HOMO         =      -1.220978
 LUMO         =      -0.300422


      Symmetry analysis of molecular orbitals - initial
      -------------------------------------------------

  Numbering of irreducible representations: 

     1 a1'         2 a1"         3 a2'         4 a2"         5 e'      
     6 e"      

  Orbital symmetries:

     1 a1'         2 e'          3 e'          4 a1'         5 a2"     
     6 e'          7 e'          8 a1'         9 e'         10 e'      
    11 e'      

   Time after variat. SCF:      0.2
   Time prior to 1st pass:      0.2

 Integral file          = ./H3+.xyz.aoints.0
 Record size in doubles =    65536    No. of integs per rec  =    43688
 Max. records in memory =        6    Max. records in file   = ********
 No. of bits per label  =        8    No. of bits per value  =       64


 #quartets = 1.275D+04 #integrals = 2.125D+05 #direct =  0.0% #cached =100.0%


 Grid_pts file          = ./H3+.xyz.gridpts.0
 Record size in doubles =  12289        No. of grid_pts per rec  =   3070
 Max. records in memory =      8        Max. recs in file   = 995299036


           Memory utilization after 1st SCF pass: 
           Heap Space remaining (MW):       12.61            12612660
          Stack Space remaining (MW):       13.11            13106764

   convergence    iter        energy       DeltaE   RMS-Dens  Diis-err    time
 ---------------- ----- ----------------- --------- --------- ---------  ------
 d= 0,ls=0.0,diis     1     -1.3484185642 -3.21D+00  1.29D-03  3.41D-02     0.5
 d= 0,ls=0.0,diis     2     -1.3547998760 -6.38D-03  1.20D-04  8.42D-04     0.7
 d= 0,ls=0.0,diis     3     -1.3548516178 -5.17D-05  2.66D-05  5.08D-05     0.9
 d= 0,ls=0.0,diis     4     -1.3548564807 -4.86D-06  5.07D-06  2.56D-06     1.1
 d= 0,ls=0.0,diis     5     -1.3548565303 -4.97D-08  1.20D-07  9.83D-10     1.3


         Total DFT energy =       -1.354856530334
      One electron energy =       -3.880956727364
           Coulomb energy =        1.433686553709
          Exchange energy =       -0.725314451972
       Correlation energy =       -0.047571386223
 Nuclear repulsion energy =        1.865299481516

 Numeric. integr. density =        1.999999645012

     Total iterative time =      1.2s



                  Occupations of the irreducible representations
                  ----------------------------------------------

                     irrep           alpha         beta
                     --------     --------     --------
                     a1'               1.0          1.0
                     a1"               0.0          0.0
                     a2'               0.0          0.0
                     a2"               0.0          0.0
                     e'                0.0          0.0
                     e"                0.0          0.0


                       DFT Final Molecular Orbital Analysis
                       ------------------------------------

 Vector    1  Occ=2.000000D+00  E=-1.015232D+00  Symmetry=a1'
              MO Center= -3.2D-16, -5.5D-16, -6.3D-18, r^2= 5.6D-01
   Bfn.  Coefficient  Atom+Function         Bfn.  Coefficient  Atom+Function  
  ----- ------------  ---------------      ----- ------------  ---------------
     2      0.200087  1 H  s                 21      0.200087  2 H  s          
    40      0.200087  3 H  s                  1      0.186382  1 H  s          
    20      0.186382  2 H  s                 39      0.186382  3 H  s          

 Vector    2  Occ=0.000000D+00  E=-2.995650D-01  Symmetry=e'
              MO Center= -7.5D-02, -1.3D-01, -8.2D-18, r^2= 2.3D+00
   Bfn.  Coefficient  Atom+Function         Bfn.  Coefficient  Atom+Function  
  ----- ------------  ---------------      ----- ------------  ---------------
    41      0.794106  3 H  s                 22     -0.685725  2 H  s          
    42      0.451955  3 H  s                 23     -0.390271  2 H  s          
    40      0.267712  3 H  s                 21     -0.231174  2 H  s          

 Vector    3  Occ=0.000000D+00  E=-2.995650D-01  Symmetry=e'
              MO Center=  7.5D-02,  1.3D-01,  4.8D-18, r^2= 2.3D+00
   Bfn.  Coefficient  Atom+Function         Bfn.  Coefficient  Atom+Function  
  ----- ------------  ---------------      ----- ------------  ---------------
     3      0.854381  1 H  s                 22     -0.521051  2 H  s          
     4      0.486260  1 H  s                 41     -0.333330  3 H  s          
    23     -0.296549  2 H  s                  2      0.288032  1 H  s          
    42     -0.189710  3 H  s                 21     -0.175659  2 H  s          

 Vector    4  Occ=0.000000D+00  E=-1.923968D-01  Symmetry=a1'
              MO Center= -9.1D-16, -4.7D-15,  6.6D-17, r^2= 6.6D+00
   Bfn.  Coefficient  Atom+Function         Bfn.  Coefficient  Atom+Function  
  ----- ------------  ---------------      ----- ------------  ---------------
     4      0.349453  1 H  s                 23      0.349453  2 H  s          
    42      0.349453  3 H  s          

 Vector    5  Occ=0.000000D+00  E=-1.383114D-01  Symmetry=a2"
              MO Center= -4.0D-16, -4.5D-16,  2.9D-17, r^2= 2.0D+00
   Bfn.  Coefficient  Atom+Function         Bfn.  Coefficient  Atom+Function  
  ----- ------------  ---------------      ----- ------------  ---------------
    13      0.360412  1 H  pz                32      0.360412  2 H  pz         
    51      0.360412  3 H  pz         

 Vector    6  Occ=0.000000D+00  E=-7.848582D-02  Symmetry=e'
              MO Center=  1.4D-01,  2.0D-01, -5.6D-31, r^2= 1.2D+01
   Bfn.  Coefficient  Atom+Function         Bfn.  Coefficient  Atom+Function  
  ----- ------------  ---------------      ----- ------------  ---------------
     4      5.182668  1 H  s                 23     -2.974858  2 H  s          
    42     -2.207811  3 H  s                  3     -2.079330  1 H  s          
    22      1.193538  2 H  s                 41      0.885792  3 H  s          
     2     -0.469049  1 H  s                 21      0.269235  2 H  s          
    40      0.199814  3 H  s                 11      0.163137  1 H  px         

 Vector    7  Occ=0.000000D+00  E=-7.848582D-02  Symmetry=e'
              MO Center= -1.4D-01, -2.0D-01, -2.1D-18, r^2= 1.2D+01
   Bfn.  Coefficient  Atom+Function         Bfn.  Coefficient  Atom+Function  
  ----- ------------  ---------------      ----- ------------  ---------------
    42      4.709750  3 H  s                 23     -4.266895  2 H  s          
    41     -1.889591  3 H  s                 22      1.711914  2 H  s          
     4     -0.442855  1 H  s                 40     -0.426248  3 H  s          
    21      0.386168  2 H  s                 50     -0.191578  3 H  py         
     3      0.177677  1 H  s                 30      0.170691  2 H  px         

 Vector    8  Occ=0.000000D+00  E= 3.451730D-02  Symmetry=a1'
              MO Center= -1.7D-15, -9.4D-16, -2.8D-18, r^2= 8.7D+00
   Bfn.  Coefficient  Atom+Function         Bfn.  Coefficient  Atom+Function  
  ----- ------------  ---------------      ----- ------------  ---------------
     3      1.087234  1 H  s                 22      1.087234  2 H  s          
    41      1.087234  3 H  s                  4     -0.658304  1 H  s          
    23     -0.658304  2 H  s                 42     -0.658304  3 H  s          
     2     -0.550792  1 H  s                 21     -0.550792  2 H  s          
    40     -0.550792  3 H  s                 30     -0.160315  2 H  px         

 Vector    9  Occ=0.000000D+00  E= 1.063542D-01  Symmetry=e'
              MO Center= -3.5D-03,  5.7D-03, -5.8D-16, r^2= 2.9D+00
   Bfn.  Coefficient  Atom+Function         Bfn.  Coefficient  Atom+Function  
  ----- ------------  ---------------      ----- ------------  ---------------
    41      1.483864  3 H  s                  3     -0.930055  1 H  s          
    31      0.900736  2 H  py                11     -0.810756  1 H  px         
    42     -0.618407  3 H  s                 22     -0.553809  2 H  s          
    50     -0.448494  3 H  py                30      0.436620  2 H  px         
    40      0.433352  3 H  s                  4      0.387604  1 H  s          

 Vector   10  Occ=0.000000D+00  E= 1.063542D-01  Symmetry=e'
              MO Center=  3.5D-03, -5.7D-03,  1.6D-32, r^2= 2.9D+00
   Bfn.  Coefficient  Atom+Function         Bfn.  Coefficient  Atom+Function  
  ----- ------------  ---------------      ----- ------------  ---------------
    22      1.393677  2 H  s                  3     -1.176451  1 H  s          
    49      0.991852  3 H  px                12     -0.747200  1 H  py         
    23     -0.580821  2 H  s                 31      0.500176  2 H  py         
     4      0.490291  1 H  s                 21      0.407013  2 H  s          
    30     -0.357378  2 H  px                 2     -0.343574  1 H  s          

 Vector   11  Occ=0.000000D+00  E= 1.486626D-01  Symmetry=e"
              MO Center= -1.8D-01,  1.7D-01, -5.5D-15, r^2= 2.8D+00
   Bfn.  Coefficient  Atom+Function         Bfn.  Coefficient  Atom+Function  
  ----- ------------  ---------------      ----- ------------  ---------------
    32      1.735955  2 H  pz                13     -1.249978  1 H  pz         
    51     -0.485977  3 H  pz         

 Vector   12  Occ=0.000000D+00  E= 1.486626D-01  Symmetry=e"
              MO Center=  1.8D-01, -1.7D-01,  4.8D-16, r^2= 2.8D+00
   Bfn.  Coefficient  Atom+Function         Bfn.  Coefficient  Atom+Function  
  ----- ------------  ---------------      ----- ------------  ---------------
    51      1.723929  3 H  pz                13     -1.282833  1 H  pz         
    32     -0.441097  2 H  pz         

 Vector   13  Occ=0.000000D+00  E= 1.644566D-01  Symmetry=e'
              MO Center=  1.7D-01, -1.3D-01,  3.4D-16, r^2= 8.5D+00
   Bfn.  Coefficient  Atom+Function         Bfn.  Coefficient  Atom+Function  
  ----- ------------  ---------------      ----- ------------  ---------------
    41      9.872979  3 H  s                  3     -7.861152  1 H  s          
    42     -4.974264  3 H  s                  4      3.960653  1 H  s          
    50      2.147169  3 H  py                22     -2.011826  2 H  s          
    12      1.549691  1 H  py                23      1.013610  2 H  s          
    40      0.930893  3 H  s                 11      0.883434  1 H  px         

 Vector   14  Occ=0.000000D+00  E= 1.644566D-01  Symmetry=e'
              MO Center= -1.7D-01,  1.3D-01,  5.3D-15, r^2= 8.5D+00
   Bfn.  Coefficient  Atom+Function         Bfn.  Coefficient  Atom+Function  
  ----- ------------  ---------------      ----- ------------  ---------------
    22     10.238805  2 H  s                  3     -6.861695  1 H  s          
    23     -5.158577  2 H  s                  4      3.457101  1 H  s          
    41     -3.377110  3 H  s                 30      2.200243  2 H  px         
    42      1.701476  3 H  s                 11      1.443541  1 H  px         
    21      0.965386  2 H  s                 49      0.846063  3 H  px         

 Vector   15  Occ=0.000000D+00  E= 2.045091D-01  Symmetry=a1'
              MO Center= -9.7D-15,  3.4D-14, -1.3D-16, r^2= 2.8D+00
   Bfn.  Coefficient  Atom+Function         Bfn.  Coefficient  Atom+Function  
  ----- ------------  ---------------      ----- ------------  ---------------
     2      1.279314  1 H  s                 21      1.279314  2 H  s          
    40      1.279314  3 H  s                 30     -1.251525  2 H  px         
    50     -1.251525  3 H  py                11      0.916180  1 H  px         
    12      0.916180  1 H  py                 3     -0.661062  1 H  s          
    22     -0.661062  2 H  s                 41     -0.661062  3 H  s          

 Vector   16  Occ=0.000000D+00  E= 3.824817D-01  Symmetry=a2'
              MO Center=  2.0D-15, -4.3D-15, -2.4D-17, r^2= 3.6D+00
   Bfn.  Coefficient  Atom+Function         Bfn.  Coefficient  Atom+Function  
  ----- ------------  ---------------      ----- ------------  ---------------
    31      3.600705  2 H  py                49     -3.600705  3 H  px         
    11      2.635899  1 H  px                12     -2.635899  1 H  py         
    30      0.964806  2 H  px                50     -0.964806  3 H  py         

 Vector   17  Occ=0.000000D+00  E= 6.618269D-01  Symmetry=e'
              MO Center=  2.8D-01,  9.0D-02, -9.5D-20, r^2= 4.7D+00
   Bfn.  Coefficient  Atom+Function         Bfn.  Coefficient  Atom+Function  
  ----- ------------  ---------------      ----- ------------  ---------------
     3     12.344472  1 H  s                 41     -8.784684  3 H  s          
     2      6.863066  1 H  s                 40     -4.883956  3 H  s          
    12     -3.840779  1 H  py                50     -3.776046  3 H  py         
    22     -3.559789  2 H  s                 11     -3.243653  1 H  px         
     4     -3.049509  1 H  s                 42      2.170119  3 H  s          


 center of mass
 --------------
 x =   0.00000000 y =   0.00000000 z =   0.00000000

 moments of inertia (a.u.)
 ------------------
           1.303468384825          -0.000000000000           0.000000000000
          -0.000000000000           1.303468384825           0.000000000000
           0.000000000000           0.000000000000           2.606936769650

     Multipole analysis of the density
     ---------------------------------

     L   x y z        total         alpha         beta         nuclear
     -   - - -        -----         -----         ----         -------
     0   0 0 0      1.000000     -1.000000     -1.000000      3.000000

     1   1 0 0      0.000000     -0.000000     -0.000000      0.000000
     1   0 1 0      0.000000      0.000000      0.000000      0.000000
     1   0 0 1      0.000000      0.000000      0.000000      0.000000

     2   2 0 0     -0.180754     -0.737051     -0.737051      1.293348
     2   1 1 0      0.000000     -0.000000     -0.000000      0.000000
     2   1 0 1      0.000000      0.000000      0.000000      0.000000
     2   0 2 0     -0.180754     -0.737051     -0.737051      1.293348
     2   0 1 1      0.000000      0.000000      0.000000      0.000000
     2   0 0 2     -1.045965     -0.522983     -0.522983      0.000000


 Parallel integral file used       5 records with       0 large values


 Task  times  cpu:        1.2s     wall:        1.7s


                                NWChem Input Module
                                -------------------


 Summary of allocated global arrays
-----------------------------------
  No active global arrays



                         GA Statistics for process    0
                         ------------------------------

       create   destroy   get      put      acc     scatter   gather  read&inc
calls:  169      169     9019     3398     2197        0        0      302     
number of processes/call 1.00e+00 1.00e+00 1.00e+00 0.00e+00 0.00e+00
bytes total:             1.36e+07 4.67e+06 8.59e+06 0.00e+00 0.00e+00 2.42e+03
bytes remote:            0.00e+00 0.00e+00 0.00e+00 0.00e+00 0.00e+00 0.00e+00
Max memory consumed for GA by this process: 1013688 bytes

MA_summarize_allocated_blocks: starting scan ...
MA_summarize_allocated_blocks: scan completed: 0 heap blocks, 0 stack blocks
MA usage statistics:

	allocation statistics:
					      heap	     stack
					      ----	     -----
	current number of blocks	         0	         0
	maximum number of blocks	        24	        55
	current total bytes		         0	         0
	maximum total bytes		   3955920	  22512168
	maximum total K-bytes		      3956	     22513
	maximum total M-bytes		         4	        23


                                     CITATION
                                     --------
                Please cite the following reference when publishing
                           results obtained with NWChem:

                 M. Valiev, E.J. Bylaska, N. Govind, K. Kowalski,
              T.P. Straatsma, H.J.J. van Dam, D. Wang, J. Nieplocha,
                        E. Apra, T.L. Windus, W.A. de Jong
                 "NWChem: a comprehensive and scalable open-source
                  solution for large scale molecular simulations"
                      Comput. Phys. Commun. 181, 1477 (2010)
                           doi:10.1016/j.cpc.2010.04.018

                                      AUTHORS
                                      -------
          E. Apra, E. J. Bylaska, W. A. de Jong, N. Govind, K. Kowalski,
       T. P. Straatsma, M. Valiev, H. J. J. van Dam, D. Wang, T. L. Windus,
        J. Hammond, J. Autschbach, K. Bhaskaran-Nair, J. Brabec, K. Lopata,
       S. A. Fischer, S. Krishnamoorthy, W. Ma, M. Klemm, O. Villa, Y. Chen,
    V. Anisimov, F. Aquino, S. Hirata, M. T. Hackler, T. Risthaus, M. Malagoli,
       A. Marenich, A. Otero-de-la-Roza, J. Mullin, P. Nichols, R. Peverati,
     J. Pittner, Y. Zhao, P.-D. Fan, A. Fonari, M. Williamson, R. J. Harrison,
       J. R. Rehr, M. Dupuis, D. Silverstein, D. M. A. Smith, J. Nieplocha,
        V. Tipparaju, M. Krishnan, B. E. Van Kuiken, A. Vazquez-Mayagoitia,
        L. Jensen, M. Swart, Q. Wu, T. Van Voorhis, A. A. Auer, M. Nooijen,
      L. D. Crosby, E. Brown, G. Cisneros, G. I. Fann, H. Fruchtl, J. Garza,
        K. Hirao, R. A. Kendall, J. A. Nichols, K. Tsemekhman, K. Wolinski,
     J. Anchell, D. E. Bernholdt, P. Borowski, T. Clark, D. Clerc, H. Dachsel,
   M. J. O. Deegan, K. Dyall, D. Elwood, E. Glendening, M. Gutowski, A. C. Hess,
         J. Jaffe, B. G. Johnson, J. Ju, R. Kobayashi, R. Kutteh, Z. Lin,
   R. Littlefield, X. Long, B. Meng, T. Nakajima, S. Niu, L. Pollack, M. Rosing,
   K. Glaesemann, G. Sandrone, M. Stave, H. Taylor, G. Thomas, J. H. van Lenthe,
                               A. T. Wong, Z. Zhang.

 Total times  cpu:        1.3s     wall:        1.9s
