[1537885297.292932] [r8n3:29395:0]         sys.c:744  MXM  WARN  Conflicting CPU frequencies detected, using: 2499.99
[1537885297.299362] [r8n3:29395:0]         mxm.c:196  MXM  WARN  The 'ulimit -s' on the system is set to 'unlimited'. This may have negative performance implications. Please set the stack size to the default value (10240) 
[1537885297.301596] [r8n3:29395:0]         mxm.c:196  MXM  WARN  The 'ulimit -s' on the system is set to 'unlimited'. This may have negative performance implications. Please set the stack size to the default value (10240) 
 argument  1 = /storage/home/bikashp/nwchem_run/rabeet/pa8/nwrevtpss/H3O+.xyz.nw
                                         
                                         


              Northwest Computational Chemistry Package (NWChem) 6.6
              ------------------------------------------------------


                    Environmental Molecular Sciences Laboratory
                       Pacific Northwest National Laboratory
                                Richland, WA 99352

                              Copyright (c) 1994-2015
                       Pacific Northwest National Laboratory
                            Battelle Memorial Institute

             NWChem is an open-source computational chemistry package
                        distributed under the terms of the
                      Educational Community License (ECL) 2.0
             A copy of the license is included with this distribution
                              in the LICENSE.TXT file

                                  ACKNOWLEDGMENT
                                  --------------

            This software and its documentation were developed at the
            EMSL at Pacific Northwest National Laboratory, a multiprogram
            national laboratory, operated for the U.S. Department of Energy
            by Battelle under Contract Number DE-AC05-76RL01830. Support
            for this work was provided by the Department of Energy Office
            of Biological and Environmental Research, Office of Basic
            Energy Sciences, and the Office of Advanced Scientific Computing.


           Job information
           ---------------

    hostname        = r8n3.niserhpc.org
    program         = /home/bikashp/Code/nwchem-6.6_revtpss/bin/LINUX64/nwchem
    date            = Tue Sep 25 19:51:37 2018

    compiled        = Tue_Sep_25_17:05:19_2018
    source          = /home/bikashp/Code/nwchem-6.6_revtpss
    nwchem branch   = 6.6
    nwchem revision = 27746
    ga revision     = 10594
    input           = /storage/home/bikashp/nwchem_run/rabeet/pa8/nwrevtpss/H3O+.xyz.nw
    prefix          = H3O+.xyz.
    data base       = ./H3O+.xyz.db
    status          = startup
    nproc           =        1
    time left       =     -1s



           Memory information
           ------------------

    heap     =   13107196 doubles =    100.0 Mbytes
    stack    =   13107201 doubles =    100.0 Mbytes
    global   =   26214400 doubles =    200.0 Mbytes (distinct from heap & stack)
    total    =   52428797 doubles =    400.0 Mbytes
    verify   = yes
    hardfail = no 


           Directory information
           ---------------------

  0 permanent = .
  0 scratch   = .




                                NWChem Input Module
                                -------------------



 Scaling coordinates for geometry "geometry" by  1.889725989
 (inverse scale =  0.529177249)

 C3V symmetry detected

          ------
          auto-z
          ------
  Looking for out-of-plane bends


                             Geometry "geometry" -> ""
                             -------------------------

 Output coordinates in angstroms (scale by  1.889725989 to convert to a.u.)

  No.       Tag          Charge          X              Y              Z
 ---- ---------------- ---------- -------------- -------------- --------------
    1 O                    8.0000     0.00000000     0.00000000    -0.08099492
    2 H                    1.0000     0.66840471     0.66840471     0.21598645
    3 H                    1.0000    -0.91305781     0.24465310     0.21598645
    4 H                    1.0000     0.24465310    -0.91305781     0.21598645

      Atomic Mass 
      ----------- 

      O                 15.994910
      H                  1.007825


 Effective nuclear repulsion energy (a.u.)      13.7875332399

            Nuclear Dipole moment (a.u.) 
            ----------------------------
        X                 Y               Z
 ---------------- ---------------- ----------------
    -0.0000000000    -0.0000000000     0.0000000000

      Symmetry information
      --------------------

 Group name             C3v       
 Group number             17
 Group order               6
 No. of unique centers     2

      Symmetry unique atoms

     1    2



                                Z-matrix (autoz)
                                -------- 

 Units are Angstrom for bonds and degrees for angles

      Type          Name      I     J     K     L     M      Value
      ----------- --------  ----- ----- ----- ----- ----- ----------
    1 Stretch                  1     2                       0.99082
    2 Stretch                  1     3                       0.99082
    3 Stretch                  1     4                       0.99082
    4 Bend                     2     1     3               111.42240
    5 Bend                     2     1     4               111.42240
    6 Bend                     3     1     4               111.42240
    7 Torsion                  2     1     3     4        -125.12768
    8 Torsion                  2     1     4     3         125.12768
    9 Torsion                  3     1     2     4         125.12768
   10 Torsion                  2     4     1     3        -125.12768
   11 Torsion                  3     2     1     4        -125.12768
   12 Torsion                  2     3     1     4         125.12768


            XYZ format geometry
            -------------------
     4
 geometry
 O                     0.00000000     0.00000000    -0.08099492
 H                     0.66840471     0.66840471     0.21598645
 H                    -0.91305781     0.24465310     0.21598645
 H                     0.24465310    -0.91305781     0.21598645

 ==============================================================================
                                internuclear distances
 ------------------------------------------------------------------------------
       center one      |      center two      | atomic units |  angstroms
 ------------------------------------------------------------------------------
    2 H                |   1 O                |     1.87238  |     0.99082
    3 H                |   1 O                |     1.87238  |     0.99082
    4 H                |   1 O                |     1.87238  |     0.99082
 ------------------------------------------------------------------------------
                         number of included internuclear distances:          3
 ==============================================================================



 ==============================================================================
                                 internuclear angles
 ------------------------------------------------------------------------------
        center 1       |       center 2       |       center 3       |  degrees
 ------------------------------------------------------------------------------
    2 H                |   1 O                |   3 H                |   111.42
    2 H                |   1 O                |   4 H                |   111.42
    3 H                |   1 O                |   4 H                |   111.42
 ------------------------------------------------------------------------------
                            number of included internuclear angles:          3
 ==============================================================================





 Summary of "ao basis" -> "" (cartesian)
 ------------------------------------------------------------------------------
       Tag                 Description            Shells   Functions and Types
 ---------------- ------------------------------  ------  ---------------------
 *                     6-311++G(3df,3pd)              on all atoms 



                                 NWChem DFT Module
                                 -----------------


                      Basis "ao basis" -> "ao basis" (cartesian)
                      -----
  O (Oxygen)
  ----------
            Exponent  Coefficients 
       -------------- ---------------------------------------------------------
  1 S  8.58850000E+03  0.001895
  1 S  1.29723000E+03  0.014386
  1 S  2.99296000E+02  0.070732
  1 S  8.73771000E+01  0.240001
  1 S  2.56789000E+01  0.594797
  1 S  3.74004000E+00  0.280802

  2 S  4.21175000E+01  0.113889
  2 S  9.62837000E+00  0.920811
  2 S  2.85332000E+00 -0.003274

  3 P  4.21175000E+01  0.036511
  3 P  9.62837000E+00  0.237153
  3 P  2.85332000E+00  0.819702

  4 S  9.05661000E-01  1.000000

  5 P  9.05661000E-01  1.000000

  6 S  2.55611000E-01  1.000000

  7 P  2.55611000E-01  1.000000

  8 S  8.45000000E-02  1.000000

  9 P  8.45000000E-02  1.000000

 10 D  5.16000000E+00  1.000000

 11 D  1.29200000E+00  1.000000

 12 D  3.22500000E-01  1.000000

 13 F  1.40000000E+00  1.000000

  H (Hydrogen)
  ------------
            Exponent  Coefficients 
       -------------- ---------------------------------------------------------
  1 S  3.38650000E+01  0.025494
  1 S  5.09479000E+00  0.190373
  1 S  1.15879000E+00  0.852161

  2 S  3.25840000E-01  1.000000

  3 S  1.02741000E-01  1.000000

  4 S  3.60000000E-02  1.000000

  5 P  3.00000000E+00  1.000000

  6 P  7.50000000E-01  1.000000

  7 P  1.87500000E-01  1.000000

  8 D  1.00000000E+00  1.000000



 Summary of "ao basis" -> "ao basis" (cartesian)
 ------------------------------------------------------------------------------
       Tag                 Description            Shells   Functions and Types
 ---------------- ------------------------------  ------  ---------------------
 O                     6-311++G(3df,3pd)            13       45   5s4p3d1f
 H                     6-311++G(3df,3pd)             8       19   4s3p1d




 Summary of "ao basis" -> "ao basis" (cartesian)
 ------------------------------------------------------------------------------
       Tag                 Description            Shells   Functions and Types
 ---------------- ------------------------------  ------  ---------------------
 O                     6-311++G(3df,3pd)            13       45   5s4p3d1f
 H                     6-311++G(3df,3pd)             8       19   4s3p1d


      Symmetry analysis of basis
      --------------------------

        a1         32
        a2          6
        e          64

  Caching 1-el integrals 
  Rotation of axis 

            General Information
            -------------------
          SCF calculation type: DFT
          Wavefunction type:  closed shell.
          No. of atoms     :     4
          No. of electrons :    10
           Alpha electrons :     5
            Beta electrons :     5
          Charge           :     1
          Spin multiplicity:     1
          Use of symmetry is: on ; symmetry adaption is: on 
          Maximum number of iterations: ***
          AO basis - number of functions:   102
                     number of shells:    37
          Convergence on energy requested: 1.00D-06
          Convergence on density requested: 1.00D-05
          Convergence on gradient requested: 5.00D-04

              XC Information
              --------------
                  TPSS metaGGA Exchange Functional  1.000          
             TPSS03 metaGGA Correlation Functional  1.000          

             Grid Information
             ----------------
          Grid used for XC integration:  medium    
          Radial quadrature: Mura-Knowles        
          Angular quadrature: Lebedev. 
          Tag              B.-S. Rad. Rad. Pts. Rad. Cut. Ang. Pts.
          ---              ---------- --------- --------- ---------
          O                   0.60       49           8.0       434
          H                   0.35       45          11.0       434
          Grid pruning is: on 
          Number of quadrature shells:    94
          Spatial weights used:  Erf1

          Convergence Information
          -----------------------
          Convergence aids based upon iterative change in 
          total energy or number of iterations. 
          Levelshifting, if invoked, occurs when the 
          HOMO/LUMO gap drops below (HL_TOL): 1.00D-02
          DIIS, if invoked, will attempt to extrapolate 
          using up to (NFOCK): 10 stored Fock matrices.

                    Damping( 0%)  Levelshifting(0.5)       DIIS
                  --------------- ------------------- ---------------
          dE  on:    start            ASAP                start   
          dE off:    2 iters        *** iters           *** iters 


      Screening Tolerance Information
      -------------------------------
          Density screening/tol_rho: 1.00D-10
          AO Gaussian exp screening on grid/accAOfunc:  14
          CD Gaussian exp screening on grid/accCDfunc:  20
          XC Gaussian exp screening on grid/accXCfunc:  20
          Schwarz screening/accCoul: 1.00D-08


      Superposition of Atomic Density Guess
      -------------------------------------

 Sum of atomic energies:         -76.27724021

 Renormalizing density from      11.00 to     10

      Non-variational initial energy
      ------------------------------

 Total energy =     -71.844591
 1-e energy   =    -119.206600
 2-e energy   =      33.574476
 HOMO         =      -1.213079
 LUMO         =      -0.353149


      Symmetry analysis of molecular orbitals - initial
      -------------------------------------------------

  Numbering of irreducible representations: 

     1 a1          2 a2          3 e       

  Orbital symmetries:

     1 a1          2 a1          3 e           4 e           5 a1      
     6 a1          7 e           8 e           9 a1         10 e       
    11 e          12 a1         13 e          14 e          15 a1      

   Time after variat. SCF:      0.4
   Time prior to 1st pass:      0.4

 Integral file          = ./H3O+.xyz.aoints.0
 Record size in doubles =    65536    No. of integs per rec  =    43688
 Max. records in memory =       95    Max. records in file   = ********
 No. of bits per label  =        8    No. of bits per value  =       64


 #quartets = 7.257D+04 #integrals = 4.011D+06 #direct =  0.0% #cached =100.0%


 Grid_pts file          = ./H3O+.xyz.gridpts.0
 Record size in doubles =  12289        No. of grid_pts per rec  =   3070
 Max. records in memory =     16        Max. recs in file   = 995294527


           Memory utilization after 1st SCF pass: 
           Heap Space remaining (MW):        6.68             6681388
          Stack Space remaining (MW):       13.11            13106524

   convergence    iter        energy       DeltaE   RMS-Dens  Diis-err    time
 ---------------- ----- ----------------- --------- --------- ---------  ------
 d= 0,ls=0.0,diis     1    -76.3918213759 -9.02D+01  1.41D-02  4.53D+00     1.9
 d= 0,ls=0.0,diis     2    -75.8206626615  5.71D-01  1.09D-02  9.24D+00     2.7
 d= 0,ls=0.0,diis     3    -76.6980266323 -8.77D-01  8.07D-04  1.00D-01     3.5
 d= 0,ls=0.0,diis     4    -76.7071448183 -9.12D-03  1.51D-04  2.73D-04     4.3
 d= 0,ls=0.0,diis     5    -76.7071600975 -1.53D-05  2.73D-05  2.03D-05     5.0
  Resetting Diis
 d= 0,ls=0.0,diis     6    -76.7071618868 -1.79D-06  5.00D-06  5.77D-07     5.8
 d= 0,ls=0.0,diis     7    -76.7071620776 -1.91D-07  2.20D-07  2.39D-10     6.7


         Total DFT energy =      -76.707162077566
      One electron energy =     -128.248405916544
           Coulomb energy =       47.128124393354
          Exchange energy =       -9.031363455103
       Correlation energy =       -0.343050339132
 Nuclear repulsion energy =       13.787533239860

 Numeric. integr. density =       10.000001146943

     Total iterative time =      6.3s



                  Occupations of the irreducible representations
                  ----------------------------------------------

                     irrep           alpha         beta
                     --------     --------     --------
                     a1                3.0          3.0
                     a2                0.0          0.0
                     e                 2.0          2.0


                       DFT Final Molecular Orbital Analysis
                       ------------------------------------

 Vector    1  Occ=2.000000D+00  E=-1.935277D+01  Symmetry=a1
              MO Center= -1.1D-17,  2.1D-17, -8.1D-02, r^2= 1.5D-02
   Bfn.  Coefficient  Atom+Function         Bfn.  Coefficient  Atom+Function  
  ----- ------------  ---------------      ----- ------------  ---------------
     1      0.552112  1 O  s                  2      0.470207  1 O  s          

 Vector    2  Occ=2.000000D+00  E=-1.386118D+00  Symmetry=a1
              MO Center= -9.6D-18, -1.4D-17,  3.5D-02, r^2= 5.0D-01
   Bfn.  Coefficient  Atom+Function         Bfn.  Coefficient  Atom+Function  
  ----- ------------  ---------------      ----- ------------  ---------------
     6      0.578983  1 O  s                 10      0.543877  1 O  s          
     2     -0.209085  1 O  s          

 Vector    3  Occ=2.000000D+00  E=-8.839019D-01  Symmetry=e
              MO Center=  9.5D-02,  9.6D-02,  2.1D-02, r^2= 7.1D-01
   Bfn.  Coefficient  Atom+Function         Bfn.  Coefficient  Atom+Function  
  ----- ------------  ---------------      ----- ------------  ---------------
     7      0.255372  1 O  px                 8      0.254178  1 O  py         
    11      0.207294  1 O  px                12      0.206324  1 O  py         
     3      0.181826  1 O  px                 4      0.180976  1 O  py         
    46      0.175893  2 H  s          

 Vector    4  Occ=2.000000D+00  E=-8.839019D-01  Symmetry=e
              MO Center= -9.5D-02, -9.6D-02,  2.1D-02, r^2= 7.1D-01
   Bfn.  Coefficient  Atom+Function         Bfn.  Coefficient  Atom+Function  
  ----- ------------  ---------------      ----- ------------  ---------------
     7      0.254178  1 O  px                 8     -0.255372  1 O  py         
    11      0.206324  1 O  px                12     -0.207294  1 O  py         
     3      0.180976  1 O  px                 4     -0.181826  1 O  py         
    65     -0.152122  3 H  s                 84      0.152534  4 H  s          

 Vector    5  Occ=2.000000D+00  E=-6.926470D-01  Symmetry=a1
              MO Center=  3.4D-16,  8.5D-17, -1.5D-01, r^2= 6.1D-01
   Bfn.  Coefficient  Atom+Function         Bfn.  Coefficient  Atom+Function  
  ----- ------------  ---------------      ----- ------------  ---------------
     9      0.425482  1 O  pz                13      0.380879  1 O  pz         
     5      0.298503  1 O  pz                10     -0.233008  1 O  s          
    14      0.158230  1 O  s          

 Vector    6  Occ=0.000000D+00  E=-2.965088D-01  Symmetry=a1
              MO Center= -3.2D-15, -7.5D-15,  3.3D-01, r^2= 3.6D+00
   Bfn.  Coefficient  Atom+Function         Bfn.  Coefficient  Atom+Function  
  ----- ------------  ---------------      ----- ------------  ---------------
    10      0.643376  1 O  s                 14      0.448161  1 O  s          
    48     -0.414003  2 H  s                 67     -0.414003  3 H  s          
    86     -0.414003  4 H  s                  6      0.347087  1 O  s          
    47     -0.191458  2 H  s                 66     -0.191458  3 H  s          
    85     -0.191458  4 H  s          

 Vector    7  Occ=0.000000D+00  E=-2.046405D-01  Symmetry=e
              MO Center= -5.8D-01, -2.2D-01,  3.4D-01, r^2= 4.1D+00
   Bfn.  Coefficient  Atom+Function         Bfn.  Coefficient  Atom+Function  
  ----- ------------  ---------------      ----- ------------  ---------------
    67      1.051704  3 H  s                 86     -0.820405  4 H  s          
    68      0.753474  3 H  s                 87     -0.587765  4 H  s          
    11      0.333499  1 O  px                15      0.328969  1 O  px         
    66      0.315687  3 H  s                 85     -0.246259  4 H  s          
    48     -0.231299  2 H  s                  7      0.225965  1 O  px         

 Vector    8  Occ=0.000000D+00  E=-2.046405D-01  Symmetry=e
              MO Center=  5.8D-01,  2.2D-01,  3.4D-01, r^2= 4.1D+00
   Bfn.  Coefficient  Atom+Function         Bfn.  Coefficient  Atom+Function  
  ----- ------------  ---------------      ----- ------------  ---------------
    48      1.080863  2 H  s                 49      0.774365  2 H  s          
    86     -0.740742  4 H  s                 87     -0.530691  4 H  s          
    67     -0.340121  3 H  s                 12     -0.333499  1 O  py         
    16     -0.328969  1 O  py                47      0.324440  2 H  s          
    68     -0.243674  3 H  s                  8     -0.225965  1 O  py         

 Vector    9  Occ=0.000000D+00  E=-1.116523D-01  Symmetry=e
              MO Center= -1.2D-01, -3.6D-01, -1.9D-01, r^2= 6.9D+00
   Bfn.  Coefficient  Atom+Function         Bfn.  Coefficient  Atom+Function  
  ----- ------------  ---------------      ----- ------------  ---------------
    48      2.739378  2 H  s                 67     -1.934148  3 H  s          
    49     -1.491186  2 H  s                 15     -1.386612  1 O  px         
    68      1.052857  3 H  s                 16     -0.853598  1 O  py         
    86     -0.805230  4 H  s                 87      0.438329  4 H  s          
    47      0.405531  2 H  s                 11     -0.346955  1 O  px         

 Vector   10  Occ=0.000000D+00  E=-1.116523D-01  Symmetry=e
              MO Center=  1.2D-01,  3.6D-01, -1.9D-01, r^2= 6.9D+00
   Bfn.  Coefficient  Atom+Function         Bfn.  Coefficient  Atom+Function  
  ----- ------------  ---------------      ----- ------------  ---------------
    86      2.698261  4 H  s                 67     -2.046480  3 H  s          
    87     -1.468804  4 H  s                 16      1.386612  1 O  py         
    68      1.114006  3 H  s                 15     -0.853598  1 O  px         
    48     -0.651781  2 H  s                 85      0.399445  4 H  s          
    49      0.354798  2 H  s                 12      0.346955  1 O  py         

 Vector   11  Occ=0.000000D+00  E=-1.099365D-01  Symmetry=a1
              MO Center=  3.7D-13, -5.8D-13,  6.8D-01, r^2= 4.7D+00
   Bfn.  Coefficient  Atom+Function         Bfn.  Coefficient  Atom+Function  
  ----- ------------  ---------------      ----- ------------  ---------------
    14      5.830920  1 O  s                 48     -2.568684  2 H  s          
    67     -2.568684  3 H  s                 86     -2.568684  4 H  s          
    17      2.114779  1 O  pz                10      0.683802  1 O  s          
    75     -0.281157  3 H  px                95     -0.281157  4 H  py         
    47     -0.251738  2 H  s                 66     -0.251738  3 H  s          

 Vector   12  Occ=0.000000D+00  E=-9.110841D-02  Symmetry=a1
              MO Center= -1.6D-13,  1.6D-13, -1.4D-01, r^2= 9.7D+00
   Bfn.  Coefficient  Atom+Function         Bfn.  Coefficient  Atom+Function  
  ----- ------------  ---------------      ----- ------------  ---------------
    14      1.675283  1 O  s                 48     -1.356056  2 H  s          
    67     -1.356056  3 H  s                 86     -1.356056  4 H  s          
    49      0.649935  2 H  s                 68      0.649935  3 H  s          
    87      0.649935  4 H  s                 10      0.446250  1 O  s          
     6      0.219969  1 O  s                 13      0.198494  1 O  pz         

 Vector   13  Occ=0.000000D+00  E=-1.983629D-02  Symmetry=e
              MO Center=  3.8D-01, -2.1D-01,  2.6D-01, r^2= 1.0D+01
   Bfn.  Coefficient  Atom+Function         Bfn.  Coefficient  Atom+Function  
  ----- ------------  ---------------      ----- ------------  ---------------
    16      2.667878  1 O  py                87      2.554153  4 H  s          
    49     -2.228501  2 H  s                 86      1.709436  4 H  s          
    48     -1.491485  2 H  s                 15      0.387958  1 O  px         
    68     -0.325652  3 H  s                 67     -0.217951  3 H  s          
    95      0.214796  4 H  py                96     -0.182457  4 H  pz         

 Vector   14  Occ=0.000000D+00  E=-1.983629D-02  Symmetry=e
              MO Center= -3.8D-01,  2.1D-01,  2.6D-01, r^2= 1.0D+01
   Bfn.  Coefficient  Atom+Function         Bfn.  Coefficient  Atom+Function  
  ----- ------------  ---------------      ----- ------------  ---------------
    68      2.761267  3 H  s                 15      2.667878  1 O  px         
    67      1.848052  3 H  s                 49     -1.662656  2 H  s          
    48     -1.112778  2 H  s                 87     -1.098611  4 H  s          
    86     -0.735275  4 H  s                 16     -0.387958  1 O  py         
    75      0.231441  3 H  px                77     -0.197252  3 H  pz         

 Vector   15  Occ=0.000000D+00  E=-1.349492D-02  Symmetry=a1
              MO Center=  5.5D-13,  3.2D-12, -2.5D-01, r^2= 6.7D+00
   Bfn.  Coefficient  Atom+Function         Bfn.  Coefficient  Atom+Function  
  ----- ------------  ---------------      ----- ------------  ---------------
    14     13.367853  1 O  s                 48     -4.638873  2 H  s          
    67     -4.638873  3 H  s                 86     -4.638873  4 H  s          
    17      1.534649  1 O  pz                10      1.139428  1 O  s          
    75     -0.496854  3 H  px                95     -0.496854  4 H  py         
    13      0.476278  1 O  pz                47     -0.440106  2 H  s          

 Vector   16  Occ=0.000000D+00  E= 3.492890D-02  Symmetry=e
              MO Center=  3.5D-02,  1.1D-01,  5.5D-02, r^2= 3.6D+00
   Bfn.  Coefficient  Atom+Function         Bfn.  Coefficient  Atom+Function  
  ----- ------------  ---------------      ----- ------------  ---------------
    48      2.209580  2 H  s                 15     -1.631766  1 O  px         
    67     -1.581173  3 H  s                 16     -0.981250  1 O  py         
    94      0.698397  4 H  px                86     -0.628406  4 H  s          
    76      0.585765  3 H  py                58      0.546395  2 H  pz         
    57     -0.463830  2 H  py                11     -0.449732  1 O  px         

 Vector   17  Occ=0.000000D+00  E= 3.492890D-02  Symmetry=e
              MO Center= -3.5D-02, -1.1D-01,  5.5D-02, r^2= 3.6D+00
   Bfn.  Coefficient  Atom+Function         Bfn.  Coefficient  Atom+Function  
  ----- ------------  ---------------      ----- ------------  ---------------
    86      2.188592  4 H  s                 16      1.631766  1 O  py         
    67     -1.638512  3 H  s                 15     -0.981250  1 O  px         
    56      0.574973  2 H  px                48     -0.550080  2 H  s          
    96      0.541205  4 H  pz                95      0.513571  4 H  py         
    75     -0.474622  3 H  px                12      0.449732  1 O  py         

 Vector   18  Occ=0.000000D+00  E= 1.623933D-01  Symmetry=e
              MO Center= -8.9D-02, -1.7D-01, -1.6D-01, r^2= 6.5D+00
   Bfn.  Coefficient  Atom+Function         Bfn.  Coefficient  Atom+Function  
  ----- ------------  ---------------      ----- ------------  ---------------
    86      7.362667  4 H  s                 67     -6.140739  3 H  s          
    16      2.667855  1 O  py                15     -1.944882  1 O  px         
    87     -1.362968  4 H  s                 95      1.291078  4 H  py         
    48     -1.221928  2 H  s                 68      1.136766  3 H  s          
    75     -1.089523  3 H  px                12      1.054844  1 O  py         

 Vector   19  Occ=0.000000D+00  E= 1.623933D-01  Symmetry=e
              MO Center=  8.9D-02,  1.7D-01, -1.6D-01, r^2= 6.5D+00
   Bfn.  Coefficient  Atom+Function         Bfn.  Coefficient  Atom+Function  
  ----- ------------  ---------------      ----- ------------  ---------------
    48      7.796195  2 H  s                 67     -4.956319  3 H  s          
    86     -2.839876  4 H  s                 15     -2.667855  1 O  px         
    16     -1.944882  1 O  py                49     -1.443222  2 H  s          
    11     -1.054844  1 O  px                57     -1.006373  2 H  py         
    56     -0.973567  2 H  px                68      0.917507  3 H  s          

 Vector   20  Occ=0.000000D+00  E= 2.045134D-01  Symmetry=a1
              MO Center= -2.0D-13, -2.5D-13,  7.3D-01, r^2= 5.4D+00
   Bfn.  Coefficient  Atom+Function         Bfn.  Coefficient  Atom+Function  
  ----- ------------  ---------------      ----- ------------  ---------------
    14     13.322628  1 O  s                 48     -6.638466  2 H  s          
    67     -6.638466  3 H  s                 86     -6.638466  4 H  s          
    17      2.780278  1 O  pz                75     -0.936101  3 H  px         
    95     -0.936101  4 H  py                10      0.880523  1 O  s          
    30      0.751127  1 O  dxx               33      0.751127  1 O  dyy        

 Vector   21  Occ=0.000000D+00  E= 2.352629D-01  Symmetry=a1
              MO Center= -3.8D-14, -2.6D-14, -4.5D-02, r^2= 4.9D+00
   Bfn.  Coefficient  Atom+Function         Bfn.  Coefficient  Atom+Function  
  ----- ------------  ---------------      ----- ------------  ---------------
    14      4.034977  1 O  s                 17      2.174804  1 O  pz         
    58     -1.154169  2 H  pz                77     -1.154169  3 H  pz         
    96     -1.154169  4 H  pz                10     -1.026920  1 O  s          
    48     -0.621719  2 H  s                 67     -0.621719  3 H  s          
    86     -0.621719  4 H  s                 30     -0.580116  1 O  dxx        

 Vector   22  Occ=0.000000D+00  E= 2.647850D-01  Symmetry=a2
              MO Center=  3.4D-15, -3.0D-15,  2.1D-01, r^2= 3.9D+00
   Bfn.  Coefficient  Atom+Function         Bfn.  Coefficient  Atom+Function  
  ----- ------------  ---------------      ----- ------------  ---------------
    76      1.200403  3 H  py                94     -1.200403  4 H  px         
    56      0.878756  2 H  px                57     -0.878756  2 H  py         
    75      0.321647  3 H  px                95     -0.321647  4 H  py         

 Vector   23  Occ=0.000000D+00  E= 3.014376D-01  Symmetry=e
              MO Center= -9.9D-02, -2.6D-02,  2.3D-01, r^2= 5.2D+00
   Bfn.  Coefficient  Atom+Function         Bfn.  Coefficient  Atom+Function  
  ----- ------------  ---------------      ----- ------------  ---------------
    15      2.757983  1 O  px                16     -1.582029  1 O  py         
    68      1.465453  3 H  s                 56     -1.117247  2 H  px         
    94     -1.118883  4 H  px                87     -1.068975  4 H  s          
    77     -1.011974  3 H  pz                57      0.836950  2 H  py         
    66      0.735625  3 H  s                 96      0.738185  4 H  pz         

 Vector   24  Occ=0.000000D+00  E= 3.014376D-01  Symmetry=e
              MO Center=  9.9D-02,  2.6D-02,  2.3D-01, r^2= 5.2D+00
   Bfn.  Coefficient  Atom+Function         Bfn.  Coefficient  Atom+Function  
  ----- ------------  ---------------      ----- ------------  ---------------
    16      2.757983  1 O  py                15      1.582029  1 O  px         
    49     -1.463253  2 H  s                 76     -1.286513  3 H  py         
    87      1.074986  4 H  s                 58      1.010455  2 H  pz         
    94     -0.836005  4 H  px                57     -0.781988  2 H  py         
    95     -0.780352  4 H  py                96     -0.742336  4 H  pz         

 Vector   25  Occ=0.000000D+00  E= 3.766237D-01  Symmetry=a1
              MO Center= -4.6D-14,  3.2D-14,  4.6D-01, r^2= 4.9D+00
   Bfn.  Coefficient  Atom+Function         Bfn.  Coefficient  Atom+Function  
  ----- ------------  ---------------      ----- ------------  ---------------
    14     15.377146  1 O  s                 10      6.864869  1 O  s          
    48     -6.336742  2 H  s                 67     -6.336742  3 H  s          
    86     -6.336742  4 H  s                 75     -2.418166  3 H  px         
    95     -2.418166  4 H  py                17      2.398786  1 O  pz         
    47     -2.015472  2 H  s                 66     -2.015472  3 H  s          

 Vector   26  Occ=0.000000D+00  E= 4.519042D-01  Symmetry=e
              MO Center= -1.4D-01, -6.5D-01,  3.2D-01, r^2= 4.5D+00
   Bfn.  Coefficient  Atom+Function         Bfn.  Coefficient  Atom+Function  
  ----- ------------  ---------------      ----- ------------  ---------------
    86      8.564465  4 H  s                 67     -6.087310  3 H  s          
    95      4.341925  4 H  py                12      3.562726  1 O  py         
    85      3.476424  4 H  s                 75     -3.063610  3 H  px         
    16      2.473571  1 O  py                48     -2.477154  2 H  s          
    66     -2.470916  3 H  s                 11     -1.948766  1 O  px         

 Vector   27  Occ=0.000000D+00  E= 4.519042D-01  Symmetry=e
              MO Center=  1.4D-01,  6.5D-01,  3.2D-01, r^2= 4.5D+00
   Bfn.  Coefficient  Atom+Function         Bfn.  Coefficient  Atom+Function  
  ----- ------------  ---------------      ----- ------------  ---------------
    48      8.459206  2 H  s                 67     -6.374882  3 H  s          
    11     -3.562726  1 O  px                47      3.433698  2 H  s          
    75     -3.266953  3 H  px                56     -3.177447  2 H  px         
    57     -3.115286  2 H  py                66     -2.587645  3 H  s          
    15     -2.473571  1 O  px                86     -2.084324  4 H  s          

 Vector   28  Occ=0.000000D+00  E= 5.802951D-01  Symmetry=a1
              MO Center= -2.0D-14, -1.4D-14, -5.7D-01, r^2= 2.9D+00
   Bfn.  Coefficient  Atom+Function         Bfn.  Coefficient  Atom+Function  
  ----- ------------  ---------------      ----- ------------  ---------------
    14      2.996818  1 O  s                 35     -2.547289  1 O  dzz        
    10      2.082043  1 O  s                 30     -1.032825  1 O  dxx        
    33     -1.032825  1 O  dyy                6     -0.482290  1 O  s          
    17     -0.441809  1 O  pz                75      0.350094  3 H  px         
    95      0.350094  4 H  py                58      0.283572  2 H  pz         


 center of mass
 --------------
 x =  -0.00000000 y =  -0.00000000 z =  -0.06383850

 moments of inertia (a.u.)
 ------------------
           5.624616630451           0.000000000000           0.000000000000
           0.000000000000           5.624616630451           0.000000000000
           0.000000000000           0.000000000000           9.647461461276

     Multipole analysis of the density
     ---------------------------------

     L   x y z        total         alpha         beta         nuclear
     -   - - -        -----         -----         ----         -------
     0   0 0 0      1.000000     -5.000000     -5.000000     11.000000

     1   1 0 0     -0.000000     -0.000000     -0.000000     -0.000000
     1   0 1 0      0.000000      0.000000      0.000000     -0.000000
     1   0 0 1      0.588201      0.294101      0.294101      0.000000

     2   2 0 0     -1.877846     -3.332062     -3.332062      4.786278
     2   1 1 0     -0.000000     -0.000000     -0.000000     -0.000000
     2   1 0 1     -0.000000     -0.000000     -0.000000     -0.000000
     2   0 2 0     -1.877846     -3.332062     -3.332062      4.786278
     2   0 1 1     -0.000000     -0.000000     -0.000000      0.000000
     2   0 0 2     -4.627112     -2.657150     -2.657150      0.687187


 Parallel integral file used      92 records with       0 large values


 Task  times  cpu:        6.7s     wall:        7.2s


                                NWChem Input Module
                                -------------------


 Summary of allocated global arrays
-----------------------------------
  No active global arrays



                         GA Statistics for process    0
                         ------------------------------

       create   destroy   get      put      acc     scatter   gather  read&inc
calls:  227      227     1.54e+04 6217     4156        0        0      606     
number of processes/call 1.00e+00 1.00e+00 1.00e+00 0.00e+00 0.00e+00
bytes total:             5.32e+07 1.74e+07 3.00e+07 0.00e+00 0.00e+00 4.85e+03
bytes remote:            0.00e+00 0.00e+00 0.00e+00 0.00e+00 0.00e+00 0.00e+00
Max memory consumed for GA by this process: 3246048 bytes

MA_summarize_allocated_blocks: starting scan ...
MA_summarize_allocated_blocks: scan completed: 0 heap blocks, 0 stack blocks
MA usage statistics:

	allocation statistics:
					      heap	     stack
					      ----	     -----
	current number of blocks	         0	         0
	maximum number of blocks	        24	        55
	current total bytes		         0	         0
	maximum total bytes		  51406056	  23654568
	maximum total K-bytes		     51407	     23655
	maximum total M-bytes		        52	        24


                                     CITATION
                                     --------
                Please cite the following reference when publishing
                           results obtained with NWChem:

                 M. Valiev, E.J. Bylaska, N. Govind, K. Kowalski,
              T.P. Straatsma, H.J.J. van Dam, D. Wang, J. Nieplocha,
                        E. Apra, T.L. Windus, W.A. de Jong
                 "NWChem: a comprehensive and scalable open-source
                  solution for large scale molecular simulations"
                      Comput. Phys. Commun. 181, 1477 (2010)
                           doi:10.1016/j.cpc.2010.04.018

                                      AUTHORS
                                      -------
          E. Apra, E. J. Bylaska, W. A. de Jong, N. Govind, K. Kowalski,
       T. P. Straatsma, M. Valiev, H. J. J. van Dam, D. Wang, T. L. Windus,
        J. Hammond, J. Autschbach, K. Bhaskaran-Nair, J. Brabec, K. Lopata,
       S. A. Fischer, S. Krishnamoorthy, W. Ma, M. Klemm, O. Villa, Y. Chen,
    V. Anisimov, F. Aquino, S. Hirata, M. T. Hackler, T. Risthaus, M. Malagoli,
       A. Marenich, A. Otero-de-la-Roza, J. Mullin, P. Nichols, R. Peverati,
     J. Pittner, Y. Zhao, P.-D. Fan, A. Fonari, M. Williamson, R. J. Harrison,
       J. R. Rehr, M. Dupuis, D. Silverstein, D. M. A. Smith, J. Nieplocha,
        V. Tipparaju, M. Krishnan, B. E. Van Kuiken, A. Vazquez-Mayagoitia,
        L. Jensen, M. Swart, Q. Wu, T. Van Voorhis, A. A. Auer, M. Nooijen,
      L. D. Crosby, E. Brown, G. Cisneros, G. I. Fann, H. Fruchtl, J. Garza,
        K. Hirao, R. A. Kendall, J. A. Nichols, K. Tsemekhman, K. Wolinski,
     J. Anchell, D. E. Bernholdt, P. Borowski, T. Clark, D. Clerc, H. Dachsel,
   M. J. O. Deegan, K. Dyall, D. Elwood, E. Glendening, M. Gutowski, A. C. Hess,
         J. Jaffe, B. G. Johnson, J. Ju, R. Kobayashi, R. Kutteh, Z. Lin,
   R. Littlefield, X. Long, B. Meng, T. Nakajima, S. Niu, L. Pollack, M. Rosing,
   K. Glaesemann, G. Sandrone, M. Stave, H. Taylor, G. Thomas, J. H. van Lenthe,
                               A. T. Wong, Z. Zhang.

 Total times  cpu:        6.7s     wall:        7.5s
