[1537886023.042444] [r8n3:30963:0]         sys.c:744  MXM  WARN  Conflicting CPU frequencies detected, using: 2499.99
[1537886023.046267] [r8n3:30963:0]         mxm.c:196  MXM  WARN  The 'ulimit -s' on the system is set to 'unlimited'. This may have negative performance implications. Please set the stack size to the default value (10240) 
[1537886023.047996] [r8n3:30963:0]         mxm.c:196  MXM  WARN  The 'ulimit -s' on the system is set to 'unlimited'. This may have negative performance implications. Please set the stack size to the default value (10240) 
 argument  1 = /storage/home/bikashp/nwchem_run/rabeet/pa8/nwrevtpss/HCl.xyz.nw
                                         
                                         


              Northwest Computational Chemistry Package (NWChem) 6.6
              ------------------------------------------------------


                    Environmental Molecular Sciences Laboratory
                       Pacific Northwest National Laboratory
                                Richland, WA 99352

                              Copyright (c) 1994-2015
                       Pacific Northwest National Laboratory
                            Battelle Memorial Institute

             NWChem is an open-source computational chemistry package
                        distributed under the terms of the
                      Educational Community License (ECL) 2.0
             A copy of the license is included with this distribution
                              in the LICENSE.TXT file

                                  ACKNOWLEDGMENT
                                  --------------

            This software and its documentation were developed at the
            EMSL at Pacific Northwest National Laboratory, a multiprogram
            national laboratory, operated for the U.S. Department of Energy
            by Battelle under Contract Number DE-AC05-76RL01830. Support
            for this work was provided by the Department of Energy Office
            of Biological and Environmental Research, Office of Basic
            Energy Sciences, and the Office of Advanced Scientific Computing.


           Job information
           ---------------

    hostname        = r8n3.niserhpc.org
    program         = /home/bikashp/Code/nwchem-6.6_revtpss/bin/LINUX64/nwchem
    date            = Tue Sep 25 20:03:43 2018

    compiled        = Tue_Sep_25_17:05:19_2018
    source          = /home/bikashp/Code/nwchem-6.6_revtpss
    nwchem branch   = 6.6
    nwchem revision = 27746
    ga revision     = 10594
    input           = /storage/home/bikashp/nwchem_run/rabeet/pa8/nwrevtpss/HCl.xyz.nw
    prefix          = HCl.xyz.
    data base       = ./HCl.xyz.db
    status          = startup
    nproc           =        1
    time left       =     -1s



           Memory information
           ------------------

    heap     =   13107196 doubles =    100.0 Mbytes
    stack    =   13107201 doubles =    100.0 Mbytes
    global   =   26214400 doubles =    200.0 Mbytes (distinct from heap & stack)
    total    =   52428797 doubles =    400.0 Mbytes
    verify   = yes
    hardfail = no 


           Directory information
           ---------------------

  0 permanent = .
  0 scratch   = .




                                NWChem Input Module
                                -------------------



 Scaling coordinates for geometry "geometry" by  1.889725989
 (inverse scale =  0.529177249)

 ORDER OF PRIMARY AXIS IS BEING SET TO 4
 C4V symmetry detected

          ------
          auto-z
          ------


                             Geometry "geometry" -> ""
                             -------------------------

 Output coordinates in angstroms (scale by  1.889725989 to convert to a.u.)

  No.       Tag          Charge          X              Y              Z
 ---- ---------------- ---------- -------------- -------------- --------------
    1 Cl                  17.0000     0.00000000     0.00000000     0.07111000
    2 H                    1.0000     0.00000000     0.00000000    -1.20887000

      Atomic Mass 
      ----------- 

      Cl                34.968850
      H                  1.007825


 Effective nuclear repulsion energy (a.u.)       7.0282451546

            Nuclear Dipole moment (a.u.) 
            ----------------------------
        X                 Y               Z
 ---------------- ---------------- ----------------
     0.0000000000     0.0000000000     0.0000000000

      Symmetry information
      --------------------

 Group name             C4v       
 Group number             18
 Group order               8
 No. of unique centers     2

      Symmetry unique atoms

     1    2



                                Z-matrix (autoz)
                                -------- 

 Units are Angstrom for bonds and degrees for angles

      Type          Name      I     J     K     L     M      Value
      ----------- --------  ----- ----- ----- ----- ----- ----------
    1 Stretch                  1     2                       1.27998


            XYZ format geometry
            -------------------
     2
 geometry
 Cl                    0.00000000     0.00000000     0.07111000
 H                     0.00000000     0.00000000    -1.20887000

 ==============================================================================
                                internuclear distances
 ------------------------------------------------------------------------------
       center one      |      center two      | atomic units |  angstroms
 ------------------------------------------------------------------------------
    2 H                |   1 Cl               |     2.41881  |     1.27998
 ------------------------------------------------------------------------------
                         number of included internuclear distances:          1
 ==============================================================================





 Summary of "ao basis" -> "" (cartesian)
 ------------------------------------------------------------------------------
       Tag                 Description            Shells   Functions and Types
 ---------------- ------------------------------  ------  ---------------------
 *                     6-311++G(3df,3pd)              on all atoms 



                                 NWChem DFT Module
                                 -----------------


                      Basis "ao basis" -> "ao basis" (cartesian)
                      -----
  Cl (Chlorine)
  -------------
            Exponent  Coefficients 
       -------------- ---------------------------------------------------------
  1 S  1.05819000E+05  0.000738
  1 S  1.58720000E+04  0.005718
  1 S  3.61965000E+03  0.029495
  1 S  1.03080000E+03  0.117286
  1 S  3.39908000E+02  0.362949
  1 S  1.24538000E+02  0.584149

  2 S  1.24538000E+02  0.134177
  2 S  4.95135000E+01  0.624250
  2 S  2.08056000E+01  0.291756

  3 S  6.58346000E+00  1.000000

  4 S  2.56468000E+00  1.000000

  5 S  5.59763000E-01  1.000000

  6 S  1.83273000E-01  1.000000

  7 P  5.89776000E+02  0.002391
  7 P  1.39849000E+02  0.018504
  7 P  4.51413000E+01  0.081377
  7 P  1.68733000E+01  0.221552
  7 P  6.74110000E+00  0.772569

  8 P  6.74110000E+00 -1.572244
  8 P  2.77152000E+00  0.992389

  9 P  1.02387000E+00  1.000000

 10 P  3.81368000E-01  1.000000

 11 P  1.09437000E-01  1.000000

 12 S  4.83000000E-02  1.000000

 13 P  4.83000000E-02  1.000000

 14 D  3.00000000E+00  1.000000

 15 D  7.50000000E-01  1.000000

 16 D  1.87500000E-01  1.000000

 17 F  7.00000000E-01  1.000000

  H (Hydrogen)
  ------------
            Exponent  Coefficients 
       -------------- ---------------------------------------------------------
  1 S  3.38650000E+01  0.025494
  1 S  5.09479000E+00  0.190373
  1 S  1.15879000E+00  0.852161

  2 S  3.25840000E-01  1.000000

  3 S  1.02741000E-01  1.000000

  4 S  3.60000000E-02  1.000000

  5 P  3.00000000E+00  1.000000

  6 P  7.50000000E-01  1.000000

  7 P  1.87500000E-01  1.000000

  8 D  1.00000000E+00  1.000000



 Summary of "ao basis" -> "ao basis" (cartesian)
 ------------------------------------------------------------------------------
       Tag                 Description            Shells   Functions and Types
 ---------------- ------------------------------  ------  ---------------------
 Cl                    6-311++G(3df,3pd)            17       53   7s6p3d1f
 H                     6-311++G(3df,3pd)             8       19   4s3p1d




 Summary of "ao basis" -> "ao basis" (cartesian)
 ------------------------------------------------------------------------------
       Tag                 Description            Shells   Functions and Types
 ---------------- ------------------------------  ------  ---------------------
 Cl                    6-311++G(3df,3pd)            17       53   7s6p3d1f
 H                     6-311++G(3df,3pd)             8       19   4s3p1d


      Symmetry analysis of basis
      --------------------------

        a1         30
        a2          0
        b1          5
        b2          5
        e          32

  Caching 1-el integrals 

            General Information
            -------------------
          SCF calculation type: DFT
          Wavefunction type:  closed shell.
          No. of atoms     :     2
          No. of electrons :    18
           Alpha electrons :     9
            Beta electrons :     9
          Charge           :     0
          Spin multiplicity:     1
          Use of symmetry is: on ; symmetry adaption is: on 
          Maximum number of iterations: ***
          AO basis - number of functions:    72
                     number of shells:    25
          Convergence on energy requested: 1.00D-06
          Convergence on density requested: 1.00D-05
          Convergence on gradient requested: 5.00D-04

              XC Information
              --------------
                  TPSS metaGGA Exchange Functional  1.000          
             TPSS03 metaGGA Correlation Functional  1.000          

             Grid Information
             ----------------
          Grid used for XC integration:  medium    
          Radial quadrature: Mura-Knowles        
          Angular quadrature: Lebedev. 
          Tag              B.-S. Rad. Rad. Pts. Rad. Cut. Ang. Pts.
          ---              ---------- --------- --------- ---------
          Cl                  1.00       88          10.0       590
          H                   0.35       45          10.0       434
          Grid pruning is: on 
          Number of quadrature shells:   133
          Spatial weights used:  Erf1

          Convergence Information
          -----------------------
          Convergence aids based upon iterative change in 
          total energy or number of iterations. 
          Levelshifting, if invoked, occurs when the 
          HOMO/LUMO gap drops below (HL_TOL): 1.00D-02
          DIIS, if invoked, will attempt to extrapolate 
          using up to (NFOCK): 10 stored Fock matrices.

                    Damping( 0%)  Levelshifting(0.5)       DIIS
                  --------------- ------------------- ---------------
          dE  on:    start            ASAP                start   
          dE off:    2 iters        *** iters           *** iters 


      Screening Tolerance Information
      -------------------------------
          Density screening/tol_rho: 1.00D-10
          AO Gaussian exp screening on grid/accAOfunc:  14
          CD Gaussian exp screening on grid/accCDfunc:  20
          XC Gaussian exp screening on grid/accXCfunc:  20
          Schwarz screening/accCoul: 1.00D-08


      Superposition of Atomic Density Guess
      -------------------------------------

 Sum of atomic energies:        -459.97786591

      Non-variational initial energy
      ------------------------------

 Total energy =    -460.048538
 1-e energy   =    -649.130987
 2-e energy   =     182.054204
 HOMO         =      -0.449592
 LUMO         =       0.028310


      Symmetry analysis of molecular orbitals - initial
      -------------------------------------------------

  Numbering of irreducible representations: 

     1 a1          2 a2          3 b1          4 b2          5 e       

  Orbital symmetries:

     1 a1          2 a1          3 a1          4 e           5 e       
     6 a1          7 a1          8 e           9 e          10 a1      
    11 a1         12 e          13 e          14 a1         15 a1      
    16 e          17 e          18 a1         19 b1      

   Time after variat. SCF:      0.3
   Time prior to 1st pass:      0.3

 Integral file          = ./HCl.xyz.aoints.0
 Record size in doubles =    65536    No. of integs per rec  =    43688
 Max. records in memory =       19    Max. records in file   = ********
 No. of bits per label  =        8    No. of bits per value  =       64


 #quartets = 5.297D+04 #integrals = 8.589D+05 #direct =  0.0% #cached =100.0%


 Grid_pts file          = ./HCl.xyz.gridpts.0
 Record size in doubles =  12289        No. of grid_pts per rec  =   3070
 Max. records in memory =     30        Max. recs in file   = 995244492


           Memory utilization after 1st SCF pass: 
           Heap Space remaining (MW):       11.49            11489964
          Stack Space remaining (MW):       13.11            13106716

   convergence    iter        energy       DeltaE   RMS-Dens  Diis-err    time
 ---------------- ----- ----------------- --------- --------- ---------  ------
 d= 0,ls=0.0,diis     1   -460.6507665341 -4.68D+02  7.22D-03  6.53D-01     0.9
 d= 0,ls=0.0,diis     2   -460.6542588699 -3.49D-03  6.10D-03  1.34D-01     1.0
 d= 0,ls=0.0,diis     3   -460.6615804123 -7.32D-03  2.56D-03  8.26D-02     1.1
 d= 0,ls=0.0,diis     4   -460.6721590686 -1.06D-02  1.37D-04  7.95D-05     1.3
 d= 0,ls=0.0,diis     5   -460.6721861137 -2.70D-05  3.49D-05  9.64D-06     1.4
  Resetting Diis
 d= 0,ls=0.0,diis     6   -460.6721826908  3.42D-06  9.42D-06  8.83D-07     1.5
 d= 0,ls=0.0,diis     7   -460.6721840848 -1.39D-06  2.94D-06  2.12D-08     1.5
 d= 0,ls=0.0,diis     8   -460.6721836814  4.03D-07  1.70D-06  3.77D-08     1.6


         Total DFT energy =     -460.672183681395
      One electron energy =     -649.719211418917
           Coulomb energy =      210.443707884748
          Exchange energy =      -27.716540139206
       Correlation energy =       -0.708385162628
 Nuclear repulsion energy =        7.028245154608

 Numeric. integr. density =       18.000003871481

     Total iterative time =      1.3s



                  Occupations of the irreducible representations
                  ----------------------------------------------

                     irrep           alpha         beta
                     --------     --------     --------
                     a1                5.0          5.0
                     a2                0.0          0.0
                     b1                0.0          0.0
                     b2                0.0          0.0
                     e                 4.0          4.0


                       DFT Final Molecular Orbital Analysis
                       ------------------------------------

 Vector    1  Occ=2.000000D+00  E=-1.010645D+02  Symmetry=a1
              MO Center= -4.7D-27, -4.1D-29,  7.1D-02, r^2= 3.1D-03
   Bfn.  Coefficient  Atom+Function         Bfn.  Coefficient  Atom+Function  
  ----- ------------  ---------------      ----- ------------  ---------------
     2      0.653358  1 Cl s                  1      0.412410  1 Cl s          

 Vector    2  Occ=2.000000D+00  E=-9.274800D+00  Symmetry=a1
              MO Center= -2.3D-17, -2.9D-17,  7.0D-02, r^2= 6.6D-02
   Bfn.  Coefficient  Atom+Function         Bfn.  Coefficient  Atom+Function  
  ----- ------------  ---------------      ----- ------------  ---------------
     4      0.613629  1 Cl s                  3      0.486044  1 Cl s          
     2     -0.327056  1 Cl s          

 Vector    3  Occ=2.000000D+00  E=-7.034811D+00  Symmetry=a1
              MO Center= -1.2D-16,  7.2D-18,  7.2D-02, r^2= 5.8D-02
   Bfn.  Coefficient  Atom+Function         Bfn.  Coefficient  Atom+Function  
  ----- ------------  ---------------      ----- ------------  ---------------
     9      1.229008  1 Cl pz                12      0.329898  1 Cl pz         

 Vector    4  Occ=2.000000D+00  E=-7.024201D+00  Symmetry=e
              MO Center=  1.1D-16,  4.9D-18,  7.1D-02, r^2= 5.8D-02
   Bfn.  Coefficient  Atom+Function         Bfn.  Coefficient  Atom+Function  
  ----- ------------  ---------------      ----- ------------  ---------------
     7      1.226971  1 Cl px                10      0.329331  1 Cl px         

 Vector    5  Occ=2.000000D+00  E=-7.024201D+00  Symmetry=e
              MO Center= -6.7D-18,  1.8D-17,  7.1D-02, r^2= 5.8D-02
   Bfn.  Coefficient  Atom+Function         Bfn.  Coefficient  Atom+Function  
  ----- ------------  ---------------      ----- ------------  ---------------
     8      1.226971  1 Cl py                11      0.329331  1 Cl py         

 Vector    6  Occ=2.000000D+00  E=-7.940675D-01  Symmetry=a1
              MO Center= -8.4D-17, -2.3D-16, -1.7D-01, r^2= 8.2D-01
   Bfn.  Coefficient  Atom+Function         Bfn.  Coefficient  Atom+Function  
  ----- ------------  ---------------      ----- ------------  ---------------
     6      0.564916  1 Cl s                  5      0.531777  1 Cl s          
     4     -0.392401  1 Cl s                  3     -0.203196  1 Cl s          

 Vector    7  Occ=2.000000D+00  E=-4.414525D-01  Symmetry=a1
              MO Center= -4.2D-16, -3.1D-16, -1.4D-01, r^2= 1.3D+00
   Bfn.  Coefficient  Atom+Function         Bfn.  Coefficient  Atom+Function  
  ----- ------------  ---------------      ----- ------------  ---------------
    18      0.428842  1 Cl pz                 6      0.330052  1 Cl s          
     9     -0.290886  1 Cl pz                55     -0.271138  2 H  s          
    15      0.210308  1 Cl pz                 5      0.188580  1 Cl s          
    54     -0.163495  2 H  s                 21      0.154270  1 Cl pz         

 Vector    8  Occ=2.000000D+00  E=-3.014045D-01  Symmetry=e
              MO Center= -2.6D-17,  2.6D-16,  3.2D-02, r^2= 1.2D+00
   Bfn.  Coefficient  Atom+Function         Bfn.  Coefficient  Atom+Function  
  ----- ------------  ---------------      ----- ------------  ---------------
    16      0.693243  1 Cl px                 7     -0.356223  1 Cl px         
    19      0.308687  1 Cl px                13      0.233530  1 Cl px         

 Vector    9  Occ=2.000000D+00  E=-3.014045D-01  Symmetry=e
              MO Center= -5.0D-16,  2.4D-16,  3.2D-02, r^2= 1.2D+00
   Bfn.  Coefficient  Atom+Function         Bfn.  Coefficient  Atom+Function  
  ----- ------------  ---------------      ----- ------------  ---------------
    17      0.693243  1 Cl py                 8     -0.356223  1 Cl py         
    20      0.308687  1 Cl py                14      0.233530  1 Cl py         

 Vector   10  Occ=0.000000D+00  E=-3.907462D-02  Symmetry=a1
              MO Center=  3.0D-15, -4.2D-15, -1.2D+00, r^2= 6.1D+00
   Bfn.  Coefficient  Atom+Function         Bfn.  Coefficient  Atom+Function  
  ----- ------------  ---------------      ----- ------------  ---------------
    57      1.598134  2 H  s                 22     -0.984579  1 Cl s          
    25      0.526586  1 Cl pz                18      0.340572  1 Cl pz         
    56      0.340470  2 H  s                  6     -0.259713  1 Cl s          
     5     -0.183815  1 Cl s          

 Vector   11  Occ=0.000000D+00  E= 2.926649D-02  Symmetry=a1
              MO Center=  4.2D-15,  1.3D-14, -6.7D-01, r^2= 6.6D+00
   Bfn.  Coefficient  Atom+Function         Bfn.  Coefficient  Atom+Function  
  ----- ------------  ---------------      ----- ------------  ---------------
    56      2.446147  2 H  s                 57     -1.329561  2 H  s          
    21      1.248522  1 Cl pz                 6     -0.668864  1 Cl s          
    18      0.506437  1 Cl pz                55      0.450308  2 H  s          
    22     -0.394008  1 Cl s                 66      0.325342  2 H  pz         
    43     -0.201189  1 Cl dzz               38     -0.171204  1 Cl dxx        

 Vector   12  Occ=0.000000D+00  E= 4.385099D-02  Symmetry=a1
              MO Center= -1.0D-14, -2.7D-14,  7.1D-01, r^2= 9.5D+00
   Bfn.  Coefficient  Atom+Function         Bfn.  Coefficient  Atom+Function  
  ----- ------------  ---------------      ----- ------------  ---------------
    22      1.610196  1 Cl s                 25      0.961676  1 Cl pz         
    57     -0.775197  2 H  s                 21     -0.711038  1 Cl pz         
    38     -0.215185  1 Cl dxx               41     -0.215185  1 Cl dyy        
    56     -0.195411  2 H  s                  5     -0.180613  1 Cl s          

 Vector   13  Occ=0.000000D+00  E= 5.577837D-02  Symmetry=e
              MO Center= -4.7D-15,  9.9D-15,  3.1D-02, r^2= 9.9D+00
   Bfn.  Coefficient  Atom+Function         Bfn.  Coefficient  Atom+Function  
  ----- ------------  ---------------      ----- ------------  ---------------
    24      1.206100  1 Cl py                23     -0.907029  1 Cl px         
    20     -0.666840  1 Cl py                19      0.501487  1 Cl px         
    17      0.167645  1 Cl py         

 Vector   14  Occ=0.000000D+00  E= 5.577837D-02  Symmetry=e
              MO Center=  1.3D-14,  1.0D-14,  3.1D-02, r^2= 9.9D+00
   Bfn.  Coefficient  Atom+Function         Bfn.  Coefficient  Atom+Function  
  ----- ------------  ---------------      ----- ------------  ---------------
    23      1.206100  1 Cl px                24      0.907029  1 Cl py         
    19     -0.666840  1 Cl px                20     -0.501487  1 Cl py         
    16      0.167645  1 Cl px         

 Vector   15  Occ=0.000000D+00  E= 1.031700D-01  Symmetry=a1
              MO Center= -1.3D-15,  2.4D-15, -1.1D+00, r^2= 1.2D+01
   Bfn.  Coefficient  Atom+Function         Bfn.  Coefficient  Atom+Function  
  ----- ------------  ---------------      ----- ------------  ---------------
    22      5.555819  1 Cl s                 57     -4.329493  2 H  s          
    25     -2.633049  1 Cl pz                21      0.561229  1 Cl pz         
    56     -0.465890  2 H  s                 43     -0.412831  1 Cl dzz        
    38     -0.393024  1 Cl dxx               41     -0.393024  1 Cl dyy        
     5     -0.289162  1 Cl s                  6     -0.258828  1 Cl s          

 Vector   16  Occ=0.000000D+00  E= 1.975762D-01  Symmetry=e
              MO Center= -1.3D-16,  7.3D-16, -2.9D-01, r^2= 2.5D+00
   Bfn.  Coefficient  Atom+Function         Bfn.  Coefficient  Atom+Function  
  ----- ------------  ---------------      ----- ------------  ---------------
    42      0.735904  1 Cl dyz               40     -0.474997  1 Cl dxz        
    65     -0.451207  2 H  py                36      0.324240  1 Cl dyz        
    64      0.291237  2 H  px                34     -0.209284  1 Cl dxz        
    20      0.180530  1 Cl py         

 Vector   17  Occ=0.000000D+00  E= 1.975762D-01  Symmetry=e
              MO Center= -1.5D-15, -2.0D-16, -2.9D-01, r^2= 2.5D+00
   Bfn.  Coefficient  Atom+Function         Bfn.  Coefficient  Atom+Function  
  ----- ------------  ---------------      ----- ------------  ---------------
    40      0.735904  1 Cl dxz               42      0.474997  1 Cl dyz        
    64     -0.451207  2 H  px                34      0.324240  1 Cl dxz        
    65     -0.291237  2 H  py                36      0.209284  1 Cl dyz        
    19      0.180530  1 Cl px         

 Vector   18  Occ=0.000000D+00  E= 2.525659D-01  Symmetry=b2
              MO Center= -2.0D-15, -5.1D-16,  6.6D-02, r^2= 2.1D+00
   Bfn.  Coefficient  Atom+Function         Bfn.  Coefficient  Atom+Function  
  ----- ------------  ---------------      ----- ------------  ---------------
    39      1.471378  1 Cl dxy               33      0.414748  1 Cl dxy        

 Vector   19  Occ=0.000000D+00  E= 2.525665D-01  Symmetry=b1
              MO Center= -4.6D-16, -1.9D-15,  6.6D-02, r^2= 2.1D+00
   Bfn.  Coefficient  Atom+Function         Bfn.  Coefficient  Atom+Function  
  ----- ------------  ---------------      ----- ------------  ---------------
    38      0.735686  1 Cl dxx               41     -0.735686  1 Cl dyy        
    32      0.207378  1 Cl dxx               35     -0.207378  1 Cl dyy        

 Vector   20  Occ=0.000000D+00  E= 2.572930D-01  Symmetry=a1
              MO Center=  1.9D-15,  1.0D-15, -7.4D-01, r^2= 6.7D+00
   Bfn.  Coefficient  Atom+Function         Bfn.  Coefficient  Atom+Function  
  ----- ------------  ---------------      ----- ------------  ---------------
    56      6.892398  2 H  s                 21      2.450689  1 Cl pz         
    22     -2.393218  1 Cl s                  6     -2.073152  1 Cl s          
    43     -1.557211  1 Cl dzz               66      1.294395  2 H  pz         
    25      1.056862  1 Cl pz                18      0.658930  1 Cl pz         
    57     -0.284541  2 H  s                 46     -0.273292  1 Cl fxxz       

 Vector   21  Occ=0.000000D+00  E= 3.623296D-01  Symmetry=a1
              MO Center= -2.8D-15, -3.6D-15,  8.0D-01, r^2= 6.1D+00
   Bfn.  Coefficient  Atom+Function         Bfn.  Coefficient  Atom+Function  
  ----- ------------  ---------------      ----- ------------  ---------------
    21      3.944374  1 Cl pz                56      3.144048  2 H  s          
     6     -2.719379  1 Cl s                 25     -1.587072  1 Cl pz         
    66      1.549948  2 H  pz                55      1.053962  2 H  s          
    18     -0.896075  1 Cl pz                57     -0.853941  2 H  s          
    43     -0.421121  1 Cl dzz               53      0.254137  1 Cl fzzz       

 Vector   22  Occ=0.000000D+00  E= 4.038278D-01  Symmetry=e
              MO Center=  7.5D-16,  1.5D-15,  9.5D-02, r^2= 5.9D+00
   Bfn.  Coefficient  Atom+Function         Bfn.  Coefficient  Atom+Function  
  ----- ------------  ---------------      ----- ------------  ---------------
    17      2.645776  1 Cl py                20     -2.501406  1 Cl py         
    24      1.370486  1 Cl py                45     -0.733641  1 Cl fxxy       
    50     -0.733636  1 Cl fyyy              52     -0.720212  1 Cl fyzz       
    16      0.541241  1 Cl px                19     -0.511708  1 Cl px         
    14     -0.295370  1 Cl py                23      0.280358  1 Cl px         

 Vector   23  Occ=0.000000D+00  E= 4.038278D-01  Symmetry=e
              MO Center=  3.1D-15, -7.1D-16,  9.5D-02, r^2= 5.9D+00
   Bfn.  Coefficient  Atom+Function         Bfn.  Coefficient  Atom+Function  
  ----- ------------  ---------------      ----- ------------  ---------------
    16      2.645776  1 Cl px                19     -2.501406  1 Cl px         
    23      1.370486  1 Cl px                44     -0.733636  1 Cl fxxx       
    47     -0.733641  1 Cl fxyy              49     -0.720212  1 Cl fxzz       
    17     -0.541241  1 Cl py                20      0.511708  1 Cl py         
    13     -0.295370  1 Cl px                24     -0.280358  1 Cl py         

 Vector   24  Occ=0.000000D+00  E= 4.561148D-01  Symmetry=a1
              MO Center= -3.8D-16,  1.9D-15, -7.8D-01, r^2= 5.9D+00
   Bfn.  Coefficient  Atom+Function         Bfn.  Coefficient  Atom+Function  
  ----- ------------  ---------------      ----- ------------  ---------------
    22      3.878613  1 Cl s                 56      3.027763  2 H  s          
    57     -2.721826  2 H  s                 38     -1.974619  1 Cl dxx        
    41     -1.974619  1 Cl dyy               21      1.500698  1 Cl pz         
    43     -1.494356  1 Cl dzz               25     -1.178096  1 Cl pz         
    66      0.858360  2 H  pz                55     -0.686493  2 H  s          

 Vector   25  Occ=0.000000D+00  E= 4.895867D-01  Symmetry=e
              MO Center=  7.3D-16, -2.9D-16, -8.4D-01, r^2= 3.2D+00
   Bfn.  Coefficient  Atom+Function         Bfn.  Coefficient  Atom+Function  
  ----- ------------  ---------------      ----- ------------  ---------------
    40      1.896326  1 Cl dxz               64      1.697425  2 H  px         
    19     -1.219736  1 Cl px                42     -0.909115  1 Cl dyz        
    65     -0.813760  2 H  py                20      0.584752  1 Cl py         
    34      0.281060  1 Cl dxz               23      0.163057  1 Cl px         

 Vector   26  Occ=0.000000D+00  E= 4.895867D-01  Symmetry=e
              MO Center=  4.3D-16,  9.8D-16, -8.4D-01, r^2= 3.2D+00
   Bfn.  Coefficient  Atom+Function         Bfn.  Coefficient  Atom+Function  
  ----- ------------  ---------------      ----- ------------  ---------------
    42      1.896326  1 Cl dyz               65      1.697425  2 H  py         
    20     -1.219736  1 Cl py                40      0.909115  1 Cl dxz        
    64      0.813760  2 H  px                19     -0.584752  1 Cl px         
    36      0.281060  1 Cl dyz               24      0.163057  1 Cl py         

 Vector   27  Occ=0.000000D+00  E= 5.303222D-01  Symmetry=a1
              MO Center= -4.0D-15, -2.0D-15, -8.5D-01, r^2= 3.8D+00
   Bfn.  Coefficient  Atom+Function         Bfn.  Coefficient  Atom+Function  
  ----- ------------  ---------------      ----- ------------  ---------------
    22      2.681432  1 Cl s                  6      2.447727  1 Cl s          
    56     -2.242200  2 H  s                 18     -2.210053  1 Cl pz         
    66     -1.765549  2 H  pz                25     -1.440327  1 Cl pz         
    57     -1.345326  2 H  s                 43     -1.325569  1 Cl dzz        
    21      1.277427  1 Cl pz                55      1.119189  2 H  s          


 center of mass
 --------------
 x =   0.00000000 y =   0.00000000 z =   0.06661955

 moments of inertia (a.u.)
 ------------------
           5.731251853562           0.000000000000           0.000000000000
           0.000000000000           5.731251853562           0.000000000000
           0.000000000000           0.000000000000           0.000000000000

     Multipole analysis of the density
     ---------------------------------

     L   x y z        total         alpha         beta         nuclear
     -   - - -        -----         -----         ----         -------
     0   0 0 0     -0.000000     -9.000000     -9.000000     18.000000

     1   1 0 0      0.000000      0.000000      0.000000      0.000000
     1   0 1 0      0.000000      0.000000      0.000000      0.000000
     1   0 0 1     -0.423146     -0.211573     -0.211573      0.000000

     2   2 0 0    -10.470945     -5.235472     -5.235472      0.000000
     2   1 1 0      0.000000      0.000000      0.000000      0.000000
     2   1 0 1      0.000000      0.000000      0.000000      0.000000
     2   0 2 0    -10.470945     -5.235472     -5.235472      0.000000
     2   0 1 1      0.000000      0.000000      0.000000      0.000000
     2   0 0 2     -7.840734     -6.683173     -6.683173      5.525613


------------------------------------------------------------
EAF file 0: "./HCl.xyz.aoints.0" size=524288 bytes
------------------------------------------------------------
               write      read    awrite     aread      wait
               -----      ----    ------     -----      ----
     calls:        1         7         0         0         0
   data(b): 5.24e+05  3.67e+06  0.00e+00  0.00e+00
   time(s): 0.00e+00  0.00e+00  0.00e+00  0.00e+00  0.00e+00
rate(mb/s): 0.00e+00  0.00e+00
------------------------------------------------------------


 Parallel integral file used      20 records with       0 large values


 Task  times  cpu:        1.6s     wall:        1.8s


                                NWChem Input Module
                                -------------------


 Summary of allocated global arrays
-----------------------------------
  No active global arrays



                         GA Statistics for process    0
                         ------------------------------

       create   destroy   get      put      acc     scatter   gather  read&inc
calls:  246      246     1.31e+04 5675     1459        0        0      374     
number of processes/call 1.00e+00 1.00e+00 1.00e+00 0.00e+00 0.00e+00
bytes total:             3.23e+07 1.03e+07 1.98e+07 0.00e+00 0.00e+00 2.99e+03
bytes remote:            0.00e+00 0.00e+00 0.00e+00 0.00e+00 0.00e+00 0.00e+00
Max memory consumed for GA by this process: 1617408 bytes

MA_summarize_allocated_blocks: starting scan ...
MA_summarize_allocated_blocks: scan completed: 0 heap blocks, 0 stack blocks
MA usage statistics:

	allocation statistics:
					      heap	     stack
					      ----	     -----
	current number of blocks	         0	         0
	maximum number of blocks	        24	        55
	current total bytes		         0	         0
	maximum total bytes		  12937208	  22512616
	maximum total K-bytes		     12938	     22513
	maximum total M-bytes		        13	        23


                                     CITATION
                                     --------
                Please cite the following reference when publishing
                           results obtained with NWChem:

                 M. Valiev, E.J. Bylaska, N. Govind, K. Kowalski,
              T.P. Straatsma, H.J.J. van Dam, D. Wang, J. Nieplocha,
                        E. Apra, T.L. Windus, W.A. de Jong
                 "NWChem: a comprehensive and scalable open-source
                  solution for large scale molecular simulations"
                      Comput. Phys. Commun. 181, 1477 (2010)
                           doi:10.1016/j.cpc.2010.04.018

                                      AUTHORS
                                      -------
          E. Apra, E. J. Bylaska, W. A. de Jong, N. Govind, K. Kowalski,
       T. P. Straatsma, M. Valiev, H. J. J. van Dam, D. Wang, T. L. Windus,
        J. Hammond, J. Autschbach, K. Bhaskaran-Nair, J. Brabec, K. Lopata,
       S. A. Fischer, S. Krishnamoorthy, W. Ma, M. Klemm, O. Villa, Y. Chen,
    V. Anisimov, F. Aquino, S. Hirata, M. T. Hackler, T. Risthaus, M. Malagoli,
       A. Marenich, A. Otero-de-la-Roza, J. Mullin, P. Nichols, R. Peverati,
     J. Pittner, Y. Zhao, P.-D. Fan, A. Fonari, M. Williamson, R. J. Harrison,
       J. R. Rehr, M. Dupuis, D. Silverstein, D. M. A. Smith, J. Nieplocha,
        V. Tipparaju, M. Krishnan, B. E. Van Kuiken, A. Vazquez-Mayagoitia,
        L. Jensen, M. Swart, Q. Wu, T. Van Voorhis, A. A. Auer, M. Nooijen,
      L. D. Crosby, E. Brown, G. Cisneros, G. I. Fann, H. Fruchtl, J. Garza,
        K. Hirao, R. A. Kendall, J. A. Nichols, K. Tsemekhman, K. Wolinski,
     J. Anchell, D. E. Bernholdt, P. Borowski, T. Clark, D. Clerc, H. Dachsel,
   M. J. O. Deegan, K. Dyall, D. Elwood, E. Glendening, M. Gutowski, A. C. Hess,
         J. Jaffe, B. G. Johnson, J. Ju, R. Kobayashi, R. Kutteh, Z. Lin,
   R. Littlefield, X. Long, B. Meng, T. Nakajima, S. Niu, L. Pollack, M. Rosing,
   K. Glaesemann, G. Sandrone, M. Stave, H. Taylor, G. Thomas, J. H. van Lenthe,
                               A. T. Wong, Z. Zhang.

 Total times  cpu:        1.6s     wall:        2.0s
