[1537886037.155509] [r8n3:31024:0]         sys.c:744  MXM  WARN  Conflicting CPU frequencies detected, using: 2499.99
[1537886037.159430] [r8n3:31024:0]         mxm.c:196  MXM  WARN  The 'ulimit -s' on the system is set to 'unlimited'. This may have negative performance implications. Please set the stack size to the default value (10240) 
[1537886037.161348] [r8n3:31024:0]         mxm.c:196  MXM  WARN  The 'ulimit -s' on the system is set to 'unlimited'. This may have negative performance implications. Please set the stack size to the default value (10240) 
 argument  1 = /storage/home/bikashp/nwchem_run/rabeet/pa8/nwrevtpss/PH3.xyz.nw
                                         
                                         


              Northwest Computational Chemistry Package (NWChem) 6.6
              ------------------------------------------------------


                    Environmental Molecular Sciences Laboratory
                       Pacific Northwest National Laboratory
                                Richland, WA 99352

                              Copyright (c) 1994-2015
                       Pacific Northwest National Laboratory
                            Battelle Memorial Institute

             NWChem is an open-source computational chemistry package
                        distributed under the terms of the
                      Educational Community License (ECL) 2.0
             A copy of the license is included with this distribution
                              in the LICENSE.TXT file

                                  ACKNOWLEDGMENT
                                  --------------

            This software and its documentation were developed at the
            EMSL at Pacific Northwest National Laboratory, a multiprogram
            national laboratory, operated for the U.S. Department of Energy
            by Battelle under Contract Number DE-AC05-76RL01830. Support
            for this work was provided by the Department of Energy Office
            of Biological and Environmental Research, Office of Basic
            Energy Sciences, and the Office of Advanced Scientific Computing.


           Job information
           ---------------

    hostname        = r8n3.niserhpc.org
    program         = /home/bikashp/Code/nwchem-6.6_revtpss/bin/LINUX64/nwchem
    date            = Tue Sep 25 20:03:57 2018

    compiled        = Tue_Sep_25_17:05:19_2018
    source          = /home/bikashp/Code/nwchem-6.6_revtpss
    nwchem branch   = 6.6
    nwchem revision = 27746
    ga revision     = 10594
    input           = /storage/home/bikashp/nwchem_run/rabeet/pa8/nwrevtpss/PH3.xyz.nw
    prefix          = PH3.xyz.
    data base       = ./PH3.xyz.db
    status          = startup
    nproc           =        1
    time left       =     -1s



           Memory information
           ------------------

    heap     =   13107196 doubles =    100.0 Mbytes
    stack    =   13107201 doubles =    100.0 Mbytes
    global   =   26214400 doubles =    200.0 Mbytes (distinct from heap & stack)
    total    =   52428797 doubles =    400.0 Mbytes
    verify   = yes
    hardfail = no 


           Directory information
           ---------------------

  0 permanent = .
  0 scratch   = .




                                NWChem Input Module
                                -------------------



 Scaling coordinates for geometry "geometry" by  1.889725989
 (inverse scale =  0.529177249)

 C3V symmetry detected

          ------
          auto-z
          ------
  Looking for out-of-plane bends


                             Geometry "geometry" -> ""
                             -------------------------

 Output coordinates in angstroms (scale by  1.889725989 to convert to a.u.)

  No.       Tag          Charge          X              Y              Z
 ---- ---------------- ---------- -------------- -------------- --------------
    1 P                   15.0000     0.00000000     0.00000000     0.12461833
    2 H                    1.0000    -0.84898519    -0.84898519    -0.62309167
    3 H                    1.0000    -0.31075015     1.15973534    -0.62309167
    4 H                    1.0000     1.15973534    -0.31075015    -0.62309167

      Atomic Mass 
      ----------- 

      P                 30.973760
      H                  1.007825


 Effective nuclear repulsion energy (a.u.)      17.5990897957

            Nuclear Dipole moment (a.u.) 
            ----------------------------
        X                 Y               Z
 ---------------- ---------------- ----------------
    -0.0000000000    -0.0000000000     0.0000000000

      Symmetry information
      --------------------

 Group name             C3v       
 Group number             17
 Group order               6
 No. of unique centers     2

      Symmetry unique atoms

     1    2



                                Z-matrix (autoz)
                                -------- 

 Units are Angstrom for bonds and degrees for angles

      Type          Name      I     J     K     L     M      Value
      ----------- --------  ----- ----- ----- ----- ----- ----------
    1 Stretch                  1     2                       1.41443
    2 Stretch                  1     3                       1.41443
    3 Stretch                  1     4                       1.41443
    4 Bend                     2     1     3                94.63614
    5 Bend                     2     1     4                94.63614
    6 Bend                     3     1     4                94.63614
    7 Torsion                  2     1     3     4         -95.04484
    8 Torsion                  2     1     4     3          95.04484
    9 Torsion                  3     1     2     4          95.04484
   10 Torsion                  2     4     1     3         -95.04484
   11 Torsion                  3     2     1     4         -95.04484
   12 Torsion                  2     3     1     4          95.04484


            XYZ format geometry
            -------------------
     4
 geometry
 P                     0.00000000     0.00000000     0.12461833
 H                    -0.84898519    -0.84898519    -0.62309167
 H                    -0.31075015     1.15973534    -0.62309167
 H                     1.15973534    -0.31075015    -0.62309167

 ==============================================================================
                                internuclear distances
 ------------------------------------------------------------------------------
       center one      |      center two      | atomic units |  angstroms
 ------------------------------------------------------------------------------
    2 H                |   1 P                |     2.67289  |     1.41443
    3 H                |   1 P                |     2.67289  |     1.41443
    4 H                |   1 P                |     2.67289  |     1.41443
 ------------------------------------------------------------------------------
                         number of included internuclear distances:          3
 ==============================================================================



 ==============================================================================
                                 internuclear angles
 ------------------------------------------------------------------------------
        center 1       |       center 2       |       center 3       |  degrees
 ------------------------------------------------------------------------------
    2 H                |   1 P                |   3 H                |    94.64
    2 H                |   1 P                |   4 H                |    94.64
    3 H                |   1 P                |   4 H                |    94.64
 ------------------------------------------------------------------------------
                            number of included internuclear angles:          3
 ==============================================================================





 Summary of "ao basis" -> "" (cartesian)
 ------------------------------------------------------------------------------
       Tag                 Description            Shells   Functions and Types
 ---------------- ------------------------------  ------  ---------------------
 *                     6-311++G(3df,3pd)              on all atoms 



                                 NWChem DFT Module
                                 -----------------


                      Basis "ao basis" -> "ao basis" (cartesian)
                      -----
  P (Phosphorous)
  ---------------
            Exponent  Coefficients 
       -------------- ---------------------------------------------------------
  1 S  7.74924000E+04  0.000781
  1 S  1.16058000E+04  0.006068
  1 S  2.64596000E+03  0.031160
  1 S  7.54976000E+02  0.123431
  1 S  2.48755000E+02  0.378209
  1 S  9.11565000E+01  0.563262

  2 S  9.11565000E+01  0.160255
  2 S  3.62257000E+01  0.627647
  2 S  1.52113000E+01  0.263849

  3 S  4.79417000E+00  1.000000

  4 S  1.80793000E+00  1.000000

  5 S  3.56816000E-01  1.000000

  6 S  1.14783000E-01  1.000000

  7 P  3.84843000E+02  0.009206
  7 P  9.05521000E+01  0.069874
  7 P  2.91339000E+01  0.292470
  7 P  1.08862000E+01  0.728103

  8 P  4.35259000E+00  0.628349
  8 P  1.77706000E+00  0.428044

  9 P  6.97005000E-01  1.000000

 10 P  2.53532000E-01  1.000000

 11 P  6.84930000E-02  1.000000

 12 S  3.48000000E-02  1.000000

 13 P  3.48000000E-02  1.000000

 14 D  2.20000000E+00  1.000000

 15 D  5.50000000E-01  1.000000

 16 D  1.37500000E-01  1.000000

 17 F  4.50000000E-01  1.000000

  H (Hydrogen)
  ------------
            Exponent  Coefficients 
       -------------- ---------------------------------------------------------
  1 S  3.38650000E+01  0.025494
  1 S  5.09479000E+00  0.190373
  1 S  1.15879000E+00  0.852161

  2 S  3.25840000E-01  1.000000

  3 S  1.02741000E-01  1.000000

  4 S  3.60000000E-02  1.000000

  5 P  3.00000000E+00  1.000000

  6 P  7.50000000E-01  1.000000

  7 P  1.87500000E-01  1.000000

  8 D  1.00000000E+00  1.000000



 Summary of "ao basis" -> "ao basis" (cartesian)
 ------------------------------------------------------------------------------
       Tag                 Description            Shells   Functions and Types
 ---------------- ------------------------------  ------  ---------------------
 P                     6-311++G(3df,3pd)            17       53   7s6p3d1f
 H                     6-311++G(3df,3pd)             8       19   4s3p1d




 Summary of "ao basis" -> "ao basis" (cartesian)
 ------------------------------------------------------------------------------
       Tag                 Description            Shells   Functions and Types
 ---------------- ------------------------------  ------  ---------------------
 P                     6-311++G(3df,3pd)            17       53   7s6p3d1f
 H                     6-311++G(3df,3pd)             8       19   4s3p1d


      Symmetry analysis of basis
      --------------------------

        a1         36
        a2          6
        e          68

  Caching 1-el integrals 
  Rotation of axis 

            General Information
            -------------------
          SCF calculation type: DFT
          Wavefunction type:  closed shell.
          No. of atoms     :     4
          No. of electrons :    18
           Alpha electrons :     9
            Beta electrons :     9
          Charge           :     0
          Spin multiplicity:     1
          Use of symmetry is: on ; symmetry adaption is: on 
          Maximum number of iterations: ***
          AO basis - number of functions:   110
                     number of shells:    41
          Convergence on energy requested: 1.00D-06
          Convergence on density requested: 1.00D-05
          Convergence on gradient requested: 5.00D-04

              XC Information
              --------------
                  TPSS metaGGA Exchange Functional  1.000          
             TPSS03 metaGGA Correlation Functional  1.000          

             Grid Information
             ----------------
          Grid used for XC integration:  medium    
          Radial quadrature: Mura-Knowles        
          Angular quadrature: Lebedev. 
          Tag              B.-S. Rad. Rad. Pts. Rad. Cut. Ang. Pts.
          ---              ---------- --------- --------- ---------
          P                   1.00       88          11.0       590
          H                   0.35       45          11.0       434
          Grid pruning is: on 
          Number of quadrature shells:   133
          Spatial weights used:  Erf1

          Convergence Information
          -----------------------
          Convergence aids based upon iterative change in 
          total energy or number of iterations. 
          Levelshifting, if invoked, occurs when the 
          HOMO/LUMO gap drops below (HL_TOL): 1.00D-02
          DIIS, if invoked, will attempt to extrapolate 
          using up to (NFOCK): 10 stored Fock matrices.

                    Damping( 0%)  Levelshifting(0.5)       DIIS
                  --------------- ------------------- ---------------
          dE  on:    start            ASAP                start   
          dE off:    2 iters        *** iters           *** iters 


      Screening Tolerance Information
      -------------------------------
          Density screening/tol_rho: 1.00D-10
          AO Gaussian exp screening on grid/accAOfunc:  14
          CD Gaussian exp screening on grid/accCDfunc:  20
          XC Gaussian exp screening on grid/accXCfunc:  20
          Schwarz screening/accCoul: 1.00D-08


      Superposition of Atomic Density Guess
      -------------------------------------

 Sum of atomic energies:        -342.14993010

      Non-variational initial energy
      ------------------------------

 Total energy =    -342.362576
 1-e energy   =    -507.413032
 2-e energy   =     147.451366
 HOMO         =      -0.313574
 LUMO         =       0.029013


      Symmetry analysis of molecular orbitals - initial
      -------------------------------------------------

  Numbering of irreducible representations: 

     1 a1          2 a2          3 e       

  Orbital symmetries:

     1 a1          2 a1          3 e           4 e           5 a1      
     6 a1          7 e           8 e           9 a1         10 a1      
    11 e          12 e          13 e          14 e          15 a1      
    16 e          17 e          18 a1         19 a1      

   Time after variat. SCF:      0.4
   Time prior to 1st pass:      0.4

 Integral file          = ./PH3.xyz.aoints.0
 Record size in doubles =    65536    No. of integs per rec  =    43688
 Max. records in memory =      127    Max. records in file   = ********
 No. of bits per label  =        8    No. of bits per value  =       64


 #quartets = 1.153D+05 #integrals = 5.368D+06 #direct =  0.0% #cached =100.0%


 Grid_pts file          = ./PH3.xyz.gridpts.0
 Record size in doubles =  12289        No. of grid_pts per rec  =   3070
 Max. records in memory =     30        Max. recs in file   = 995250319


           Memory utilization after 1st SCF pass: 
           Heap Space remaining (MW):        4.41             4411484
          Stack Space remaining (MW):       13.11            13106484

   convergence    iter        energy       DeltaE   RMS-Dens  Diis-err    time
 ---------------- ----- ----------------- --------- --------- ---------  ------
 d= 0,ls=0.0,diis     1   -343.0353541906 -3.61D+02  3.55D-03  4.51D-01     1.5
 d= 0,ls=0.0,diis     2   -343.0504760408 -1.51D-02  1.46D-03  1.42D-02     2.0
 d= 0,ls=0.0,diis     3   -343.0510848392 -6.09D-04  6.78D-04  8.70D-03     2.5
 d= 0,ls=0.0,diis     4   -343.0524242525 -1.34D-03  1.07D-04  1.35D-04     3.0
 d= 0,ls=0.0,diis     5   -343.0524731508 -4.89D-05  3.82D-05  1.76D-05     3.6
  Resetting Diis
 d= 0,ls=0.0,diis     6   -343.0524702886  2.86D-06  8.29D-06  6.05D-08     4.1
 d= 0,ls=0.0,diis     7   -343.0524702892 -6.37D-10  6.91D-07  1.84D-09     4.6


         Total DFT energy =     -343.052470289203
      One electron energy =     -508.547577423904
           Coulomb energy =      172.118346400436
          Exchange energy =      -23.558412872694
       Correlation energy =       -0.663916188693
 Nuclear repulsion energy =       17.599089795652

 Numeric. integr. density =       18.000006889752

     Total iterative time =      4.2s



                  Occupations of the irreducible representations
                  ----------------------------------------------

                     irrep           alpha         beta
                     --------     --------     --------
                     a1                5.0          5.0
                     a2                0.0          0.0
                     e                 4.0          4.0


                       DFT Final Molecular Orbital Analysis
                       ------------------------------------

 Vector    1  Occ=2.000000D+00  E=-7.662973D+01  Symmetry=a1
              MO Center= -6.5D-19, -6.9D-19,  1.2D-01, r^2= 4.1D-03
   Bfn.  Coefficient  Atom+Function         Bfn.  Coefficient  Atom+Function  
  ----- ------------  ---------------      ----- ------------  ---------------
     2      0.644973  1 P  s                  1      0.419948  1 P  s          

 Vector    2  Occ=2.000000D+00  E=-6.381390D+00  Symmetry=a1
              MO Center= -4.9D-20, -1.8D-20,  1.2D-01, r^2= 9.0D-02
   Bfn.  Coefficient  Atom+Function         Bfn.  Coefficient  Atom+Function  
  ----- ------------  ---------------      ----- ------------  ---------------
     4      0.591024  1 P  s                  3      0.508173  1 P  s          
     2     -0.312851  1 P  s          

 Vector    3  Occ=2.000000D+00  E=-4.541411D+00  Symmetry=e
              MO Center= -1.7D-05,  5.2D-06,  1.2D-01, r^2= 8.3D-02
   Bfn.  Coefficient  Atom+Function         Bfn.  Coefficient  Atom+Function  
  ----- ------------  ---------------      ----- ------------  ---------------
    10      0.661796  1 P  px                 7      0.393776  1 P  px         
    11     -0.166295  1 P  py         

 Vector    4  Occ=2.000000D+00  E=-4.541411D+00  Symmetry=e
              MO Center=  1.7D-05, -5.2D-06,  1.2D-01, r^2= 8.3D-02
   Bfn.  Coefficient  Atom+Function         Bfn.  Coefficient  Atom+Function  
  ----- ------------  ---------------      ----- ------------  ---------------
    11      0.661796  1 P  py                 8      0.393776  1 P  py         
    10      0.166295  1 P  px         

 Vector    5  Occ=2.000000D+00  E=-4.536360D+00  Symmetry=a1
              MO Center=  1.1D-15, -3.0D-16,  1.3D-01, r^2= 8.3D-02
   Bfn.  Coefficient  Atom+Function         Bfn.  Coefficient  Atom+Function  
  ----- ------------  ---------------      ----- ------------  ---------------
    12      0.682494  1 P  pz                 9      0.406255  1 P  pz         

 Vector    6  Occ=2.000000D+00  E=-6.036778D-01  Symmetry=a1
              MO Center=  1.2D-17, -1.5D-17, -2.3D-01, r^2= 1.3D+00
   Bfn.  Coefficient  Atom+Function         Bfn.  Coefficient  Atom+Function  
  ----- ------------  ---------------      ----- ------------  ---------------
     6      0.487181  1 P  s                  5      0.437711  1 P  s          
     4     -0.302396  1 P  s                  3     -0.177471  1 P  s          

 Vector    7  Occ=2.000000D+00  E=-3.618386D-01  Symmetry=e
              MO Center=  1.3D-01, -3.3D-01, -3.3D-01, r^2= 1.7D+00
   Bfn.  Coefficient  Atom+Function         Bfn.  Coefficient  Atom+Function  
  ----- ------------  ---------------      ----- ------------  ---------------
    16      0.285391  1 P  px                93      0.255474  4 H  s          
    55     -0.239260  2 H  s                 13      0.160961  1 P  px         
    94      0.157290  4 H  s          

 Vector    8  Occ=2.000000D+00  E=-3.618386D-01  Symmetry=e
              MO Center= -1.3D-01,  3.3D-01, -3.3D-01, r^2= 1.7D+00
   Bfn.  Coefficient  Atom+Function         Bfn.  Coefficient  Atom+Function  
  ----- ------------  ---------------      ----- ------------  ---------------
    17      0.285391  1 P  py                74      0.285634  3 H  s          
    75      0.175859  3 H  s                 14      0.160961  1 P  py         
    73      0.161208  3 H  s                 55     -0.156859  2 H  s          

 Vector    9  Occ=2.000000D+00  E=-2.512154D-01  Symmetry=a1
              MO Center= -4.5D-16,  8.2D-16,  3.5D-01, r^2= 1.9D+00
   Bfn.  Coefficient  Atom+Function         Bfn.  Coefficient  Atom+Function  
  ----- ------------  ---------------      ----- ------------  ---------------
     6      0.525415  1 P  s                 18      0.522201  1 P  pz         
    22      0.249149  1 P  s                  5      0.225929  1 P  s          
    21      0.198895  1 P  pz                12     -0.154212  1 P  pz         
    15      0.154166  1 P  pz                 4     -0.151709  1 P  s          

 Vector   10  Occ=0.000000D+00  E=-2.463220D-02  Symmetry=a1
              MO Center= -3.1D-15, -3.1D-15, -5.0D-01, r^2= 1.2D+01
   Bfn.  Coefficient  Atom+Function         Bfn.  Coefficient  Atom+Function  
  ----- ------------  ---------------      ----- ------------  ---------------
    22      4.812583  1 P  s                 57     -2.163620  2 H  s          
    76     -2.163620  3 H  s                 95     -2.163620  4 H  s          
    25     -1.461445  1 P  pz                21      0.258368  1 P  pz         
    56      0.237849  2 H  s                 75      0.237849  3 H  s          
    94      0.237849  4 H  s                  5      0.175869  1 P  s          

 Vector   11  Occ=0.000000D+00  E=-7.209614D-03  Symmetry=e
              MO Center= -5.8D-02, -1.3D-01,  2.2D-01, r^2= 5.5D+00
   Bfn.  Coefficient  Atom+Function         Bfn.  Coefficient  Atom+Function  
  ----- ------------  ---------------      ----- ------------  ---------------
    76      1.941532  3 H  s                 95     -1.574940  4 H  s          
    24     -1.166010  1 P  py                23      0.809331  1 P  px         
    17     -0.439919  1 P  py                57     -0.366592  2 H  s          
    16      0.305349  1 P  px                42     -0.245395  1 P  dyz        
    74      0.178743  3 H  s                 40      0.170329  1 P  dxz        

 Vector   12  Occ=0.000000D+00  E=-7.209614D-03  Symmetry=e
              MO Center=  5.8D-02,  1.3D-01,  2.2D-01, r^2= 5.5D+00
   Bfn.  Coefficient  Atom+Function         Bfn.  Coefficient  Atom+Function  
  ----- ------------  ---------------      ----- ------------  ---------------
    57      2.030236  2 H  s                 95     -1.332596  4 H  s          
    23      1.166010  1 P  px                24      0.809331  1 P  py         
    76     -0.697640  3 H  s                 16      0.439919  1 P  px         
    17      0.305349  1 P  py                39      0.263728  1 P  dxy        
    40      0.245395  1 P  dxz               55      0.186909  2 H  s          

 Vector   13  Occ=0.000000D+00  E= 2.099978D-02  Symmetry=e
              MO Center=  4.4D-01,  1.4D-01, -4.6D-01, r^2= 1.4D+01
   Bfn.  Coefficient  Atom+Function         Bfn.  Coefficient  Atom+Function  
  ----- ------------  ---------------      ----- ------------  ---------------
    95      1.171824  4 H  s                 76     -0.879367  3 H  s          
    23      0.759705  1 P  px                19     -0.731932  1 P  px         
    24     -0.458792  1 P  py                20      0.442020  1 P  py         
    57     -0.292457  2 H  s          

 Vector   14  Occ=0.000000D+00  E= 2.099978D-02  Symmetry=e
              MO Center= -4.4D-01, -1.4D-01, -4.6D-01, r^2= 1.4D+01
   Bfn.  Coefficient  Atom+Function         Bfn.  Coefficient  Atom+Function  
  ----- ------------  ---------------      ----- ------------  ---------------
    57      1.184255  2 H  s                 76     -0.845403  3 H  s          
    24     -0.759705  1 P  py                20      0.731932  1 P  py         
    23     -0.458792  1 P  px                19      0.442020  1 P  px         
    95     -0.338852  4 H  s          

 Vector   15  Occ=0.000000D+00  E= 2.868995D-02  Symmetry=a1
              MO Center=  1.7D-14, -1.1D-14,  8.2D-01, r^2= 1.4D+01
   Bfn.  Coefficient  Atom+Function         Bfn.  Coefficient  Atom+Function  
  ----- ------------  ---------------      ----- ------------  ---------------
    25      1.834953  1 P  pz                21     -1.499821  1 P  pz         
     6      0.559836  1 P  s                 56     -0.441071  2 H  s          
    75     -0.441071  3 H  s                 94     -0.441071  4 H  s          
    22      0.307473  1 P  s          

 Vector   16  Occ=0.000000D+00  E= 8.044644D-02  Symmetry=e
              MO Center= -2.5D-02,  2.1D-02,  1.3D-01, r^2= 1.6D+01
   Bfn.  Coefficient  Atom+Function         Bfn.  Coefficient  Atom+Function  
  ----- ------------  ---------------      ----- ------------  ---------------
    95      6.569719  4 H  s                 23     -4.790634  1 P  px         
    57     -4.545836  2 H  s                 19      2.941404  1 P  px         
    94     -2.935856  4 H  s                 56      2.031429  2 H  s          
    76     -2.023883  3 H  s                 16      1.388923  1 P  px         
    75      0.904427  3 H  s                 40     -0.681904  1 P  dxz        

 Vector   17  Occ=0.000000D+00  E= 8.044644D-02  Symmetry=e
              MO Center=  2.5D-02, -2.1D-02,  1.3D-01, r^2= 1.6D+01
   Bfn.  Coefficient  Atom+Function         Bfn.  Coefficient  Atom+Function  
  ----- ------------  ---------------      ----- ------------  ---------------
    76      6.417568  3 H  s                 57     -4.961518  2 H  s          
    24     -4.790634  1 P  py                20      2.941404  1 P  py         
    75     -2.867863  3 H  s                 56      2.217188  2 H  s          
    95     -1.456050  4 H  s                 17      1.388923  1 P  py         
    42     -0.681904  1 P  dyz               94      0.650675  4 H  s          

 Vector   18  Occ=0.000000D+00  E= 9.002220D-02  Symmetry=a1
              MO Center= -2.0D-13, -2.9D-13, -7.5D-01, r^2= 1.6D+01
   Bfn.  Coefficient  Atom+Function         Bfn.  Coefficient  Atom+Function  
  ----- ------------  ---------------      ----- ------------  ---------------
    22     20.455579  1 P  s                 57     -6.932778  2 H  s          
    76     -6.932778  3 H  s                 95     -6.932778  4 H  s          
    25     -5.224452  1 P  pz                 6     -0.843347  1 P  s          
    38     -0.630428  1 P  dxx               41     -0.630428  1 P  dyy        
    43     -0.526448  1 P  dzz                5     -0.500308  1 P  s          

 Vector   19  Occ=0.000000D+00  E= 1.157396D-01  Symmetry=a1
              MO Center= -2.7D-14, -8.2D-14, -6.0D-01, r^2= 5.3D+00
   Bfn.  Coefficient  Atom+Function         Bfn.  Coefficient  Atom+Function  
  ----- ------------  ---------------      ----- ------------  ---------------
    22      6.463609  1 P  s                  6      3.044939  1 P  s          
    56     -2.507210  2 H  s                 75     -2.507210  3 H  s          
    94     -2.507210  4 H  s                 21     -2.215400  1 P  pz         
    57     -1.450612  2 H  s                 76     -1.450612  3 H  s          
    95     -1.450612  4 H  s                 18     -1.245960  1 P  pz         

 Vector   20  Occ=0.000000D+00  E= 1.409206D-01  Symmetry=e
              MO Center= -8.7D-05, -3.6D-04, -4.3D-02, r^2= 3.2D+00
   Bfn.  Coefficient  Atom+Function         Bfn.  Coefficient  Atom+Function  
  ----- ------------  ---------------      ----- ------------  ---------------
    42      0.562639  1 P  dyz               76      0.451234  3 H  s          
    38     -0.414474  1 P  dxx               41      0.414474  1 P  dyy        
    75     -0.343691  3 H  s                 95     -0.325481  4 H  s          
    40     -0.316193  1 P  dxz               20      0.303353  1 P  py         
    17      0.277615  1 P  py                24     -0.274602  1 P  py         

 Vector   21  Occ=0.000000D+00  E= 1.409206D-01  Symmetry=e
              MO Center=  8.7D-05,  3.6D-04, -4.3D-02, r^2= 3.2D+00
   Bfn.  Coefficient  Atom+Function         Bfn.  Coefficient  Atom+Function  
  ----- ------------  ---------------      ----- ------------  ---------------
    39      0.828949  1 P  dxy               40     -0.562639  1 P  dxz        
    57      0.448437  2 H  s                 56     -0.341560  2 H  s          
    95     -0.333124  4 H  s                 42     -0.316193  1 P  dyz        
    19     -0.303353  1 P  px                16     -0.277615  1 P  px         
    23      0.274602  1 P  px                94      0.253730  4 H  s          

 Vector   22  Occ=0.000000D+00  E= 1.963330D-01  Symmetry=a1
              MO Center= -7.1D-14,  1.6D-14, -6.8D-02, r^2= 7.4D+00
   Bfn.  Coefficient  Atom+Function         Bfn.  Coefficient  Atom+Function  
  ----- ------------  ---------------      ----- ------------  ---------------
    22     13.736857  1 P  s                  6      4.056053  1 P  s          
    57     -3.709640  2 H  s                 76     -3.709640  3 H  s          
    95     -3.709640  4 H  s                 56     -3.452455  2 H  s          
    75     -3.452455  3 H  s                 94     -3.452455  4 H  s          
    21     -3.238253  1 P  pz                25     -2.431884  1 P  pz         

 Vector   23  Occ=0.000000D+00  E= 2.360702D-01  Symmetry=e
              MO Center= -1.8D-02,  5.8D-02,  7.3D-02, r^2= 9.8D+00
   Bfn.  Coefficient  Atom+Function         Bfn.  Coefficient  Atom+Function  
  ----- ------------  ---------------      ----- ------------  ---------------
    20      3.557767  1 P  py                24     -2.007671  1 P  py         
    17     -1.657894  1 P  py                19     -0.874331  1 P  px         
    75     -0.877817  3 H  s                 42     -0.658655  1 P  dyz        
    52      0.556120  1 P  fyzz              45      0.524061  1 P  fxxy       
    50      0.524061  1 P  fyyy              23      0.493391  1 P  px         

 Vector   24  Occ=0.000000D+00  E= 2.360702D-01  Symmetry=e
              MO Center=  1.8D-02, -5.8D-02,  7.3D-02, r^2= 9.8D+00
   Bfn.  Coefficient  Atom+Function         Bfn.  Coefficient  Atom+Function  
  ----- ------------  ---------------      ----- ------------  ---------------
    19      3.557767  1 P  px                23     -2.007671  1 P  px         
    16     -1.657894  1 P  px                20      0.874331  1 P  py         
    94     -0.769352  4 H  s                 56      0.751071  2 H  s          
    40     -0.658655  1 P  dxz               49      0.556120  1 P  fxzz       
    44      0.524061  1 P  fxxx              47      0.524061  1 P  fxyy       

 Vector   25  Occ=0.000000D+00  E= 2.474295D-01  Symmetry=a1
              MO Center=  1.0D-13, -2.7D-13,  7.0D-01, r^2= 9.3D+00
   Bfn.  Coefficient  Atom+Function         Bfn.  Coefficient  Atom+Function  
  ----- ------------  ---------------      ----- ------------  ---------------
    21      4.201793  1 P  pz                22      3.101440  1 P  s          
     6     -2.956009  1 P  s                 25     -2.809622  1 P  pz         
    56      1.327461  2 H  s                 75      1.327461  3 H  s          
    94      1.327461  4 H  s                 18     -1.310747  1 P  pz         
    57     -1.192402  2 H  s                 76     -1.192402  3 H  s          

 Vector   26  Occ=0.000000D+00  E= 3.140102D-01  Symmetry=e
              MO Center= -8.8D-02,  3.4D-01, -3.1D-01, r^2= 9.5D+00
   Bfn.  Coefficient  Atom+Function         Bfn.  Coefficient  Atom+Function  
  ----- ------------  ---------------      ----- ------------  ---------------
    75      8.503145  3 H  s                 20     -6.250322  1 P  py         
    76     -5.096337  3 H  s                 94     -4.292177  4 H  s          
    56     -4.210968  2 H  s                 24      3.688075  1 P  py         
    42      3.247467  1 P  dyz               17     -2.958925  1 P  py         
    95      2.572504  4 H  s                 57      2.523832  2 H  s          

 Vector   27  Occ=0.000000D+00  E= 3.140102D-01  Symmetry=e
              MO Center=  8.8D-02, -3.4D-01, -3.1D-01, r^2= 9.5D+00
   Bfn.  Coefficient  Atom+Function         Bfn.  Coefficient  Atom+Function  
  ----- ------------  ---------------      ----- ------------  ---------------
    56      7.387382  2 H  s                 94     -7.340496  4 H  s          
    19      6.250322  1 P  px                57     -4.427607  2 H  s          
    95      4.399507  4 H  s                 23     -3.688075  1 P  px         
    40     -3.247467  1 P  dxz               16      2.958925  1 P  px         
    39     -2.093603  1 P  dxy               20      1.711762  1 P  py         

 Vector   28  Occ=0.000000D+00  E= 4.090070D-01  Symmetry=a1
              MO Center=  8.4D-13,  1.6D-12, -5.8D-01, r^2= 7.2D+00
   Bfn.  Coefficient  Atom+Function         Bfn.  Coefficient  Atom+Function  
  ----- ------------  ---------------      ----- ------------  ---------------
     6      7.602504  1 P  s                 56     -5.821779  2 H  s          
    75     -5.821779  3 H  s                 94     -5.821779  4 H  s          
    18     -4.263244  1 P  pz                21     -3.932538  1 P  pz         
    22      3.057625  1 P  s                 43      1.752582  1 P  dzz        
    53      1.394667  1 P  fzzz              46      1.300613  1 P  fxxz       

 Vector   29  Occ=0.000000D+00  E= 4.226633D-01  Symmetry=e
              MO Center=  1.1D-02, -6.4D-03,  2.0D-02, r^2= 5.2D+00
   Bfn.  Coefficient  Atom+Function         Bfn.  Coefficient  Atom+Function  
  ----- ------------  ---------------      ----- ------------  ---------------
    75      2.855252  3 H  s                 56     -2.473628  2 H  s          
    20     -2.236633  1 P  py                76     -2.114836  3 H  s          
    57      1.832174  2 H  s                 17     -1.749103  1 P  py         
    24      1.569150  1 P  py                74     -0.928096  3 H  s          
    39     -0.855267  1 P  dxy               85      0.810140  3 H  pz         

 Vector   30  Occ=0.000000D+00  E= 4.226633D-01  Symmetry=e
              MO Center= -1.1D-02,  6.4D-03,  2.0D-02, r^2= 5.2D+00
   Bfn.  Coefficient  Atom+Function         Bfn.  Coefficient  Atom+Function  
  ----- ------------  ---------------      ----- ------------  ---------------
    94      3.076630  4 H  s                 95     -2.278807  4 H  s          
    19     -2.236633  1 P  px                56     -1.868811  2 H  s          
    16     -1.749103  1 P  px                23      1.569150  1 P  px         
    57      1.384196  2 H  s                 75     -1.207819  3 H  s          
    93     -1.000055  4 H  s                 76      0.894611  3 H  s          

 Vector   31  Occ=0.000000D+00  E= 4.252565D-01  Symmetry=a2
              MO Center=  2.1D-13, -4.4D-14, -6.1D-01, r^2= 4.3D+00
   Bfn.  Coefficient  Atom+Function         Bfn.  Coefficient  Atom+Function  
  ----- ------------  ---------------      ----- ------------  ---------------
    83      0.881783  3 H  px               103     -0.881783  4 H  py         
    64     -0.645510  2 H  px                65      0.645510  2 H  py         
    84      0.236273  3 H  py               102     -0.236273  4 H  px         

 Vector   32  Occ=0.000000D+00  E= 4.256955D-01  Symmetry=a1
              MO Center= -4.8D-14,  4.4D-13, -3.2D-01, r^2= 7.3D+00
   Bfn.  Coefficient  Atom+Function         Bfn.  Coefficient  Atom+Function  
  ----- ------------  ---------------      ----- ------------  ---------------
    22     15.370547  1 P  s                 57     -4.712116  2 H  s          
    76     -4.712116  3 H  s                 95     -4.712116  4 H  s          
     6      3.822616  1 P  s                 25     -3.800373  1 P  pz         
    38     -2.874169  1 P  dxx               41     -2.874169  1 P  dyy        
    43     -1.995715  1 P  dzz               18     -1.452160  1 P  pz         

 Vector   33  Occ=0.000000D+00  E= 4.464654D-01  Symmetry=e
              MO Center= -2.6D-03,  3.0D-01, -3.1D-01, r^2= 4.4D+00
   Bfn.  Coefficient  Atom+Function         Bfn.  Coefficient  Atom+Function  
  ----- ------------  ---------------      ----- ------------  ---------------
    42      1.442600  1 P  dyz               38     -1.068022  1 P  dxx        
    41      1.068022  1 P  dyy               85     -0.942383  3 H  pz         
    39     -0.895866  1 P  dxy               84     -0.874125  3 H  py         
    64     -0.798040  2 H  px                75      0.696141  3 H  s          
   102      0.692155  4 H  px                40     -0.590084  1 P  dxz        

 Vector   34  Occ=0.000000D+00  E= 4.464654D-01  Symmetry=e
              MO Center=  2.6D-03, -3.0D-01, -3.1D-01, r^2= 4.4D+00
   Bfn.  Coefficient  Atom+Function         Bfn.  Coefficient  Atom+Function  
  ----- ------------  ---------------      ----- ------------  ---------------
    39      2.136043  1 P  dxy               40     -1.442600  1 P  dxz        
    66     -0.876043  2 H  pz                83     -0.846604  3 H  px         
    65      0.809297  2 H  py               104      0.756213  4 H  pz         
   103     -0.680898  4 H  py                56      0.647135  2 H  s          
    42     -0.590084  1 P  dyz               94     -0.558617  4 H  s          

 Vector   35  Occ=0.000000D+00  E= 6.120594D-01  Symmetry=a1
              MO Center= -3.2D-15, -6.6D-15, -3.2D-01, r^2= 5.6D+00
   Bfn.  Coefficient  Atom+Function         Bfn.  Coefficient  Atom+Function  
  ----- ------------  ---------------      ----- ------------  ---------------
    21      3.447273  1 P  pz                43     -3.361537  1 P  dzz        
     6      2.273427  1 P  s                 66     -1.629065  2 H  pz         
    85     -1.629065  3 H  pz               104     -1.629065  4 H  pz         
    25     -0.891328  1 P  pz                18      0.764166  1 P  pz         
    56      0.653697  2 H  s                 75      0.653697  3 H  s          


 center of mass
 --------------
 x =  -0.00000000 y =  -0.00000000 z =   0.10983515

 moments of inertia (a.u.)
 ------------------
          13.281703001218          -0.000000000000          -0.000000000000
          -0.000000000000          13.281703001218          -0.000000000000
          -0.000000000000          -0.000000000000          15.564467881867

     Multipole analysis of the density
     ---------------------------------

     L   x y z        total         alpha         beta         nuclear
     -   - - -        -----         -----         ----         -------
     0   0 0 0     -0.000000     -9.000000     -9.000000     18.000000

     1   1 0 0      0.000000      0.000000      0.000000     -0.000000
     1   0 1 0      0.000000      0.000000      0.000000     -0.000000
     1   0 0 1     -0.255660     -0.127830     -0.127830      0.000000

     2   2 0 0    -10.979752     -9.350781     -9.350781      7.721811
     2   1 1 0      0.000000      0.000000      0.000000      0.000000
     2   1 0 1      0.000000      0.000000      0.000000      0.000000
     2   0 2 0    -10.979752     -9.350781     -9.350781      7.721811
     2   0 1 1      0.000000      0.000000      0.000000      0.000000
     2   0 0 2    -12.761893     -8.876541     -8.876541      4.991189


 Parallel integral file used     123 records with       0 large values


 Task  times  cpu:        4.6s     wall:        4.8s


                                NWChem Input Module
                                -------------------


 Summary of allocated global arrays
-----------------------------------
  No active global arrays



                         GA Statistics for process    0
                         ------------------------------

       create   destroy   get      put      acc     scatter   gather  read&inc
calls:  227      227     1.68e+04 7067     4859        0        0      615     
number of processes/call 1.00e+00 1.00e+00 1.00e+00 0.00e+00 0.00e+00
bytes total:             6.57e+07 2.02e+07 4.00e+07 0.00e+00 0.00e+00 4.92e+03
bytes remote:            0.00e+00 0.00e+00 0.00e+00 0.00e+00 0.00e+00 0.00e+00
Max memory consumed for GA by this process: 3775200 bytes

MA_summarize_allocated_blocks: starting scan ...
MA_summarize_allocated_blocks: scan completed: 0 heap blocks, 0 stack blocks
MA usage statistics:

	allocation statistics:
					      heap	     stack
					      ----	     -----
	current number of blocks	         0	         0
	maximum number of blocks	        24	        55
	current total bytes		         0	         0
	maximum total bytes		  69565400	  23750696
	maximum total K-bytes		     69566	     23751
	maximum total M-bytes		        70	        24


                                     CITATION
                                     --------
                Please cite the following reference when publishing
                           results obtained with NWChem:

                 M. Valiev, E.J. Bylaska, N. Govind, K. Kowalski,
              T.P. Straatsma, H.J.J. van Dam, D. Wang, J. Nieplocha,
                        E. Apra, T.L. Windus, W.A. de Jong
                 "NWChem: a comprehensive and scalable open-source
                  solution for large scale molecular simulations"
                      Comput. Phys. Commun. 181, 1477 (2010)
                           doi:10.1016/j.cpc.2010.04.018

                                      AUTHORS
                                      -------
          E. Apra, E. J. Bylaska, W. A. de Jong, N. Govind, K. Kowalski,
       T. P. Straatsma, M. Valiev, H. J. J. van Dam, D. Wang, T. L. Windus,
        J. Hammond, J. Autschbach, K. Bhaskaran-Nair, J. Brabec, K. Lopata,
       S. A. Fischer, S. Krishnamoorthy, W. Ma, M. Klemm, O. Villa, Y. Chen,
    V. Anisimov, F. Aquino, S. Hirata, M. T. Hackler, T. Risthaus, M. Malagoli,
       A. Marenich, A. Otero-de-la-Roza, J. Mullin, P. Nichols, R. Peverati,
     J. Pittner, Y. Zhao, P.-D. Fan, A. Fonari, M. Williamson, R. J. Harrison,
       J. R. Rehr, M. Dupuis, D. Silverstein, D. M. A. Smith, J. Nieplocha,
        V. Tipparaju, M. Krishnan, B. E. Van Kuiken, A. Vazquez-Mayagoitia,
        L. Jensen, M. Swart, Q. Wu, T. Van Voorhis, A. A. Auer, M. Nooijen,
      L. D. Crosby, E. Brown, G. Cisneros, G. I. Fann, H. Fruchtl, J. Garza,
        K. Hirao, R. A. Kendall, J. A. Nichols, K. Tsemekhman, K. Wolinski,
     J. Anchell, D. E. Bernholdt, P. Borowski, T. Clark, D. Clerc, H. Dachsel,
   M. J. O. Deegan, K. Dyall, D. Elwood, E. Glendening, M. Gutowski, A. C. Hess,
         J. Jaffe, B. G. Johnson, J. Ju, R. Kobayashi, R. Kutteh, Z. Lin,
   R. Littlefield, X. Long, B. Meng, T. Nakajima, S. Niu, L. Pollack, M. Rosing,
   K. Glaesemann, G. Sandrone, M. Stave, H. Taylor, G. Thomas, J. H. van Lenthe,
                               A. T. Wong, Z. Zhang.

 Total times  cpu:        4.6s     wall:        5.0s
