[1537885348.163243] [r8n3:29510:0]         sys.c:744  MXM  WARN  Conflicting CPU frequencies detected, using: 2499.99
[1537885348.169488] [r8n3:29510:0]         mxm.c:196  MXM  WARN  The 'ulimit -s' on the system is set to 'unlimited'. This may have negative performance implications. Please set the stack size to the default value (10240) 
[1537885348.171781] [r8n3:29510:0]         mxm.c:196  MXM  WARN  The 'ulimit -s' on the system is set to 'unlimited'. This may have negative performance implications. Please set the stack size to the default value (10240) 
 argument  1 = /storage/home/bikashp/nwchem_run/rabeet/pa8/nwrevtpss/PH4+.xyz.nw
                                         
                                         


              Northwest Computational Chemistry Package (NWChem) 6.6
              ------------------------------------------------------


                    Environmental Molecular Sciences Laboratory
                       Pacific Northwest National Laboratory
                                Richland, WA 99352

                              Copyright (c) 1994-2015
                       Pacific Northwest National Laboratory
                            Battelle Memorial Institute

             NWChem is an open-source computational chemistry package
                        distributed under the terms of the
                      Educational Community License (ECL) 2.0
             A copy of the license is included with this distribution
                              in the LICENSE.TXT file

                                  ACKNOWLEDGMENT
                                  --------------

            This software and its documentation were developed at the
            EMSL at Pacific Northwest National Laboratory, a multiprogram
            national laboratory, operated for the U.S. Department of Energy
            by Battelle under Contract Number DE-AC05-76RL01830. Support
            for this work was provided by the Department of Energy Office
            of Biological and Environmental Research, Office of Basic
            Energy Sciences, and the Office of Advanced Scientific Computing.


           Job information
           ---------------

    hostname        = r8n3.niserhpc.org
    program         = /home/bikashp/Code/nwchem-6.6_revtpss/bin/LINUX64/nwchem
    date            = Tue Sep 25 19:52:28 2018

    compiled        = Tue_Sep_25_17:05:19_2018
    source          = /home/bikashp/Code/nwchem-6.6_revtpss
    nwchem branch   = 6.6
    nwchem revision = 27746
    ga revision     = 10594
    input           = /storage/home/bikashp/nwchem_run/rabeet/pa8/nwrevtpss/PH4+.xyz.nw
    prefix          = PH4+.xyz.
    data base       = ./PH4+.xyz.db
    status          = startup
    nproc           =        1
    time left       =     -1s



           Memory information
           ------------------

    heap     =   13107196 doubles =    100.0 Mbytes
    stack    =   13107201 doubles =    100.0 Mbytes
    global   =   26214400 doubles =    200.0 Mbytes (distinct from heap & stack)
    total    =   52428797 doubles =    400.0 Mbytes
    verify   = yes
    hardfail = no 


           Directory information
           ---------------------

  0 permanent = .
  0 scratch   = .




                                NWChem Input Module
                                -------------------



 Scaling coordinates for geometry "geometry" by  1.889725989
 (inverse scale =  0.529177249)

 C3V symmetry detected

          ------
          auto-z
          ------
  Looking for out-of-plane bends


                             Geometry "geometry" -> ""
                             -------------------------

 Output coordinates in angstroms (scale by  1.889725989 to convert to a.u.)

  No.       Tag          Charge          X              Y              Z
 ---- ---------------- ---------- -------------- -------------- --------------
    1 P                   15.0000    -0.00000000    -0.00000000     0.00000053
    2 H                    1.0000    -0.00000000    -0.00000000     1.39292053
    3 H                    1.0000     0.92861239     0.92861239    -0.46430947
    4 H                    1.0000     0.33989572    -1.26850811    -0.46430947
    5 H                    1.0000    -1.26850811     0.33989572    -0.46430947

      Atomic Mass 
      ----------- 

      P                 30.973760
      H                  1.007825


 Effective nuclear repulsion energy (a.u.)      24.1901609506

            Nuclear Dipole moment (a.u.) 
            ----------------------------
        X                 Y               Z
 ---------------- ---------------- ----------------
     0.0000000000     0.0000000000    -0.0000000000

      Symmetry information
      --------------------

 Group name             C3v       
 Group number             17
 Group order               6
 No. of unique centers     3

      Symmetry unique atoms

     1    2    3



                                Z-matrix (autoz)
                                -------- 

 Units are Angstrom for bonds and degrees for angles

      Type          Name      I     J     K     L     M      Value
      ----------- --------  ----- ----- ----- ----- ----- ----------
    1 Stretch                  1     2                       1.39292
    2 Stretch                  1     3                       1.39292
    3 Stretch                  1     4                       1.39292
    4 Stretch                  1     5                       1.39292
    5 Bend                     2     1     3               109.47137
    6 Bend                     2     1     4               109.47137
    7 Bend                     2     1     5               109.47137
    8 Bend                     3     1     4               109.47107
    9 Bend                     3     1     5               109.47107
   10 Bend                     4     1     5               109.47107


            XYZ format geometry
            -------------------
     5
 geometry
 P                    -0.00000000    -0.00000000     0.00000053
 H                    -0.00000000    -0.00000000     1.39292053
 H                     0.92861239     0.92861239    -0.46430947
 H                     0.33989572    -1.26850811    -0.46430947
 H                    -1.26850811     0.33989572    -0.46430947

 ==============================================================================
                                internuclear distances
 ------------------------------------------------------------------------------
       center one      |      center two      | atomic units |  angstroms
 ------------------------------------------------------------------------------
    2 H                |   1 P                |     2.63224  |     1.39292
    3 H                |   1 P                |     2.63224  |     1.39292
    4 H                |   1 P                |     2.63224  |     1.39292
    5 H                |   1 P                |     2.63224  |     1.39292
 ------------------------------------------------------------------------------
                         number of included internuclear distances:          4
 ==============================================================================



 ==============================================================================
                                 internuclear angles
 ------------------------------------------------------------------------------
        center 1       |       center 2       |       center 3       |  degrees
 ------------------------------------------------------------------------------
    2 H                |   1 P                |   3 H                |   109.47
    2 H                |   1 P                |   4 H                |   109.47
    2 H                |   1 P                |   5 H                |   109.47
    3 H                |   1 P                |   4 H                |   109.47
    3 H                |   1 P                |   5 H                |   109.47
    4 H                |   1 P                |   5 H                |   109.47
 ------------------------------------------------------------------------------
                            number of included internuclear angles:          6
 ==============================================================================





 Summary of "ao basis" -> "" (cartesian)
 ------------------------------------------------------------------------------
       Tag                 Description            Shells   Functions and Types
 ---------------- ------------------------------  ------  ---------------------
 *                     6-311++G(3df,3pd)              on all atoms 



                                 NWChem DFT Module
                                 -----------------


                      Basis "ao basis" -> "ao basis" (cartesian)
                      -----
  P (Phosphorous)
  ---------------
            Exponent  Coefficients 
       -------------- ---------------------------------------------------------
  1 S  7.74924000E+04  0.000781
  1 S  1.16058000E+04  0.006068
  1 S  2.64596000E+03  0.031160
  1 S  7.54976000E+02  0.123431
  1 S  2.48755000E+02  0.378209
  1 S  9.11565000E+01  0.563262

  2 S  9.11565000E+01  0.160255
  2 S  3.62257000E+01  0.627647
  2 S  1.52113000E+01  0.263849

  3 S  4.79417000E+00  1.000000

  4 S  1.80793000E+00  1.000000

  5 S  3.56816000E-01  1.000000

  6 S  1.14783000E-01  1.000000

  7 P  3.84843000E+02  0.009206
  7 P  9.05521000E+01  0.069874
  7 P  2.91339000E+01  0.292470
  7 P  1.08862000E+01  0.728103

  8 P  4.35259000E+00  0.628349
  8 P  1.77706000E+00  0.428044

  9 P  6.97005000E-01  1.000000

 10 P  2.53532000E-01  1.000000

 11 P  6.84930000E-02  1.000000

 12 S  3.48000000E-02  1.000000

 13 P  3.48000000E-02  1.000000

 14 D  2.20000000E+00  1.000000

 15 D  5.50000000E-01  1.000000

 16 D  1.37500000E-01  1.000000

 17 F  4.50000000E-01  1.000000

  H (Hydrogen)
  ------------
            Exponent  Coefficients 
       -------------- ---------------------------------------------------------
  1 S  3.38650000E+01  0.025494
  1 S  5.09479000E+00  0.190373
  1 S  1.15879000E+00  0.852161

  2 S  3.25840000E-01  1.000000

  3 S  1.02741000E-01  1.000000

  4 S  3.60000000E-02  1.000000

  5 P  3.00000000E+00  1.000000

  6 P  7.50000000E-01  1.000000

  7 P  1.87500000E-01  1.000000

  8 D  1.00000000E+00  1.000000



 Summary of "ao basis" -> "ao basis" (cartesian)
 ------------------------------------------------------------------------------
       Tag                 Description            Shells   Functions and Types
 ---------------- ------------------------------  ------  ---------------------
 P                     6-311++G(3df,3pd)            17       53   7s6p3d1f
 H                     6-311++G(3df,3pd)             8       19   4s3p1d




 Summary of "ao basis" -> "ao basis" (cartesian)
 ------------------------------------------------------------------------------
       Tag                 Description            Shells   Functions and Types
 ---------------- ------------------------------  ------  ---------------------
 P                     6-311++G(3df,3pd)            17       53   7s6p3d1f
 H                     6-311++G(3df,3pd)             8       19   4s3p1d


      Symmetry analysis of basis
      --------------------------

        a1         45
        a2          6
        e          78

  Caching 1-el integrals 
  Rotation of axis 

            General Information
            -------------------
          SCF calculation type: DFT
          Wavefunction type:  closed shell.
          No. of atoms     :     5
          No. of electrons :    18
           Alpha electrons :     9
            Beta electrons :     9
          Charge           :     1
          Spin multiplicity:     1
          Use of symmetry is: on ; symmetry adaption is: on 
          Maximum number of iterations: ***
          AO basis - number of functions:   129
                     number of shells:    49
          Convergence on energy requested: 1.00D-06
          Convergence on density requested: 1.00D-05
          Convergence on gradient requested: 5.00D-04

              XC Information
              --------------
                  TPSS metaGGA Exchange Functional  1.000          
             TPSS03 metaGGA Correlation Functional  1.000          

             Grid Information
             ----------------
          Grid used for XC integration:  medium    
          Radial quadrature: Mura-Knowles        
          Angular quadrature: Lebedev. 
          Tag              B.-S. Rad. Rad. Pts. Rad. Cut. Ang. Pts.
          ---              ---------- --------- --------- ---------
          P                   1.00       88          11.0       590
          H                   0.35       45          12.0       434
          Grid pruning is: on 
          Number of quadrature shells:   178
          Spatial weights used:  Erf1

          Convergence Information
          -----------------------
          Convergence aids based upon iterative change in 
          total energy or number of iterations. 
          Levelshifting, if invoked, occurs when the 
          HOMO/LUMO gap drops below (HL_TOL): 1.00D-02
          DIIS, if invoked, will attempt to extrapolate 
          using up to (NFOCK): 10 stored Fock matrices.

                    Damping( 0%)  Levelshifting(0.5)       DIIS
                  --------------- ------------------- ---------------
          dE  on:    start            ASAP                start   
          dE off:    2 iters        *** iters           *** iters 


      Screening Tolerance Information
      -------------------------------
          Density screening/tol_rho: 1.00D-10
          AO Gaussian exp screening on grid/accAOfunc:  14
          CD Gaussian exp screening on grid/accCDfunc:  20
          XC Gaussian exp screening on grid/accXCfunc:  20
          Schwarz screening/accCoul: 1.00D-08


      Superposition of Atomic Density Guess
      -------------------------------------

 Sum of atomic energies:        -342.64974827

 Renormalizing density from      19.00 to     18

      Non-variational initial energy
      ------------------------------

 Total energy =    -331.400305
 1-e energy   =    -493.420749
 2-e energy   =     137.830282
 HOMO         =      -0.941380
 LUMO         =      -0.272302


      Symmetry analysis of molecular orbitals - initial
      -------------------------------------------------

  Numbering of irreducible representations: 

     1 a1          2 a2          3 e       

  Orbital symmetries:

     1 a1          2 a1          3 a1          4 e           5 e       
     6 a1          7 a1          8 e           9 e          10 e       
    11 e          12 a1         13 a1         14 e          15 e       
    16 a1         17 e          18 e          19 a1      

   Time after variat. SCF:      0.7
   Time prior to 1st pass:      0.7

 Integral file          = ./PH4+.xyz.aoints.0
 Record size in doubles =    65536    No. of integs per rec  =    43688
 Max. records in memory =      238    Max. records in file   = ********
 No. of bits per label  =        8    No. of bits per value  =       64


 #quartets = 2.519D+05 #integrals = 1.003D+07 #direct =  0.0% #cached =100.0%


 Grid_pts file          = ./PH4+.xyz.gridpts.0
 Record size in doubles =  12289        No. of grid_pts per rec  =   3070
 Max. records in memory =     39        Max. recs in file   = 995295955


           Memory utilization after 1st SCF pass: 
           Heap Space remaining (MW):        0.00                  24
          Stack Space remaining (MW):       13.11            13106388

   convergence    iter        energy       DeltaE   RMS-Dens  Diis-err    time
 ---------------- ----- ----------------- --------- --------- ---------  ------
 d= 0,ls=0.0,diis     1   -343.1634398584 -3.67D+02  1.16D-02  5.94D+00     4.3
 d= 0,ls=0.0,diis     2   -343.2522131689 -8.88D-02  4.52D-03  2.35D+00     5.9
 d= 0,ls=0.0,diis     3   -343.3642855709 -1.12D-01  6.88D-04  1.37D-02     7.5
 d= 0,ls=0.0,diis     4   -343.3659890207 -1.70D-03  1.50D-04  8.92D-04     9.1
 d= 0,ls=0.0,diis     5   -343.3661449130 -1.56D-04  1.55D-05  3.95D-07    10.7
  Resetting Diis
 d= 0,ls=0.0,diis     6   -343.3661459614 -1.05D-06  5.40D-07  3.09D-09    12.4
 d= 0,ls=0.0,diis     7   -343.3661458279  1.33D-07  7.86D-08  3.02D-11    14.0


         Total DFT energy =     -343.366145827930
      One electron energy =     -516.291017309485
           Coulomb energy =      173.099829389735
          Exchange energy =      -23.701987131471
       Correlation energy =       -0.663131727328
 Nuclear repulsion energy =       24.190160950619

 Numeric. integr. density =       17.999992639416

     Total iterative time =     13.4s



                  Occupations of the irreducible representations
                  ----------------------------------------------

                     irrep           alpha         beta
                     --------     --------     --------
                     a1                5.0          5.0
                     a2                0.0          0.0
                     e                 4.0          4.0


                       DFT Final Molecular Orbital Analysis
                       ------------------------------------

 Vector    1  Occ=2.000000D+00  E=-7.695736D+01  Symmetry=a1
              MO Center= -3.9D-18, -1.1D-18,  5.3D-07, r^2= 4.1D-03
   Bfn.  Coefficient  Atom+Function         Bfn.  Coefficient  Atom+Function  
  ----- ------------  ---------------      ----- ------------  ---------------
     2      0.644968  1 P  s                  1      0.419951  1 P  s          

 Vector    2  Occ=2.000000D+00  E=-6.709392D+00  Symmetry=a1
              MO Center= -3.3D-21, -6.7D-21,  6.3D-07, r^2= 9.0D-02
   Bfn.  Coefficient  Atom+Function         Bfn.  Coefficient  Atom+Function  
  ----- ------------  ---------------      ----- ------------  ---------------
     4      0.590978  1 P  s                  3      0.508433  1 P  s          
     2     -0.312854  1 P  s          

 Vector    3  Occ=2.000000D+00  E=-4.867724D+00  Symmetry=a1
              MO Center= -9.3D-14, -9.0D-15, -3.5D-05, r^2= 8.3D-02
   Bfn.  Coefficient  Atom+Function         Bfn.  Coefficient  Atom+Function  
  ----- ------------  ---------------      ----- ------------  ---------------
    12      0.682518  1 P  pz                 9      0.406063  1 P  pz         

 Vector    4  Occ=2.000000D+00  E=-4.867724D+00  Symmetry=e
              MO Center= -3.3D-06, -2.5D-05,  1.8D-05, r^2= 8.3D-02
   Bfn.  Coefficient  Atom+Function         Bfn.  Coefficient  Atom+Function  
  ----- ------------  ---------------      ----- ------------  ---------------
    10      0.612066  1 P  px                 7      0.364148  1 P  px         
    11      0.302002  1 P  py                 8      0.179676  1 P  py         

 Vector    5  Occ=2.000000D+00  E=-4.867724D+00  Symmetry=e
              MO Center=  3.3D-06,  2.5D-05,  1.8D-05, r^2= 8.3D-02
   Bfn.  Coefficient  Atom+Function         Bfn.  Coefficient  Atom+Function  
  ----- ------------  ---------------      ----- ------------  ---------------
    11      0.612066  1 P  py                 8      0.364148  1 P  py         
    10     -0.302002  1 P  px                 7     -0.179676  1 P  px         

 Vector    6  Occ=2.000000D+00  E=-9.209710D-01  Symmetry=a1
              MO Center= -1.5D-15, -2.9D-16, -2.3D-06, r^2= 1.3D+00
   Bfn.  Coefficient  Atom+Function         Bfn.  Coefficient  Atom+Function  
  ----- ------------  ---------------      ----- ------------  ---------------
     6      0.475500  1 P  s                  5      0.462710  1 P  s          
     4     -0.320761  1 P  s                  3     -0.185428  1 P  s          

 Vector    7  Occ=2.000000D+00  E=-6.670970D-01  Symmetry=a1
              MO Center= -1.8D-17,  6.3D-18,  5.3D-01, r^2= 1.6D+00
   Bfn.  Coefficient  Atom+Function         Bfn.  Coefficient  Atom+Function  
  ----- ------------  ---------------      ----- ------------  ---------------
    55      0.294766  2 H  s                 18      0.268547  1 P  pz         
    15      0.195670  1 P  pz                54      0.174973  2 H  s          
    56      0.153311  2 H  s          

 Vector    8  Occ=2.000000D+00  E=-6.670965D-01  Symmetry=e
              MO Center=  3.4D-01,  1.5D-01, -2.7D-01, r^2= 1.6D+00
   Bfn.  Coefficient  Atom+Function         Bfn.  Coefficient  Atom+Function  
  ----- ------------  ---------------      ----- ------------  ---------------
    74      0.273269  3 H  s                 17      0.221268  1 P  py         
    93     -0.180425  4 H  s                 73      0.162213  3 H  s          
    14      0.161226  1 P  py                16      0.152169  1 P  px         

 Vector    9  Occ=2.000000D+00  E=-6.670965D-01  Symmetry=e
              MO Center= -3.4D-01, -1.5D-01, -2.7D-01, r^2= 1.6D+00
   Bfn.  Coefficient  Atom+Function         Bfn.  Coefficient  Atom+Function  
  ----- ------------  ---------------      ----- ------------  ---------------
   112      0.261940  5 H  s                 16     -0.221268  1 P  px         
    93     -0.211376  4 H  s                 13     -0.161226  1 P  px         
   111      0.155488  5 H  s                 17      0.152169  1 P  py         

 Vector   10  Occ=0.000000D+00  E=-2.484516D-01  Symmetry=a1
              MO Center= -5.5D-16,  9.4D-17, -1.9D-01, r^2= 3.0D+00
   Bfn.  Coefficient  Atom+Function         Bfn.  Coefficient  Atom+Function  
  ----- ------------  ---------------      ----- ------------  ---------------
    18      0.783101  1 P  pz                57     -0.583903  2 H  s          
    56     -0.534946  2 H  s                 21      0.481855  1 P  pz         
    25      0.326470  1 P  pz                55     -0.271770  2 H  s          
    43     -0.244633  1 P  dzz               76      0.194616  3 H  s          
    95      0.194616  4 H  s                114      0.194616  5 H  s          

 Vector   11  Occ=0.000000D+00  E=-2.484513D-01  Symmetry=e
              MO Center=  9.4D-03, -1.3D-01,  9.5D-02, r^2= 3.0D+00
   Bfn.  Coefficient  Atom+Function         Bfn.  Coefficient  Atom+Function  
  ----- ------------  ---------------      ----- ------------  ---------------
    16      0.733507  1 P  px                76     -0.500784  3 H  s          
    75     -0.459123  3 H  s                 19      0.451483  1 P  px         
   114      0.447980  5 H  s                113      0.410712  5 H  s          
    39     -0.314785  1 P  dxy               23      0.305590  1 P  px         
    17      0.274338  1 P  py                33     -0.240908  1 P  dxy        

 Vector   12  Occ=0.000000D+00  E=-2.484513D-01  Symmetry=e
              MO Center= -9.4D-03,  1.3D-01,  9.5D-02, r^2= 3.0D+00
   Bfn.  Coefficient  Atom+Function         Bfn.  Coefficient  Atom+Function  
  ----- ------------  ---------------      ----- ------------  ---------------
    17      0.733507  1 P  py                95      0.547769  4 H  s          
    94      0.502200  4 H  s                 20      0.451483  1 P  py         
   114     -0.319614  5 H  s                 24      0.305590  1 P  py         
   113     -0.293025  5 H  s                 16     -0.274338  1 P  px         
    93      0.255060  4 H  s                 42      0.229100  1 P  dyz        

 Vector   13  Occ=0.000000D+00  E=-2.229515D-01  Symmetry=a1
              MO Center=  1.9D-15, -4.4D-15, -1.7D-04, r^2= 6.4D+00
   Bfn.  Coefficient  Atom+Function         Bfn.  Coefficient  Atom+Function  
  ----- ------------  ---------------      ----- ------------  ---------------
     6      1.075436  1 P  s                 22      0.835411  1 P  s          
     5      0.413886  1 P  s                 57     -0.397940  2 H  s          
    76     -0.397569  3 H  s                 95     -0.397569  4 H  s          
   114     -0.397569  5 H  s                 56     -0.276227  2 H  s          
    75     -0.276528  3 H  s                 94     -0.276528  4 H  s          

 Vector   14  Occ=0.000000D+00  E=-1.344071D-01  Symmetry=a1
              MO Center=  1.7D-12,  4.8D-12,  3.4D-01, r^2= 1.1D+01
   Bfn.  Coefficient  Atom+Function         Bfn.  Coefficient  Atom+Function  
  ----- ------------  ---------------      ----- ------------  ---------------
    25      0.944208  1 P  pz                57      0.439699  2 H  s          
    21     -0.357410  1 P  pz                18     -0.265522  1 P  pz         

 Vector   15  Occ=0.000000D+00  E=-1.343978D-01  Symmetry=e
              MO Center=  2.3D-01, -6.0D-02, -1.7D-01, r^2= 1.1D+01
   Bfn.  Coefficient  Atom+Function         Bfn.  Coefficient  Atom+Function  
  ----- ------------  ---------------      ----- ------------  ---------------
    24      0.908624  1 P  py                76      0.362912  3 H  s          
    95     -0.361143  4 H  s                 20     -0.343158  1 P  py         
    17     -0.255527  1 P  py                23      0.247590  1 P  px         

 Vector   16  Occ=0.000000D+00  E=-1.343978D-01  Symmetry=e
              MO Center= -2.3D-01,  6.0D-02, -1.7D-01, r^2= 1.1D+01
   Bfn.  Coefficient  Atom+Function         Bfn.  Coefficient  Atom+Function  
  ----- ------------  ---------------      ----- ------------  ---------------
    23      0.908624  1 P  px               114     -0.418034  5 H  s          
    19     -0.343158  1 P  px                16     -0.255527  1 P  px         
    24     -0.247590  1 P  py                95      0.210549  4 H  s          
    76      0.207485  3 H  s          

 Vector   17  Occ=0.000000D+00  E=-1.222385D-01  Symmetry=e
              MO Center= -6.1D-07,  2.5D-06, -3.6D-06, r^2= 3.0D+00
   Bfn.  Coefficient  Atom+Function         Bfn.  Coefficient  Atom+Function  
  ----- ------------  ---------------      ----- ------------  ---------------
    42      0.870788  1 P  dyz               36      0.312300  1 P  dyz        
    39      0.313266  1 P  dxy               38      0.278767  1 P  dxx        
    41     -0.278767  1 P  dyy               40     -0.244265  1 P  dxz        

 Vector   18  Occ=0.000000D+00  E=-1.222385D-01  Symmetry=e
              MO Center=  6.1D-07, -2.5D-06, -3.6D-06, r^2= 3.0D+00
   Bfn.  Coefficient  Atom+Function         Bfn.  Coefficient  Atom+Function  
  ----- ------------  ---------------      ----- ------------  ---------------
    40      0.870788  1 P  dxz               39      0.557534  1 P  dxy        
    34      0.312300  1 P  dxz               42      0.244265  1 P  dyz        
    33      0.199954  1 P  dxy               38     -0.156633  1 P  dxx        
    41      0.156633  1 P  dyy        

 Vector   19  Occ=0.000000D+00  E=-8.355629D-02  Symmetry=a1
              MO Center= -3.8D-14,  1.1D-14,  2.7D-04, r^2= 1.2D+01
   Bfn.  Coefficient  Atom+Function         Bfn.  Coefficient  Atom+Function  
  ----- ------------  ---------------      ----- ------------  ---------------
    22      3.631450  1 P  s                  6     -2.568280  1 P  s          
    57     -1.542597  2 H  s                 76     -1.535535  3 H  s          
    95     -1.535535  4 H  s                114     -1.535535  5 H  s          
    56      1.367913  2 H  s                 75      1.365374  3 H  s          
    94      1.365374  4 H  s                113      1.365374  5 H  s          

 Vector   20  Occ=0.000000D+00  E=-5.876737D-02  Symmetry=a1
              MO Center= -2.5D-14, -2.0D-15,  1.9D-01, r^2= 1.7D+01
   Bfn.  Coefficient  Atom+Function         Bfn.  Coefficient  Atom+Function  
  ----- ------------  ---------------      ----- ------------  ---------------
    57      7.274917  2 H  s                 25     -4.948094  1 P  pz         
    76     -2.426893  3 H  s                 95     -2.426893  4 H  s          
   114     -2.426893  5 H  s                 21      1.935739  1 P  pz         
    56     -1.897232  2 H  s                 18      1.119116  1 P  pz         
    75      0.632806  3 H  s                 94      0.632806  4 H  s          

 Vector   21  Occ=0.000000D+00  E=-5.873121D-02  Symmetry=e
              MO Center= -6.2D-02, -1.2D-01, -9.3D-02, r^2= 1.7D+01
   Bfn.  Coefficient  Atom+Function         Bfn.  Coefficient  Atom+Function  
  ----- ------------  ---------------      ----- ------------  ---------------
    95      6.380014  4 H  s                114     -5.370723  5 H  s          
    24      3.974424  1 P  py                23     -2.945026  1 P  px         
    94     -1.662464  4 H  s                 20     -1.553194  1 P  py         
   113      1.399469  5 H  s                 19      1.150908  1 P  px         
    76     -1.009290  3 H  s                 17     -0.899222  1 P  py         

 Vector   22  Occ=0.000000D+00  E=-5.873121D-02  Symmetry=e
              MO Center=  6.2D-02,  1.2D-01, -9.3D-02, r^2= 1.7D+01
   Bfn.  Coefficient  Atom+Function         Bfn.  Coefficient  Atom+Function  
  ----- ------------  ---------------      ----- ------------  ---------------
    76      6.784291  3 H  s                114     -4.266217  5 H  s          
    23     -3.974424  1 P  px                24     -2.945026  1 P  py         
    95     -2.518075  4 H  s                 75     -1.767808  3 H  s          
    19      1.553194  1 P  px                20      1.150908  1 P  py         
   113      1.111664  5 H  s                 16      0.899222  1 P  px         

 Vector   23  Occ=0.000000D+00  E=-3.122550D-02  Symmetry=a1
              MO Center= -4.7D-14, -1.1D-13,  1.1D-06, r^2= 1.5D+01
   Bfn.  Coefficient  Atom+Function         Bfn.  Coefficient  Atom+Function  
  ----- ------------  ---------------      ----- ------------  ---------------
    22     23.016733  1 P  s                 57     -5.568153  2 H  s          
    76     -5.567825  3 H  s                 95     -5.567825  4 H  s          
   114     -5.567825  5 H  s                 56     -1.202319  2 H  s          
    75     -1.202395  3 H  s                 94     -1.202395  4 H  s          
   113     -1.202395  5 H  s                  6      1.001552  1 P  s          

 Vector   24  Occ=0.000000D+00  E= 4.444770D-02  Symmetry=a1
              MO Center= -4.5D-16,  5.9D-17, -3.4D-02, r^2= 1.2D+01
   Bfn.  Coefficient  Atom+Function         Bfn.  Coefficient  Atom+Function  
  ----- ------------  ---------------      ----- ------------  ---------------
    21      3.640295  1 P  pz                25     -2.477798  1 P  pz         
    18     -1.190583  1 P  pz                56     -0.963547  2 H  s          
    57      0.465210  2 H  s                 66      0.381876  2 H  pz         
    53      0.351653  1 P  fzzz              46      0.329604  1 P  fxxz       
    51      0.329604  1 P  fyyz              75      0.319996  3 H  s          

 Vector   25  Occ=0.000000D+00  E= 4.447319D-02  Symmetry=e
              MO Center=  2.4D-02,  9.9D-04,  1.7D-02, r^2= 1.2D+01
   Bfn.  Coefficient  Atom+Function         Bfn.  Coefficient  Atom+Function  
  ----- ------------  ---------------      ----- ------------  ---------------
    19      3.331969  1 P  px                23     -2.269384  1 P  px         
    20     -1.461129  1 P  py                16     -1.091085  1 P  px         
    24      0.995167  1 P  py               113      0.894686  5 H  s          
    94     -0.565607  4 H  s                 17      0.478461  1 P  py         
   114     -0.434806  5 H  s                 75     -0.329079  3 H  s          

 Vector   26  Occ=0.000000D+00  E= 4.447319D-02  Symmetry=e
              MO Center= -2.4D-02, -9.9D-04,  1.7D-02, r^2= 1.2D+01
   Bfn.  Coefficient  Atom+Function         Bfn.  Coefficient  Atom+Function  
  ----- ------------  ---------------      ----- ------------  ---------------
    20      3.331969  1 P  py                24     -2.269384  1 P  py         
    19      1.461129  1 P  px                17     -1.091085  1 P  py         
    23     -0.995167  1 P  px                75     -0.843101  3 H  s          
    94      0.706541  4 H  s                 16     -0.478461  1 P  px         
    76      0.409736  3 H  s                 95     -0.343370  4 H  s          

 Vector   27  Occ=0.000000D+00  E= 1.280495D-01  Symmetry=a1
              MO Center= -9.8D-16,  6.6D-15,  3.3D-01, r^2= 1.0D+01
   Bfn.  Coefficient  Atom+Function         Bfn.  Coefficient  Atom+Function  
  ----- ------------  ---------------      ----- ------------  ---------------
    56      8.732849  2 H  s                 21     -7.190472  1 P  pz         
    57     -6.261110  2 H  s                 25      4.830430  1 P  pz         
    75     -2.908392  3 H  s                 94     -2.908392  4 H  s          
   113     -2.908392  5 H  s                 18     -2.797792  1 P  pz         
    43     -2.294982  1 P  dzz               76      2.088129  3 H  s          

 Vector   28  Occ=0.000000D+00  E= 1.280652D-01  Symmetry=e
              MO Center= -1.7D-01, -1.5D-01, -1.6D-01, r^2= 1.0D+01
   Bfn.  Coefficient  Atom+Function         Bfn.  Coefficient  Atom+Function  
  ----- ------------  ---------------      ----- ------------  ---------------
   113     -7.275027  5 H  s                 94      6.973111  4 H  s          
    19     -5.268239  1 P  px               114      5.218332  5 H  s          
    95     -5.001769  4 H  s                 20      4.895221  1 P  py         
    23      3.539531  1 P  px                24     -3.288915  1 P  py         
    16     -2.049282  1 P  px                17      1.904182  1 P  py         

 Vector   29  Occ=0.000000D+00  E= 1.280652D-01  Symmetry=e
              MO Center=  1.7D-01,  1.5D-01, -1.6D-01, r^2= 1.0D+01
   Bfn.  Coefficient  Atom+Function         Bfn.  Coefficient  Atom+Function  
  ----- ------------  ---------------      ----- ------------  ---------------
    75      8.226166  3 H  s                 76     -5.900578  3 H  s          
    20     -5.268239  1 P  py                19     -4.895221  1 P  px         
    94     -4.374550  4 H  s                113     -3.851616  5 H  s          
    24      3.539531  1 P  py                23      3.288915  1 P  px         
    39     -3.243430  1 P  dxy               95      3.137838  4 H  s          

 Vector   30  Occ=0.000000D+00  E= 1.592064D-01  Symmetry=a1
              MO Center=  4.1D-14,  4.2D-14,  4.6D-04, r^2= 9.4D+00
   Bfn.  Coefficient  Atom+Function         Bfn.  Coefficient  Atom+Function  
  ----- ------------  ---------------      ----- ------------  ---------------
    22     11.332842  1 P  s                  6      9.874495  1 P  s          
    56     -4.727676  2 H  s                 75     -4.732318  3 H  s          
    94     -4.732318  4 H  s                113     -4.732318  5 H  s          
    57     -1.895634  2 H  s                 76     -1.891687  3 H  s          
    95     -1.891687  4 H  s                114     -1.891687  5 H  s          

 Vector   31  Occ=0.000000D+00  E= 1.731695D-01  Symmetry=e
              MO Center=  1.3D-01,  2.9D-01,  2.3D-01, r^2= 4.4D+00
   Bfn.  Coefficient  Atom+Function         Bfn.  Coefficient  Atom+Function  
  ----- ------------  ---------------      ----- ------------  ---------------
    85      0.793006  3 H  pz                64     -0.703653  2 H  px         
   123     -0.522257  5 H  pz                65     -0.485843  2 H  py         
   104     -0.270748  4 H  pz                83      0.234544  3 H  px         
   102      0.234551  4 H  px               121      0.234545  5 H  px         
    84      0.161941  3 H  py               103      0.161944  4 H  py         

 Vector   32  Occ=0.000000D+00  E= 1.731695D-01  Symmetry=e
              MO Center= -1.3D-01, -2.9D-01,  2.3D-01, r^2= 4.4D+00
   Bfn.  Coefficient  Atom+Function         Bfn.  Coefficient  Atom+Function  
  ----- ------------  ---------------      ----- ------------  ---------------
   104      0.759368  4 H  pz                65      0.703653  2 H  py         
   123     -0.614159  5 H  pz                64     -0.485843  2 H  px         
    84     -0.234549  3 H  py               103     -0.234542  4 H  py         
   122     -0.234549  5 H  py                83      0.161948  3 H  px         
   102      0.161945  4 H  px               121      0.161941  5 H  px         

 Vector   33  Occ=0.000000D+00  E= 1.731700D-01  Symmetry=a2
              MO Center= -1.1D-14,  1.1D-14, -4.5D-01, r^2= 4.4D+00
   Bfn.  Coefficient  Atom+Function         Bfn.  Coefficient  Atom+Function  
  ----- ------------  ---------------      ----- ------------  ---------------
   102      0.778716  4 H  px               122     -0.778716  5 H  py         
    83     -0.570060  3 H  px                84      0.570060  3 H  py         
   103      0.208656  4 H  py               121     -0.208656  5 H  px         

 Vector   34  Occ=0.000000D+00  E= 2.253684D-01  Symmetry=a1
              MO Center=  4.4D-13, -3.8D-14, -3.7D-05, r^2= 9.9D+00
   Bfn.  Coefficient  Atom+Function         Bfn.  Coefficient  Atom+Function  
  ----- ------------  ---------------      ----- ------------  ---------------
    22     17.254107  1 P  s                 57     -4.242182  2 H  s          
    76     -4.242456  3 H  s                 95     -4.242456  4 H  s          
   114     -4.242456  5 H  s                 38     -2.859451  1 P  dxx        
    41     -2.859451  1 P  dyy               43     -2.859585  1 P  dzz        
    56      1.412040  2 H  s                 75      1.412324  3 H  s          

 Vector   35  Occ=0.000000D+00  E= 2.443147D-01  Symmetry=a1
              MO Center= -2.6D-15, -2.9D-16, -1.5D-01, r^2= 5.7D+00
   Bfn.  Coefficient  Atom+Function         Bfn.  Coefficient  Atom+Function  
  ----- ------------  ---------------      ----- ------------  ---------------
    56      3.402410  2 H  s                 57     -3.305710  2 H  s          
    21     -2.503265  1 P  pz                25      2.230207  1 P  pz         
    55     -1.866527  2 H  s                 43      1.500187  1 P  dzz        
    75     -1.134345  3 H  s                 94     -1.134345  4 H  s          
   113     -1.134345  5 H  s                 76      1.101443  3 H  s          

 Vector   36  Occ=0.000000D+00  E= 2.443174D-01  Symmetry=e
              MO Center=  1.0D-01,  5.3D-03,  7.3D-02, r^2= 5.7D+00
   Bfn.  Coefficient  Atom+Function         Bfn.  Coefficient  Atom+Function  
  ----- ------------  ---------------      ----- ------------  ---------------
   113      3.169135  5 H  s                114     -3.078676  5 H  s          
    19      2.287738  1 P  px                23     -2.038256  1 P  px         
    94     -2.018097  4 H  s                 95      1.960493  4 H  s          
   112     -1.738254  5 H  s                 40      1.370727  1 P  dxz        
    75     -1.151038  3 H  s                 76      1.118183  3 H  s          

 Vector   37  Occ=0.000000D+00  E= 2.443174D-01  Symmetry=e
              MO Center= -1.0D-01, -5.3D-03,  7.3D-02, r^2= 5.7D+00
   Bfn.  Coefficient  Atom+Function         Bfn.  Coefficient  Atom+Function  
  ----- ------------  ---------------      ----- ------------  ---------------
    75      2.994850  3 H  s                 76     -2.909366  3 H  s          
    94     -2.494253  4 H  s                 95      2.423058  4 H  s          
    20     -2.287738  1 P  py                24      2.038256  1 P  py         
    39      1.980386  1 P  dxy               74     -1.642659  3 H  s          
    42     -1.370727  1 P  dyz               93      1.368085  4 H  s          

 Vector   38  Occ=0.000000D+00  E= 3.556811D-01  Symmetry=a1
              MO Center= -2.1D-12, -8.8D-11,  9.4D-02, r^2= 5.9D+00
   Bfn.  Coefficient  Atom+Function         Bfn.  Coefficient  Atom+Function  
  ----- ------------  ---------------      ----- ------------  ---------------
    21      2.085158  1 P  pz                56      1.458365  2 H  s          
    85     -1.125409  3 H  pz               104     -1.125409  4 H  pz         
   123     -1.125409  5 H  pz                66     -1.067728  2 H  pz         
    18     -1.012444  1 P  pz                55     -0.778037  2 H  s          
    57     -0.622615  2 H  s                 43     -0.543995  1 P  dzz        

 Vector   39  Occ=0.000000D+00  E= 3.556827D-01  Symmetry=e
              MO Center=  2.5D-02,  6.2D-02, -4.7D-02, r^2= 5.9D+00
   Bfn.  Coefficient  Atom+Function         Bfn.  Coefficient  Atom+Function  
  ----- ------------  ---------------      ----- ------------  ---------------
    19      1.736169  1 P  px                75      1.347816  3 H  s          
    20      1.155159  1 P  py               102     -0.947740  4 H  px         
    64     -0.942974  2 H  px               113     -0.908465  5 H  s          
    83     -0.903001  3 H  px               121     -0.906169  5 H  px         
    16     -0.842968  1 P  px                39     -0.754217  1 P  dxy        

 Vector   40  Occ=0.000000D+00  E= 3.556827D-01  Symmetry=e
              MO Center= -2.5D-02, -6.2D-02, -4.7D-02, r^2= 5.9D+00
   Bfn.  Coefficient  Atom+Function         Bfn.  Coefficient  Atom+Function  
  ----- ------------  ---------------      ----- ------------  ---------------
    20      1.736169  1 P  py                94     -1.302664  4 H  s          
    19     -1.155159  1 P  px               113      1.031822  5 H  s          
    65     -0.942974  2 H  py                84     -0.934939  3 H  py         
   122     -0.931771  5 H  py               103     -0.890200  4 H  py         
    17     -0.842968  1 P  py                93      0.694993  4 H  s          

 Vector   41  Occ=0.000000D+00  E= 4.298608D-01  Symmetry=e
              MO Center= -4.2D-07,  2.0D-07,  2.9D-06, r^2= 4.3D+00
   Bfn.  Coefficient  Atom+Function         Bfn.  Coefficient  Atom+Function  
  ----- ------------  ---------------      ----- ------------  ---------------
    40      3.936072  1 P  dxz               39      1.628085  1 P  dxy        
    64     -1.558351  2 H  px               123      1.484831  5 H  pz         
   102      1.329442  4 H  px                38     -1.153944  1 P  dxx        
    41      1.153944  1 P  dyy               84     -1.128619  3 H  py         
    85     -0.859460  3 H  pz                83      0.698876  3 H  px         

 Vector   42  Occ=0.000000D+00  E= 4.298608D-01  Symmetry=e
              MO Center=  4.2D-07, -2.0D-07,  2.9D-06, r^2= 4.3D+00
   Bfn.  Coefficient  Atom+Function         Bfn.  Coefficient  Atom+Function  
  ----- ------------  ---------------      ----- ------------  ---------------
    42      3.936072  1 P  dyz               39      2.307887  1 P  dxy        
    65     -1.558351  2 H  py               122      1.508876  5 H  py         
   104      1.353477  4 H  pz                85     -1.218325  3 H  pz         
    83     -0.949188  3 H  px                38      0.814042  1 P  dxx        
    41     -0.814042  1 P  dyy              102      0.764562  4 H  px         

 Vector   43  Occ=0.000000D+00  E= 5.316153D-01  Symmetry=a1
              MO Center=  1.0D-10,  4.8D-11, -4.7D-02, r^2= 7.4D+00
   Bfn.  Coefficient  Atom+Function         Bfn.  Coefficient  Atom+Function  
  ----- ------------  ---------------      ----- ------------  ---------------
    56     13.092359  2 H  s                 18     -9.587230  1 P  pz         
    21     -9.163107  1 P  pz                57     -4.375573  2 H  s          
    75     -4.363019  3 H  s                 94     -4.363019  4 H  s          
   113     -4.363019  5 H  s                 66     -4.042163  2 H  pz         
    25      3.887670  1 P  pz                43     -3.393933  1 P  dzz        


 center of mass
 --------------
 x =   0.00000000 y =   0.00000000 z =   0.00000045

 moments of inertia (a.u.)
 ------------------
          18.621052184145           0.000000000000           0.000000000000
           0.000000000000          18.621052184145           0.000000000000
           0.000000000000           0.000000000000          18.620999826072

     Multipole analysis of the density
     ---------------------------------

     L   x y z        total         alpha         beta         nuclear
     -   - - -        -----         -----         ----         -------
     0   0 0 0      1.000000     -9.000000     -9.000000     19.000000

     1   1 0 0     -0.000000     -0.000000     -0.000000      0.000000
     1   0 1 0     -0.000000     -0.000000     -0.000000      0.000000
     1   0 0 1      0.000000      0.000000      0.000000     -0.000000

     2   2 0 0     -7.970327     -8.604269     -8.604269      9.238211
     2   1 1 0      0.000000      0.000000      0.000000      0.000000
     2   1 0 1     -0.000000     -0.000000     -0.000000      0.000000
     2   0 2 0     -7.970327     -8.604269     -8.604269      9.238211
     2   0 1 1      0.000000      0.000000      0.000000     -0.000000
     2   0 0 2     -7.970320     -8.604292     -8.604292      9.238263


 Parallel integral file used     230 records with       0 large values


 Task  times  cpu:       14.1s     wall:       14.8s


                                NWChem Input Module
                                -------------------


 Summary of allocated global arrays
-----------------------------------
  No active global arrays



                         GA Statistics for process    0
                         ------------------------------

       create   destroy   get      put      acc     scatter   gather  read&inc
calls:  227      227     2.56e+04 8673     8634        0        0     1098     
number of processes/call 1.00e+00 1.00e+00 1.00e+00 0.00e+00 0.00e+00
bytes total:             1.15e+08 2.79e+07 6.07e+07 0.00e+00 0.00e+00 8.78e+03
bytes remote:            0.00e+00 0.00e+00 0.00e+00 0.00e+00 0.00e+00 0.00e+00
Max memory consumed for GA by this process: 5191992 bytes

MA_summarize_allocated_blocks: starting scan ...
MA_summarize_allocated_blocks: scan completed: 0 heap blocks, 0 stack blocks
MA usage statistics:

	allocation statistics:
					      heap	     stack
					      ----	     -----
	current number of blocks	         0	         0
	maximum number of blocks	        24	        55
	current total bytes		         0	         0
	maximum total bytes		 128650488	  24114280
	maximum total K-bytes		    128651	     24115
	maximum total M-bytes		       129	        25


                                     CITATION
                                     --------
                Please cite the following reference when publishing
                           results obtained with NWChem:

                 M. Valiev, E.J. Bylaska, N. Govind, K. Kowalski,
              T.P. Straatsma, H.J.J. van Dam, D. Wang, J. Nieplocha,
                        E. Apra, T.L. Windus, W.A. de Jong
                 "NWChem: a comprehensive and scalable open-source
                  solution for large scale molecular simulations"
                      Comput. Phys. Commun. 181, 1477 (2010)
                           doi:10.1016/j.cpc.2010.04.018

                                      AUTHORS
                                      -------
          E. Apra, E. J. Bylaska, W. A. de Jong, N. Govind, K. Kowalski,
       T. P. Straatsma, M. Valiev, H. J. J. van Dam, D. Wang, T. L. Windus,
        J. Hammond, J. Autschbach, K. Bhaskaran-Nair, J. Brabec, K. Lopata,
       S. A. Fischer, S. Krishnamoorthy, W. Ma, M. Klemm, O. Villa, Y. Chen,
    V. Anisimov, F. Aquino, S. Hirata, M. T. Hackler, T. Risthaus, M. Malagoli,
       A. Marenich, A. Otero-de-la-Roza, J. Mullin, P. Nichols, R. Peverati,
     J. Pittner, Y. Zhao, P.-D. Fan, A. Fonari, M. Williamson, R. J. Harrison,
       J. R. Rehr, M. Dupuis, D. Silverstein, D. M. A. Smith, J. Nieplocha,
        V. Tipparaju, M. Krishnan, B. E. Van Kuiken, A. Vazquez-Mayagoitia,
        L. Jensen, M. Swart, Q. Wu, T. Van Voorhis, A. A. Auer, M. Nooijen,
      L. D. Crosby, E. Brown, G. Cisneros, G. I. Fann, H. Fruchtl, J. Garza,
        K. Hirao, R. A. Kendall, J. A. Nichols, K. Tsemekhman, K. Wolinski,
     J. Anchell, D. E. Bernholdt, P. Borowski, T. Clark, D. Clerc, H. Dachsel,
   M. J. O. Deegan, K. Dyall, D. Elwood, E. Glendening, M. Gutowski, A. C. Hess,
         J. Jaffe, B. G. Johnson, J. Ju, R. Kobayashi, R. Kutteh, Z. Lin,
   R. Littlefield, X. Long, B. Meng, T. Nakajima, S. Niu, L. Pollack, M. Rosing,
   K. Glaesemann, G. Sandrone, M. Stave, H. Taylor, G. Thomas, J. H. van Lenthe,
                               A. T. Wong, Z. Zhang.

 Total times  cpu:       14.2s     wall:       15.0s
