[1537886050.495834] [r8n3:31063:0]         sys.c:744  MXM  WARN  Conflicting CPU frequencies detected, using: 2499.99
[1537886050.499978] [r8n3:31063:0]         mxm.c:196  MXM  WARN  The 'ulimit -s' on the system is set to 'unlimited'. This may have negative performance implications. Please set the stack size to the default value (10240) 
[1537886050.501924] [r8n3:31063:0]         mxm.c:196  MXM  WARN  The 'ulimit -s' on the system is set to 'unlimited'. This may have negative performance implications. Please set the stack size to the default value (10240) 
 argument  1 = /storage/home/bikashp/nwchem_run/rabeet/pa8/nwrevtpss/SiH4.xyz.nw
                                         
                                         


              Northwest Computational Chemistry Package (NWChem) 6.6
              ------------------------------------------------------


                    Environmental Molecular Sciences Laboratory
                       Pacific Northwest National Laboratory
                                Richland, WA 99352

                              Copyright (c) 1994-2015
                       Pacific Northwest National Laboratory
                            Battelle Memorial Institute

             NWChem is an open-source computational chemistry package
                        distributed under the terms of the
                      Educational Community License (ECL) 2.0
             A copy of the license is included with this distribution
                              in the LICENSE.TXT file

                                  ACKNOWLEDGMENT
                                  --------------

            This software and its documentation were developed at the
            EMSL at Pacific Northwest National Laboratory, a multiprogram
            national laboratory, operated for the U.S. Department of Energy
            by Battelle under Contract Number DE-AC05-76RL01830. Support
            for this work was provided by the Department of Energy Office
            of Biological and Environmental Research, Office of Basic
            Energy Sciences, and the Office of Advanced Scientific Computing.


           Job information
           ---------------

    hostname        = r8n3.niserhpc.org
    program         = /home/bikashp/Code/nwchem-6.6_revtpss/bin/LINUX64/nwchem
    date            = Tue Sep 25 20:04:10 2018

    compiled        = Tue_Sep_25_17:05:19_2018
    source          = /home/bikashp/Code/nwchem-6.6_revtpss
    nwchem branch   = 6.6
    nwchem revision = 27746
    ga revision     = 10594
    input           = /storage/home/bikashp/nwchem_run/rabeet/pa8/nwrevtpss/SiH4.xyz.nw
    prefix          = SiH4.xyz.
    data base       = ./SiH4.xyz.db
    status          = startup
    nproc           =        1
    time left       =     -1s



           Memory information
           ------------------

    heap     =   13107196 doubles =    100.0 Mbytes
    stack    =   13107201 doubles =    100.0 Mbytes
    global   =   26214400 doubles =    200.0 Mbytes (distinct from heap & stack)
    total    =   52428797 doubles =    400.0 Mbytes
    verify   = yes
    hardfail = no 


           Directory information
           ---------------------

  0 permanent = .
  0 scratch   = .




                                NWChem Input Module
                                -------------------



 Scaling coordinates for geometry "geometry" by  1.889725989
 (inverse scale =  0.529177249)

 TD  symmetry detected

          ------
          auto-z
          ------
  Looking for out-of-plane bends


                             Geometry "geometry" -> ""
                             -------------------------

 Output coordinates in angstroms (scale by  1.889725989 to convert to a.u.)

  No.       Tag          Charge          X              Y              Z
 ---- ---------------- ---------- -------------- -------------- --------------
    1 Si                  14.0000     0.00000000     0.00000000     0.00000000
    2 H                    1.0000     0.85613000    -0.85613000     0.85613000
    3 H                    1.0000    -0.85613000     0.85613000     0.85613000
    4 H                    1.0000     0.85613000     0.85613000    -0.85613000
    5 H                    1.0000    -0.85613000    -0.85613000    -0.85613000

      Atomic Mass 
      ----------- 

      Si                27.976930
      H                  1.007825


 Effective nuclear repulsion energy (a.u.)      21.2954920217

            Nuclear Dipole moment (a.u.) 
            ----------------------------
        X                 Y               Z
 ---------------- ---------------- ----------------
     0.0000000000     0.0000000000     0.0000000000

      Symmetry information
      --------------------

 Group name              Td       
 Group number             42
 Group order              24
 No. of unique centers     2

      Symmetry unique atoms

     1    2



                                Z-matrix (autoz)
                                -------- 

 Units are Angstrom for bonds and degrees for angles

      Type          Name      I     J     K     L     M      Value
      ----------- --------  ----- ----- ----- ----- ----- ----------
    1 Stretch                  1     2                       1.48286
    2 Stretch                  1     3                       1.48286
    3 Stretch                  1     4                       1.48286
    4 Stretch                  1     5                       1.48286
    5 Bend                     2     1     3               109.47122
    6 Bend                     2     1     4               109.47122
    7 Bend                     2     1     5               109.47122
    8 Bend                     3     1     4               109.47122
    9 Bend                     3     1     5               109.47122
   10 Bend                     4     1     5               109.47122


            XYZ format geometry
            -------------------
     5
 geometry
 Si                    0.00000000     0.00000000     0.00000000
 H                     0.85613000    -0.85613000     0.85613000
 H                    -0.85613000     0.85613000     0.85613000
 H                     0.85613000     0.85613000    -0.85613000
 H                    -0.85613000    -0.85613000    -0.85613000

 ==============================================================================
                                internuclear distances
 ------------------------------------------------------------------------------
       center one      |      center two      | atomic units |  angstroms
 ------------------------------------------------------------------------------
    2 H                |   1 Si               |     2.80220  |     1.48286
    3 H                |   1 Si               |     2.80220  |     1.48286
    4 H                |   1 Si               |     2.80220  |     1.48286
    5 H                |   1 Si               |     2.80220  |     1.48286
 ------------------------------------------------------------------------------
                         number of included internuclear distances:          4
 ==============================================================================



 ==============================================================================
                                 internuclear angles
 ------------------------------------------------------------------------------
        center 1       |       center 2       |       center 3       |  degrees
 ------------------------------------------------------------------------------
    2 H                |   1 Si               |   3 H                |   109.47
    2 H                |   1 Si               |   4 H                |   109.47
    2 H                |   1 Si               |   5 H                |   109.47
    3 H                |   1 Si               |   4 H                |   109.47
    3 H                |   1 Si               |   5 H                |   109.47
    4 H                |   1 Si               |   5 H                |   109.47
 ------------------------------------------------------------------------------
                            number of included internuclear angles:          6
 ==============================================================================





 Summary of "ao basis" -> "" (cartesian)
 ------------------------------------------------------------------------------
       Tag                 Description            Shells   Functions and Types
 ---------------- ------------------------------  ------  ---------------------
 *                     6-311++G(3df,3pd)              on all atoms 



                                 NWChem DFT Module
                                 -----------------


                      Basis "ao basis" -> "ao basis" (cartesian)
                      -----
  Si (Silicon)
  ------------
            Exponent  Coefficients 
       -------------- ---------------------------------------------------------
  1 S  6.93792300E+04  0.000757
  1 S  1.03549400E+04  0.005932
  1 S  2.33387960E+03  0.031088
  1 S  6.57142950E+02  0.124967
  1 S  2.14301130E+02  0.386897
  1 S  7.76291680E+01  0.554888

  2 S  7.76291680E+01  0.177881
  2 S  3.06308070E+01  0.627765
  2 S  1.28012950E+01  0.247623

  3 S  3.92686600E+00  1.000000

  4 S  1.45234300E+00  1.000000

  5 S  2.56234000E-01  1.000000

  6 S  9.42790000E-02  1.000000

  7 P  3.35483190E+02  0.008866
  7 P  7.89003660E+01  0.068299
  7 P  2.49881500E+01  0.290958
  7 P  9.21971100E+00  0.732117

  8 P  3.62114000E+00  0.619879
  8 P  1.45131000E+00  0.439148

  9 P  5.04977000E-01  1.000000

 10 P  1.86317000E-01  1.000000

 11 P  6.54320000E-02  1.000000

 12 S  3.31000000E-02  1.000000

 13 P  3.31000000E-02  1.000000

 14 D  1.80000000E+00  1.000000

 15 D  4.50000000E-01  1.000000

 16 D  1.12500000E-01  1.000000

 17 F  3.20000000E-01  1.000000

  H (Hydrogen)
  ------------
            Exponent  Coefficients 
       -------------- ---------------------------------------------------------
  1 S  3.38650000E+01  0.025494
  1 S  5.09479000E+00  0.190373
  1 S  1.15879000E+00  0.852161

  2 S  3.25840000E-01  1.000000

  3 S  1.02741000E-01  1.000000

  4 S  3.60000000E-02  1.000000

  5 P  3.00000000E+00  1.000000

  6 P  7.50000000E-01  1.000000

  7 P  1.87500000E-01  1.000000

  8 D  1.00000000E+00  1.000000



 Summary of "ao basis" -> "ao basis" (cartesian)
 ------------------------------------------------------------------------------
       Tag                 Description            Shells   Functions and Types
 ---------------- ------------------------------  ------  ---------------------
 Si                    6-311++G(3df,3pd)            17       53   7s6p3d1f
 H                     6-311++G(3df,3pd)             8       19   4s3p1d




 Summary of "ao basis" -> "ao basis" (cartesian)
 ------------------------------------------------------------------------------
       Tag                 Description            Shells   Functions and Types
 ---------------- ------------------------------  ------  ---------------------
 Si                    6-311++G(3df,3pd)            17       53   7s6p3d1f
 H                     6-311++G(3df,3pd)             8       19   4s3p1d


      Symmetry analysis of basis
      --------------------------

        a1         20
        a2          0
        e          16
        t1         18
        t2         75

  Caching 1-el integrals 

            General Information
            -------------------
          SCF calculation type: DFT
          Wavefunction type:  closed shell.
          No. of atoms     :     5
          No. of electrons :    18
           Alpha electrons :     9
            Beta electrons :     9
          Charge           :     0
          Spin multiplicity:     1
          Use of symmetry is: on ; symmetry adaption is: on 
          Maximum number of iterations: ***
          AO basis - number of functions:   129
                     number of shells:    49
          Convergence on energy requested: 1.00D-06
          Convergence on density requested: 1.00D-05
          Convergence on gradient requested: 5.00D-04

              XC Information
              --------------
                  TPSS metaGGA Exchange Functional  1.000          
             TPSS03 metaGGA Correlation Functional  1.000          

             Grid Information
             ----------------
          Grid used for XC integration:  medium    
          Radial quadrature: Mura-Knowles        
          Angular quadrature: Lebedev. 
          Tag              B.-S. Rad. Rad. Pts. Rad. Cut. Ang. Pts.
          ---              ---------- --------- --------- ---------
          Si                  1.10       88          11.0       590
          H                   0.35       45          12.0       434
          Grid pruning is: on 
          Number of quadrature shells:   133
          Spatial weights used:  Erf1

          Convergence Information
          -----------------------
          Convergence aids based upon iterative change in 
          total energy or number of iterations. 
          Levelshifting, if invoked, occurs when the 
          HOMO/LUMO gap drops below (HL_TOL): 1.00D-02
          DIIS, if invoked, will attempt to extrapolate 
          using up to (NFOCK): 10 stored Fock matrices.

                    Damping( 0%)  Levelshifting(0.5)       DIIS
                  --------------- ------------------- ---------------
          dE  on:    start            ASAP                start   
          dE off:    2 iters        *** iters           *** iters 


      Screening Tolerance Information
      -------------------------------
          Density screening/tol_rho: 1.00D-10
          AO Gaussian exp screening on grid/accAOfunc:  14
          CD Gaussian exp screening on grid/accCDfunc:  20
          XC Gaussian exp screening on grid/accXCfunc:  20
          Schwarz screening/accCoul: 1.00D-08


      Superposition of Atomic Density Guess
      -------------------------------------

 Sum of atomic energies:        -290.83602681

      Non-variational initial energy
      ------------------------------

 Total energy =    -291.041032
 1-e energy   =    -444.411388
 2-e energy   =     132.074864
 HOMO         =      -0.435272
 LUMO         =       0.034944


      Symmetry analysis of molecular orbitals - initial
      -------------------------------------------------

  Numbering of irreducible representations: 

     1 a1          2 a2          3 e           4 t1          5 t2      

  Orbital symmetries:

     1 a1          2 a1          3 t2          4 t2          5 t2      
     6 a1          7 t2          8 t2          9 t2         10 a1      
    11 t2         12 t2         13 t2         14 t2         15 t2      
    16 t2         17 a1         18 t2         19 t2      

   Time after variat. SCF:      0.6
   Time prior to 1st pass:      0.6

 Integral file          = ./SiH4.xyz.aoints.0
 Record size in doubles =    65536    No. of integs per rec  =    43688
 Max. records in memory =       61    Max. records in file   = ********
 No. of bits per label  =        8    No. of bits per value  =       64


 #quartets = 1.180D+05 #integrals = 5.485D+06 #direct =  0.0% #cached =100.0%


 Grid_pts file          = ./SiH4.xyz.gridpts.0
 Record size in doubles =  12289        No. of grid_pts per rec  =   3070
 Max. records in memory =     30        Max. recs in file   = 995255213


           Memory utilization after 1st SCF pass: 
           Heap Space remaining (MW):        8.74             8736180
          Stack Space remaining (MW):       13.11            13106388

   convergence    iter        energy       DeltaE   RMS-Dens  Diis-err    time
 ---------------- ----- ----------------- --------- --------- ---------  ------
 d= 0,ls=0.0,diis     1   -291.7994118939 -3.13D+02  3.04D-03  3.57D-01     1.5
 d= 0,ls=0.0,diis     2   -291.8139744977 -1.46D-02  8.84D-04  4.19D-03     1.8
 d= 0,ls=0.0,diis     3   -291.8142959364 -3.21D-04  2.65D-04  1.11D-03     2.1
 d= 0,ls=0.0,diis     4   -291.8145907437 -2.95D-04  4.26D-05  1.34D-04     2.4
 d= 0,ls=0.0,diis     5   -291.8145991270 -8.38D-06  4.19D-06  4.06D-07     2.7
 d= 0,ls=0.0,diis     6   -291.8145992904 -1.63D-07  7.14D-07  7.33D-09     3.1


         Total DFT energy =     -291.814599290393
      One electron energy =     -445.645543059126
           Coulomb energy =      154.837082205233
          Exchange energy =      -21.666322813927
       Correlation energy =       -0.635307644294
 Nuclear repulsion energy =       21.295492021721

 Numeric. integr. density =       18.000009469861

     Total iterative time =      2.5s



                  Occupations of the irreducible representations
                  ----------------------------------------------

                     irrep           alpha         beta
                     --------     --------     --------
                     a1                3.0          3.0
                     a2                0.0          0.0
                     e                 0.0          0.0
                     t1                0.0          0.0
                     t2                6.0          6.0


                       DFT Final Molecular Orbital Analysis
                       ------------------------------------

 Vector    1  Occ=2.000000D+00  E=-6.570872D+01  Symmetry=a1
              MO Center=  5.0D-24, -1.2D-23, -7.3D-23, r^2= 4.7D-03
   Bfn.  Coefficient  Atom+Function         Bfn.  Coefficient  Atom+Function  
  ----- ------------  ---------------      ----- ------------  ---------------
     2      0.645571  1 Si s                  1      0.418498  1 Si s          

 Vector    2  Occ=2.000000D+00  E=-5.122671D+00  Symmetry=a1
              MO Center=  1.1D-20,  1.2D-19,  2.1D-20, r^2= 1.1D-01
   Bfn.  Coefficient  Atom+Function         Bfn.  Coefficient  Atom+Function  
  ----- ------------  ---------------      ----- ------------  ---------------
     3      0.550606  1 Si s                  4      0.547177  1 Si s          
     2     -0.305210  1 Si s          

 Vector    3  Occ=2.000000D+00  E=-3.480297D+00  Symmetry=t2
              MO Center=  1.8D-05,  1.8D-05,  1.8D-05, r^2= 1.0D-01
   Bfn.  Coefficient  Atom+Function         Bfn.  Coefficient  Atom+Function  
  ----- ------------  ---------------      ----- ------------  ---------------
    12      0.408993  1 Si pz                10      0.395800  1 Si px         
    11      0.389987  1 Si py                 9      0.238201  1 Si pz         
     7      0.230517  1 Si px                 8      0.227131  1 Si py         

 Vector    4  Occ=2.000000D+00  E=-3.480297D+00  Symmetry=t2
              MO Center= -1.7D-05,  8.7D-06, -1.8D-05, r^2= 1.0D-01
   Bfn.  Coefficient  Atom+Function         Bfn.  Coefficient  Atom+Function  
  ----- ------------  ---------------      ----- ------------  ---------------
    11      0.568943  1 Si py                 8      0.331357  1 Si py         
    10     -0.284501  1 Si px                12     -0.267180  1 Si pz         
     7     -0.165696  1 Si px                 9     -0.155608  1 Si pz         

 Vector    5  Occ=2.000000D+00  E=-3.480297D+00  Symmetry=t2
              MO Center= -8.5D-07, -2.7D-05,  8.6D-07, r^2= 1.0D-01
   Bfn.  Coefficient  Atom+Function         Bfn.  Coefficient  Atom+Function  
  ----- ------------  ---------------      ----- ------------  ---------------
    10      0.488287  1 Si px                12     -0.487198  1 Si pz         
     7      0.284382  1 Si px                 9     -0.283748  1 Si pz         

 Vector    6  Occ=2.000000D+00  E=-5.096161D-01  Symmetry=a1
              MO Center= -2.3D-15,  1.6D-16,  1.8D-15, r^2= 1.8D+00
   Bfn.  Coefficient  Atom+Function         Bfn.  Coefficient  Atom+Function  
  ----- ------------  ---------------      ----- ------------  ---------------
     5      0.455911  1 Si s                  6      0.309997  1 Si s          
     4     -0.263703  1 Si s                  3     -0.173830  1 Si s          

 Vector    7  Occ=2.000000D+00  E=-3.272430D-01  Symmetry=t2
              MO Center=  2.5D-02, -5.9D-01,  2.4D-02, r^2= 2.1D+00
   Bfn.  Coefficient  Atom+Function         Bfn.  Coefficient  Atom+Function  
  ----- ------------  ---------------      ----- ------------  ---------------
    55      0.259882  2 H  s                112     -0.249166  5 H  s          
    56      0.163314  2 H  s                113     -0.156580  5 H  s          

 Vector    8  Occ=2.000000D+00  E=-3.272430D-01  Symmetry=t2
              MO Center= -2.6D-01,  5.3D-02,  2.2D-01, r^2= 2.3D+00
   Bfn.  Coefficient  Atom+Function         Bfn.  Coefficient  Atom+Function  
  ----- ------------  ---------------      ----- ------------  ---------------
    74      0.248047  3 H  s                112     -0.177109  5 H  s          
    14      0.170457  1 Si py                55     -0.166527  2 H  s          
    75      0.155877  3 H  s          

 Vector    9  Occ=2.000000D+00  E=-3.272430D-01  Symmetry=t2
              MO Center=  2.3D-01,  5.4D-01, -2.5D-01, r^2= 2.0D+00
   Bfn.  Coefficient  Atom+Function         Bfn.  Coefficient  Atom+Function  
  ----- ------------  ---------------      ----- ------------  ---------------
    93      0.296724  4 H  s                 74     -0.189193  3 H  s          
    94      0.186467  4 H  s                 92      0.163597  4 H  s          

 Vector   10  Occ=0.000000D+00  E=-1.527888D-02  Symmetry=a1
              MO Center= -1.5D-15,  1.6D-15, -1.1D-16, r^2= 1.3D+01
   Bfn.  Coefficient  Atom+Function         Bfn.  Coefficient  Atom+Function  
  ----- ------------  ---------------      ----- ------------  ---------------
    22      5.512846  1 Si s                 57     -1.913378  2 H  s          
    76     -1.913378  3 H  s                 95     -1.913378  4 H  s          
   114     -1.913378  5 H  s                  6     -0.726262  1 Si s          
     5      0.354670  1 Si s                 56      0.350334  2 H  s          
    75      0.350334  3 H  s                 94      0.350334  4 H  s          

 Vector   11  Occ=0.000000D+00  E= 2.085805D-03  Symmetry=t2
              MO Center= -3.8D-01,  7.4D-01, -5.0D-01, r^2= 7.6D+00
   Bfn.  Coefficient  Atom+Function         Bfn.  Coefficient  Atom+Function  
  ----- ------------  ---------------      ----- ------------  ---------------
    57      2.280158  2 H  s                 23     -1.650769  1 Si px         
    25     -1.256811  1 Si pz               114     -1.252142  5 H  s          
    24      0.846202  1 Si py                76     -0.753309  3 H  s          
    16     -0.431780  1 Si px                18     -0.328736  1 Si pz         
    19      0.295447  1 Si px                42     -0.278908  1 Si dyz        

 Vector   12  Occ=0.000000D+00  E= 2.085805D-03  Symmetry=t2
              MO Center= -7.0D-02, -8.7D-01,  5.6D-02, r^2= 7.8D+00
   Bfn.  Coefficient  Atom+Function         Bfn.  Coefficient  Atom+Function  
  ----- ------------  ---------------      ----- ------------  ---------------
    95      1.978393  4 H  s                 76     -1.841375  3 H  s          
    25      1.752288  1 Si pz                23     -1.391918  1 Si px         
    18      0.458334  1 Si pz                16     -0.364074  1 Si px         
    21     -0.313616  1 Si pz                39      0.296060  1 Si dxy        
    57     -0.287408  2 H  s                 19      0.249119  1 Si px         

 Vector   13  Occ=0.000000D+00  E= 2.085805D-03  Symmetry=t2
              MO Center=  4.5D-01,  1.3D-01,  4.4D-01, r^2= 8.1D+00
   Bfn.  Coefficient  Atom+Function         Bfn.  Coefficient  Atom+Function  
  ----- ------------  ---------------      ----- ------------  ---------------
    24      2.071688  1 Si py               114      1.991724  5 H  s          
    76     -1.264635  3 H  s                 95     -1.252174  4 H  s          
    25      0.608753  1 Si pz                23      0.598496  1 Si px         
    17      0.541877  1 Si py                57      0.525086  2 H  s          
    20     -0.370781  1 Si py                40      0.350025  1 Si dxz        

 Vector   14  Occ=0.000000D+00  E= 2.696836D-02  Symmetry=t2
              MO Center= -3.8D-01, -1.8D-01, -9.5D-01, r^2= 1.4D+01
   Bfn.  Coefficient  Atom+Function         Bfn.  Coefficient  Atom+Function  
  ----- ------------  ---------------      ----- ------------  ---------------
   114      1.957425  5 H  s                 95     -1.511469  4 H  s          
    20      0.903980  1 Si py                76     -0.847528  3 H  s          
    17     -0.823361  1 Si py                19      0.425318  1 Si px         
    57      0.401572  2 H  s                 16     -0.387387  1 Si px         
    45      0.367402  1 Si fxxy              52      0.367402  1 Si fyzz       

 Vector   15  Occ=0.000000D+00  E= 2.696836D-02  Symmetry=t2
              MO Center= -3.7D-01,  1.1D+00,  5.8D-01, r^2= 1.3D+01
   Bfn.  Coefficient  Atom+Function         Bfn.  Coefficient  Atom+Function  
  ----- ------------  ---------------      ----- ------------  ---------------
    76      2.125913  3 H  s                 95     -1.379562  4 H  s          
    19      0.818680  1 Si px                57     -0.756841  2 H  s          
    16     -0.745669  1 Si px                21     -0.524635  1 Si pz         
    18      0.477848  1 Si pz                47      0.332734  1 Si fxyy       
    49      0.332734  1 Si fxzz              44      0.325790  1 Si fxxx       

 Vector   16  Occ=0.000000D+00  E= 2.696836D-02  Symmetry=t2
              MO Center=  7.6D-01, -8.9D-01,  3.7D-01, r^2= 1.4D+01
   Bfn.  Coefficient  Atom+Function         Bfn.  Coefficient  Atom+Function  
  ----- ------------  ---------------      ----- ------------  ---------------
    57      2.124298  2 H  s                114     -1.189575  5 H  s          
    95     -1.029069  4 H  s                 21     -0.850195  1 Si pz         
    18      0.774374  1 Si pz                19     -0.419697  1 Si px         
    16      0.382268  1 Si px                20      0.358190  1 Si py         
    46     -0.345543  1 Si fxxz              51     -0.345543  1 Si fyyz       

 Vector   17  Occ=0.000000D+00  E= 9.265711D-02  Symmetry=t2
              MO Center=  1.1D-03, -2.0D-02, -4.8D-02, r^2= 1.5D+01
   Bfn.  Coefficient  Atom+Function         Bfn.  Coefficient  Atom+Function  
  ----- ------------  ---------------      ----- ------------  ---------------
    23      5.006518  1 Si px                76      4.105967  3 H  s          
    57     -3.930951  2 H  s                 95     -3.682500  4 H  s          
   114      3.507484  5 H  s                 19     -3.180923  1 Si px         
    75     -2.000611  3 H  s                 56      1.915336  2 H  s          
    94      1.794279  4 H  s                113     -1.709004  5 H  s          

 Vector   18  Occ=0.000000D+00  E= 9.265711D-02  Symmetry=t2
              MO Center=  3.8D-01,  2.6D-02,  4.5D-02, r^2= 1.5D+01
   Bfn.  Coefficient  Atom+Function         Bfn.  Coefficient  Atom+Function  
  ----- ------------  ---------------      ----- ------------  ---------------
   114     -5.425463  5 H  s                 76      4.971125  3 H  s          
    24     -4.339390  1 Si py                20      2.757059  1 Si py         
   113      2.643530  5 H  s                 25     -2.497288  1 Si pz         
    75     -2.422156  3 H  s                 95      1.627819  4 H  s          
    21      1.586668  1 Si pz                57     -1.173481  2 H  s          

 Vector   19  Occ=0.000000D+00  E= 9.265711D-02  Symmetry=t2
              MO Center= -3.8D-01, -5.9D-03,  3.4D-03, r^2= 1.5D+01
   Bfn.  Coefficient  Atom+Function         Bfn.  Coefficient  Atom+Function  
  ----- ------------  ---------------      ----- ------------  ---------------
    95     -5.236444  4 H  s                 57      5.177018  2 H  s          
    25     -4.348140  1 Si pz                21      2.762619  1 Si pz         
    94      2.551431  4 H  s                 56     -2.522476  2 H  s          
    24      2.499633  1 Si py                20     -1.588158  1 Si py         
    76      1.435233  3 H  s                114     -1.375807  5 H  s          

 Vector   20  Occ=0.000000D+00  E= 1.010638D-01  Symmetry=a1
              MO Center= -2.1D-13, -6.3D-14, -3.1D-13, r^2= 1.9D+01
   Bfn.  Coefficient  Atom+Function         Bfn.  Coefficient  Atom+Function  
  ----- ------------  ---------------      ----- ------------  ---------------
    22     28.299728  1 Si s                 57     -7.373496  2 H  s          
    76     -7.373496  3 H  s                 95     -7.373496  4 H  s          
   114     -7.373496  5 H  s                  6     -2.369248  1 Si s          
    38     -0.885382  1 Si dxx               41     -0.885382  1 Si dyy        
    43     -0.885382  1 Si dzz                5     -0.747416  1 Si s          

 Vector   21  Occ=0.000000D+00  E= 1.159827D-01  Symmetry=e
              MO Center= -8.2D-16,  2.4D-16,  2.5D-15, r^2= 3.9D+00
   Bfn.  Coefficient  Atom+Function         Bfn.  Coefficient  Atom+Function  
  ----- ------------  ---------------      ----- ------------  ---------------
    43      0.914879  1 Si dzz               41     -0.464159  1 Si dyy        
    38     -0.450720  1 Si dxx        

 Vector   22  Occ=0.000000D+00  E= 1.159827D-01  Symmetry=e
              MO Center=  2.1D-15,  2.8D-17,  1.6D-15, r^2= 3.9D+00
   Bfn.  Coefficient  Atom+Function         Bfn.  Coefficient  Atom+Function  
  ----- ------------  ---------------      ----- ------------  ---------------
    38      0.796188  1 Si dxx               41     -0.788429  1 Si dyy        

 Vector   23  Occ=0.000000D+00  E= 1.228864D-01  Symmetry=a1
              MO Center=  9.5D-15,  5.7D-14,  2.9D-14, r^2= 8.1D+00
   Bfn.  Coefficient  Atom+Function         Bfn.  Coefficient  Atom+Function  
  ----- ------------  ---------------      ----- ------------  ---------------
    22      8.387453  1 Si s                  6      5.362632  1 Si s          
    56     -2.212433  2 H  s                 75     -2.212433  3 H  s          
    94     -2.212433  4 H  s                113     -2.212433  5 H  s          
    57     -1.568765  2 H  s                 76     -1.568765  3 H  s          
    95     -1.568765  4 H  s                114     -1.568765  5 H  s          

 Vector   24  Occ=0.000000D+00  E= 2.256323D-01  Symmetry=t2
              MO Center=  8.8D-03,  4.3D-04, -2.7D-02, r^2= 1.1D+01
   Bfn.  Coefficient  Atom+Function         Bfn.  Coefficient  Atom+Function  
  ----- ------------  ---------------      ----- ------------  ---------------
    17      5.818787  1 Si py                20     -3.517226  1 Si py         
    45     -1.887730  1 Si fxxy              50     -1.884680  1 Si fyyy       
    52     -1.887730  1 Si fyzz              24      1.622140  1 Si py         
    14     -1.182865  1 Si py                95      0.403380  4 H  s          
   114     -0.391269  5 H  s                 94     -0.378149  4 H  s          

 Vector   25  Occ=0.000000D+00  E= 2.256323D-01  Symmetry=t2
              MO Center= -4.2D-03, -9.0D-02, -7.1D-04, r^2= 1.1D+01
   Bfn.  Coefficient  Atom+Function         Bfn.  Coefficient  Atom+Function  
  ----- ------------  ---------------      ----- ------------  ---------------
    18      5.746120  1 Si pz                21     -3.473301  1 Si pz         
    46     -1.864156  1 Si fxxz              51     -1.864156  1 Si fyyz       
    53     -1.861143  1 Si fzzz              25      1.601882  1 Si pz         
    15     -1.168093  1 Si pz                16      0.962620  1 Si px         
    19     -0.581865  1 Si px               114     -0.439843  5 H  s          

 Vector   26  Occ=0.000000D+00  E= 2.256323D-01  Symmetry=t2
              MO Center= -4.6D-03,  9.0D-02,  2.8D-02, r^2= 1.1D+01
   Bfn.  Coefficient  Atom+Function         Bfn.  Coefficient  Atom+Function  
  ----- ------------  ---------------      ----- ------------  ---------------
    16      5.739363  1 Si px                19     -3.469217  1 Si px         
    44     -1.858955  1 Si fxxx              47     -1.861964  1 Si fxyy       
    49     -1.861964  1 Si fxzz              23      1.599999  1 Si px         
    13     -1.166720  1 Si px                18     -0.959181  1 Si pz         
    21      0.579787  1 Si pz                76     -0.455366  3 H  s          

 Vector   27  Occ=0.000000D+00  E= 2.971173D-01  Symmetry=t2
              MO Center= -8.1D-04, -1.7D-02, -2.7D-02, r^2= 8.9D+00
   Bfn.  Coefficient  Atom+Function         Bfn.  Coefficient  Atom+Function  
  ----- ------------  ---------------      ----- ------------  ---------------
    19      7.464174  1 Si px               113      6.302778  5 H  s          
    94     -5.956168  4 H  s                 42     -5.868748  1 Si dyz        
    56     -5.742089  2 H  s                 75      5.395479  3 H  s          
    16      3.884131  1 Si px                23     -3.421787  1 Si px         
   114     -2.595276  5 H  s                 95      2.452554  4 H  s          

 Vector   28  Occ=0.000000D+00  E= 2.971173D-01  Symmetry=t2
              MO Center=  7.0D-02,  1.3D-02, -1.7D-03, r^2= 8.9D+00
   Bfn.  Coefficient  Atom+Function         Bfn.  Coefficient  Atom+Function  
  ----- ------------  ---------------      ----- ------------  ---------------
    21      7.417596  1 Si pz                94      6.668279  4 H  s          
    56     -6.392642  2 H  s                 39     -5.832126  1 Si dxy        
    75     -5.232616  3 H  s                113      4.956980  5 H  s          
    18      3.859893  1 Si pz                25     -3.400434  1 Si pz         
    95     -2.745778  4 H  s                 57      2.632280  2 H  s          

 Vector   29  Occ=0.000000D+00  E= 2.971173D-01  Symmetry=t2
              MO Center= -6.9D-02,  3.6D-03,  2.9D-02, r^2= 8.9D+00
   Bfn.  Coefficient  Atom+Function         Bfn.  Coefficient  Atom+Function  
  ----- ------------  ---------------      ----- ------------  ---------------
    20      7.411051  1 Si py                75     -6.816989  3 H  s          
   113      6.218211  5 H  s                 40     -5.826980  1 Si dxz        
    56      5.396790  2 H  s                 94     -4.798012  4 H  s          
    17      3.856488  1 Si py                24     -3.397434  1 Si py         
    76      2.807011  3 H  s                114     -2.560454  5 H  s          

 Vector   30  Occ=0.000000D+00  E= 3.306919D-01  Symmetry=a1
              MO Center=  4.7D-14, -1.5D-14, -7.6D-14, r^2= 8.4D+00
   Bfn.  Coefficient  Atom+Function         Bfn.  Coefficient  Atom+Function  
  ----- ------------  ---------------      ----- ------------  ---------------
    22     16.259908  1 Si s                  6     10.413457  1 Si s          
    57     -3.491830  2 H  s                 76     -3.491830  3 H  s          
    95     -3.491830  4 H  s                114     -3.491830  5 H  s          
    38     -2.749392  1 Si dxx               41     -2.749392  1 Si dyy        
    43     -2.749392  1 Si dzz                5     -2.142863  1 Si s          

 Vector   31  Occ=0.000000D+00  E= 3.807460D-01  Symmetry=t1
              MO Center=  2.6D-01,  1.5D-01,  3.3D-01, r^2= 4.7D+00
   Bfn.  Coefficient  Atom+Function         Bfn.  Coefficient  Atom+Function  
  ----- ------------  ---------------      ----- ------------  ---------------
    66     -0.618094  2 H  pz                85      0.618094  3 H  pz         
    64      0.565966  2 H  px               102     -0.565966  4 H  px         
    84     -0.410303  3 H  py               103      0.410303  4 H  py         
    83      0.207791  3 H  px               121     -0.207791  5 H  px         
   104     -0.155663  4 H  pz               123      0.155663  5 H  pz         

 Vector   32  Occ=0.000000D+00  E= 3.807460D-01  Symmetry=t1
              MO Center= -3.7D-01,  1.4D-01, -8.3D-02, r^2= 4.8D+00
   Bfn.  Coefficient  Atom+Function         Bfn.  Coefficient  Atom+Function  
  ----- ------------  ---------------      ----- ------------  ---------------
    83      0.653040  3 H  px               121     -0.653040  5 H  px         
    84      0.500431  3 H  py               103     -0.500431  4 H  py         
   104     -0.335309  4 H  pz               123      0.335309  5 H  pz         
    65     -0.317731  2 H  py               122      0.317731  5 H  py         
    64     -0.165121  2 H  px               102      0.165121  4 H  px         

 Vector   33  Occ=0.000000D+00  E= 3.807460D-01  Symmetry=t1
              MO Center=  1.1D-01, -2.9D-01, -2.5D-01, r^2= 4.8D+00
   Bfn.  Coefficient  Atom+Function         Bfn.  Coefficient  Atom+Function  
  ----- ------------  ---------------      ----- ------------  ---------------
    65      0.605595  2 H  py               122     -0.605595  5 H  py         
   104     -0.577713  4 H  pz               123      0.577713  5 H  pz         
    64      0.350476  2 H  px               102     -0.350476  4 H  px         
    66      0.255120  2 H  pz                85     -0.255120  3 H  pz         
    84      0.227237  3 H  py               103     -0.227237  4 H  py         

 Vector   34  Occ=0.000000D+00  E= 3.969107D-01  Symmetry=a1
              MO Center=  5.0D-14,  1.7D-13, -3.5D-13, r^2= 1.0D+01
   Bfn.  Coefficient  Atom+Function         Bfn.  Coefficient  Atom+Function  
  ----- ------------  ---------------      ----- ------------  ---------------
    22     15.177243  1 Si s                  6     -9.716863  1 Si s          
    56      4.810405  2 H  s                 75      4.810405  3 H  s          
    94      4.810405  4 H  s                113      4.810405  5 H  s          
    57     -4.151331  2 H  s                 76     -4.151331  3 H  s          
    95     -4.151331  4 H  s                114     -4.151331  5 H  s          

 Vector   35  Occ=0.000000D+00  E= 4.362331D-01  Symmetry=t2
              MO Center=  1.3D-03, -1.6D-02, -4.1D-02, r^2= 6.8D+00
   Bfn.  Coefficient  Atom+Function         Bfn.  Coefficient  Atom+Function  
  ----- ------------  ---------------      ----- ------------  ---------------
    19      2.530922  1 Si px                23     -2.460506  1 Si px         
    42      2.445509  1 Si dyz               76     -2.171577  3 H  s          
    57      2.045078  2 H  s                 95      1.849996  4 H  s          
    75      1.764422  3 H  s                114     -1.723497  5 H  s          
    56     -1.661640  2 H  s                 94     -1.503135  4 H  s          

 Vector   36  Occ=0.000000D+00  E= 4.362331D-01  Symmetry=t2
              MO Center= -1.5D-01,  1.7D-03, -5.8D-04, r^2= 6.8D+00
   Bfn.  Coefficient  Atom+Function         Bfn.  Coefficient  Atom+Function  
  ----- ------------  ---------------      ----- ------------  ---------------
    57      2.496043  2 H  s                 95     -2.482200  4 H  s          
    21      2.399718  1 Si pz                25     -2.332952  1 Si pz         
    39      2.318733  1 Si dxy               56     -2.028053  2 H  s          
    94      2.016805  4 H  s                 55      1.403693  2 H  s          
    93     -1.395908  4 H  s                114     -1.210952  5 H  s          

 Vector   37  Occ=0.000000D+00  E= 4.362331D-01  Symmetry=t2
              MO Center=  1.5D-01,  1.4D-02,  4.1D-02, r^2= 6.8D+00
   Bfn.  Coefficient  Atom+Function         Bfn.  Coefficient  Atom+Function  
  ----- ------------  ---------------      ----- ------------  ---------------
   114      2.651682  5 H  s                 20     -2.390620  1 Si py         
    24      2.324108  1 Si py                40     -2.309942  1 Si dxz        
    76     -2.306393  3 H  s                113     -2.154511  5 H  s          
    75      1.873961  3 H  s                112      1.491220  5 H  s          
    95     -1.372757  4 H  s                 74     -1.297040  3 H  s          

 Vector   38  Occ=0.000000D+00  E= 5.602031D-01  Symmetry=t2
              MO Center= -1.4D-01, -1.2D-02, -2.1D-02, r^2= 5.6D+00
   Bfn.  Coefficient  Atom+Function         Bfn.  Coefficient  Atom+Function  
  ----- ------------  ---------------      ----- ------------  ---------------
   113      1.845837  5 H  s                 75     -1.647728  3 H  s          
    17      1.546510  1 Si py                20     -0.968935  1 Si py         
    18      0.881781  1 Si pz                84      0.870600  3 H  py         
   122      0.873982  5 H  py                40     -0.857107  1 Si dxz        
    65      0.848941  2 H  py               103      0.852324  4 H  py         


 center of mass
 --------------
 x =   0.00000000 y =   0.00000000 z =   0.00000000

 moments of inertia (a.u.)
 ------------------
          21.103389611361           0.000000000000           0.000000000000
           0.000000000000          21.103389611361           0.000000000000
           0.000000000000           0.000000000000          21.103389611361

     Multipole analysis of the density
     ---------------------------------

     L   x y z        total         alpha         beta         nuclear
     -   - - -        -----         -----         ----         -------
     0   0 0 0     -0.000000     -9.000000     -9.000000     18.000000

     1   1 0 0      0.000000      0.000000      0.000000      0.000000
     1   0 1 0     -0.000000     -0.000000     -0.000000      0.000000
     1   0 0 1     -0.000000     -0.000000     -0.000000      0.000000

     2   2 0 0    -12.332690    -11.401230    -11.401230     10.469769
     2   1 1 0      0.000000      0.000000      0.000000      0.000000
     2   1 0 1     -0.000000     -0.000000     -0.000000      0.000000
     2   0 2 0    -12.332690    -11.401230    -11.401230     10.469769
     2   0 1 1      0.000000      0.000000      0.000000      0.000000
     2   0 0 2    -12.332690    -11.401230    -11.401230     10.469769


------------------------------------------------------------
EAF file 0: "./SiH4.xyz.aoints.0" size=34078720 bytes
------------------------------------------------------------
               write      read    awrite     aread      wait
               -----      ----    ------     -----      ----
     calls:       65         5         0       320       320
   data(b): 3.41e+07  2.62e+06  0.00e+00  1.68e+08
   time(s): 0.00e+00  0.00e+00  0.00e+00  0.00e+00  0.00e+00
rate(mb/s): 0.00e+00  0.00e+00
------------------------------------------------------------


 Parallel integral file used     126 records with       0 large values


 Task  times  cpu:        3.1s     wall:        3.4s


                                NWChem Input Module
                                -------------------


 Summary of allocated global arrays
-----------------------------------
  No active global arrays



                         GA Statistics for process    0
                         ------------------------------

       create   destroy   get      put      acc     scatter   gather  read&inc
calls:  188      188     2.38e+04 9956     1.29e+04    0        0      877     
number of processes/call 1.00e+00 1.00e+00 1.00e+00 0.00e+00 0.00e+00
bytes total:             8.10e+07 2.66e+07 8.33e+07 0.00e+00 0.00e+00 7.02e+03
bytes remote:            0.00e+00 0.00e+00 0.00e+00 0.00e+00 0.00e+00 0.00e+00
Max memory consumed for GA by this process: 5191992 bytes

MA_summarize_allocated_blocks: starting scan ...
MA_summarize_allocated_blocks: scan completed: 0 heap blocks, 0 stack blocks
MA usage statistics:

	allocation statistics:
					      heap	     stack
					      ----	     -----
	current number of blocks	         0	         0
	maximum number of blocks	        24	        55
	current total bytes		         0	         0
	maximum total bytes		  34967408	  24114280
	maximum total K-bytes		     34968	     24115
	maximum total M-bytes		        35	        25


                                     CITATION
                                     --------
                Please cite the following reference when publishing
                           results obtained with NWChem:

                 M. Valiev, E.J. Bylaska, N. Govind, K. Kowalski,
              T.P. Straatsma, H.J.J. van Dam, D. Wang, J. Nieplocha,
                        E. Apra, T.L. Windus, W.A. de Jong
                 "NWChem: a comprehensive and scalable open-source
                  solution for large scale molecular simulations"
                      Comput. Phys. Commun. 181, 1477 (2010)
                           doi:10.1016/j.cpc.2010.04.018

                                      AUTHORS
                                      -------
          E. Apra, E. J. Bylaska, W. A. de Jong, N. Govind, K. Kowalski,
       T. P. Straatsma, M. Valiev, H. J. J. van Dam, D. Wang, T. L. Windus,
        J. Hammond, J. Autschbach, K. Bhaskaran-Nair, J. Brabec, K. Lopata,
       S. A. Fischer, S. Krishnamoorthy, W. Ma, M. Klemm, O. Villa, Y. Chen,
    V. Anisimov, F. Aquino, S. Hirata, M. T. Hackler, T. Risthaus, M. Malagoli,
       A. Marenich, A. Otero-de-la-Roza, J. Mullin, P. Nichols, R. Peverati,
     J. Pittner, Y. Zhao, P.-D. Fan, A. Fonari, M. Williamson, R. J. Harrison,
       J. R. Rehr, M. Dupuis, D. Silverstein, D. M. A. Smith, J. Nieplocha,
        V. Tipparaju, M. Krishnan, B. E. Van Kuiken, A. Vazquez-Mayagoitia,
        L. Jensen, M. Swart, Q. Wu, T. Van Voorhis, A. A. Auer, M. Nooijen,
      L. D. Crosby, E. Brown, G. Cisneros, G. I. Fann, H. Fruchtl, J. Garza,
        K. Hirao, R. A. Kendall, J. A. Nichols, K. Tsemekhman, K. Wolinski,
     J. Anchell, D. E. Bernholdt, P. Borowski, T. Clark, D. Clerc, H. Dachsel,
   M. J. O. Deegan, K. Dyall, D. Elwood, E. Glendening, M. Gutowski, A. C. Hess,
         J. Jaffe, B. G. Johnson, J. Ju, R. Kobayashi, R. Kutteh, Z. Lin,
   R. Littlefield, X. Long, B. Meng, T. Nakajima, S. Niu, L. Pollack, M. Rosing,
   K. Glaesemann, G. Sandrone, M. Stave, H. Taylor, G. Thomas, J. H. van Lenthe,
                               A. T. Wong, Z. Zhang.

 Total times  cpu:        3.1s     wall:        3.5s
