[1537885370.554966] [r8n3:29542:0]         sys.c:744  MXM  WARN  Conflicting CPU frequencies detected, using: 2499.99
[1537885370.561144] [r8n3:29542:0]         mxm.c:196  MXM  WARN  The 'ulimit -s' on the system is set to 'unlimited'. This may have negative performance implications. Please set the stack size to the default value (10240) 
[1537885370.563362] [r8n3:29542:0]         mxm.c:196  MXM  WARN  The 'ulimit -s' on the system is set to 'unlimited'. This may have negative performance implications. Please set the stack size to the default value (10240) 
 argument  1 = /storage/home/bikashp/nwchem_run/rabeet/pa8/nwrevtpss/SiH5+.xyz.nw
                                         
                                         


              Northwest Computational Chemistry Package (NWChem) 6.6
              ------------------------------------------------------


                    Environmental Molecular Sciences Laboratory
                       Pacific Northwest National Laboratory
                                Richland, WA 99352

                              Copyright (c) 1994-2015
                       Pacific Northwest National Laboratory
                            Battelle Memorial Institute

             NWChem is an open-source computational chemistry package
                        distributed under the terms of the
                      Educational Community License (ECL) 2.0
             A copy of the license is included with this distribution
                              in the LICENSE.TXT file

                                  ACKNOWLEDGMENT
                                  --------------

            This software and its documentation were developed at the
            EMSL at Pacific Northwest National Laboratory, a multiprogram
            national laboratory, operated for the U.S. Department of Energy
            by Battelle under Contract Number DE-AC05-76RL01830. Support
            for this work was provided by the Department of Energy Office
            of Biological and Environmental Research, Office of Basic
            Energy Sciences, and the Office of Advanced Scientific Computing.


           Job information
           ---------------

    hostname        = r8n3.niserhpc.org
    program         = /home/bikashp/Code/nwchem-6.6_revtpss/bin/LINUX64/nwchem
    date            = Tue Sep 25 19:52:50 2018

    compiled        = Tue_Sep_25_17:05:19_2018
    source          = /home/bikashp/Code/nwchem-6.6_revtpss
    nwchem branch   = 6.6
    nwchem revision = 27746
    ga revision     = 10594
    input           = /storage/home/bikashp/nwchem_run/rabeet/pa8/nwrevtpss/SiH5+.xyz.nw
    prefix          = SiH5+.xyz.
    data base       = ./SiH5+.xyz.db
    status          = startup
    nproc           =        1
    time left       =     -1s



           Memory information
           ------------------

    heap     =   13107196 doubles =    100.0 Mbytes
    stack    =   13107201 doubles =    100.0 Mbytes
    global   =   26214400 doubles =    200.0 Mbytes (distinct from heap & stack)
    total    =   52428797 doubles =    400.0 Mbytes
    verify   = yes
    hardfail = no 


           Directory information
           ---------------------

  0 permanent = .
  0 scratch   = .




                                NWChem Input Module
                                -------------------



 Scaling coordinates for geometry "geometry" by  1.889725989
 (inverse scale =  0.529177249)

 C1  symmetry detected

          ------
          auto-z
          ------
  autoz: The atoms group into disjoint clusters
 cluster   1:    1    4    5    6
 cluster   2:    2    3
 Connecting clusters   1   2 via atoms    1    3 r = 1.87
  autoz: regenerating connections with new bonds


                             Geometry "geometry" -> ""
                             -------------------------

 Output coordinates in angstroms (scale by  1.889725989 to convert to a.u.)

  No.       Tag          Charge          X              Y              Z
 ---- ---------------- ---------- -------------- -------------- --------------
    1 Si                  14.0000    -0.00016878     0.17274319     0.00297868
    2 H                    1.0000     0.38227361    -1.65776771    -0.03773774
    3 H                    1.0000    -0.37864450    -1.65763525    -0.03964646
    4 H                    1.0000     0.02908427     0.36771692    -1.44663999
    5 H                    1.0000    -1.27612897     0.26303700     0.71578599
    6 H                    1.0000     1.24577855     0.26624442     0.76653671

      Atomic Mass 
      ----------- 

      Si                27.976930
      H                  1.007825


 Effective nuclear repulsion energy (a.u.)      25.7236340518

            Nuclear Dipole moment (a.u.) 
            ----------------------------
        X                 Y               Z
 ---------------- ---------------- ----------------
     0.0000000000    -0.0000000000     0.0000000000



                                Z-matrix (autoz)
                                -------- 

 Units are Angstrom for bonds and degrees for angles

      Type          Name      I     J     K     L     M      Value
      ----------- --------  ----- ----- ----- ----- ----- ----------
    1 Stretch                  1     3                       1.86958
    2 Stretch                  1     4                       1.46296
    3 Stretch                  1     5                       1.46435
    4 Stretch                  1     6                       1.46429
    5 Stretch                  2     3                       0.76092
    6 Bend                     1     3     2                78.32708
    7 Bend                     3     1     4                96.42687
    8 Bend                     3     1     5                83.97697
    9 Bend                     3     1     6               104.27974
   10 Bend                     4     1     5               119.44177
   11 Bend                     4     1     6               119.41760
   12 Bend                     5     1     6               118.92430
   13 Torsion                  2     3     1     4          90.30382
   14 Torsion                  2     3     1     5        -150.65042
   15 Torsion                  2     3     1     6         -32.29178


            XYZ format geometry
            -------------------
     6
 geometry
 Si                   -0.00016878     0.17274319     0.00297868
 H                     0.38227361    -1.65776771    -0.03773774
 H                    -0.37864450    -1.65763525    -0.03964646
 H                     0.02908427     0.36771692    -1.44663999
 H                    -1.27612897     0.26303700     0.71578599
 H                     1.24577855     0.26624442     0.76653671

 ==============================================================================
                                internuclear distances
 ------------------------------------------------------------------------------
       center one      |      center two      | atomic units |  angstroms
 ------------------------------------------------------------------------------
    4 H                |   1 Si               |     2.76460  |     1.46296
    5 H                |   1 Si               |     2.76722  |     1.46435
    6 H                |   1 Si               |     2.76711  |     1.46429
 ------------------------------------------------------------------------------
                         number of included internuclear distances:          3
 ==============================================================================



 ==============================================================================
                                 internuclear angles
 ------------------------------------------------------------------------------
        center 1       |       center 2       |       center 3       |  degrees
 ------------------------------------------------------------------------------
    4 H                |   1 Si               |   5 H                |   119.44
    4 H                |   1 Si               |   6 H                |   119.42
    5 H                |   1 Si               |   6 H                |   118.92
 ------------------------------------------------------------------------------
                            number of included internuclear angles:          3
 ==============================================================================





 Summary of "ao basis" -> "" (cartesian)
 ------------------------------------------------------------------------------
       Tag                 Description            Shells   Functions and Types
 ---------------- ------------------------------  ------  ---------------------
 *                     6-311++G(3df,3pd)              on all atoms 



                                 NWChem DFT Module
                                 -----------------


                      Basis "ao basis" -> "ao basis" (cartesian)
                      -----
  Si (Silicon)
  ------------
            Exponent  Coefficients 
       -------------- ---------------------------------------------------------
  1 S  6.93792300E+04  0.000757
  1 S  1.03549400E+04  0.005932
  1 S  2.33387960E+03  0.031088
  1 S  6.57142950E+02  0.124967
  1 S  2.14301130E+02  0.386897
  1 S  7.76291680E+01  0.554888

  2 S  7.76291680E+01  0.177881
  2 S  3.06308070E+01  0.627765
  2 S  1.28012950E+01  0.247623

  3 S  3.92686600E+00  1.000000

  4 S  1.45234300E+00  1.000000

  5 S  2.56234000E-01  1.000000

  6 S  9.42790000E-02  1.000000

  7 P  3.35483190E+02  0.008866
  7 P  7.89003660E+01  0.068299
  7 P  2.49881500E+01  0.290958
  7 P  9.21971100E+00  0.732117

  8 P  3.62114000E+00  0.619879
  8 P  1.45131000E+00  0.439148

  9 P  5.04977000E-01  1.000000

 10 P  1.86317000E-01  1.000000

 11 P  6.54320000E-02  1.000000

 12 S  3.31000000E-02  1.000000

 13 P  3.31000000E-02  1.000000

 14 D  1.80000000E+00  1.000000

 15 D  4.50000000E-01  1.000000

 16 D  1.12500000E-01  1.000000

 17 F  3.20000000E-01  1.000000

  H (Hydrogen)
  ------------
            Exponent  Coefficients 
       -------------- ---------------------------------------------------------
  1 S  3.38650000E+01  0.025494
  1 S  5.09479000E+00  0.190373
  1 S  1.15879000E+00  0.852161

  2 S  3.25840000E-01  1.000000

  3 S  1.02741000E-01  1.000000

  4 S  3.60000000E-02  1.000000

  5 P  3.00000000E+00  1.000000

  6 P  7.50000000E-01  1.000000

  7 P  1.87500000E-01  1.000000

  8 D  1.00000000E+00  1.000000



 Summary of "ao basis" -> "ao basis" (cartesian)
 ------------------------------------------------------------------------------
       Tag                 Description            Shells   Functions and Types
 ---------------- ------------------------------  ------  ---------------------
 Si                    6-311++G(3df,3pd)            17       53   7s6p3d1f
 H                     6-311++G(3df,3pd)             8       19   4s3p1d




 Summary of "ao basis" -> "ao basis" (cartesian)
 ------------------------------------------------------------------------------
       Tag                 Description            Shells   Functions and Types
 ---------------- ------------------------------  ------  ---------------------
 Si                    6-311++G(3df,3pd)            17       53   7s6p3d1f
 H                     6-311++G(3df,3pd)             8       19   4s3p1d


  Caching 1-el integrals 

            General Information
            -------------------
          SCF calculation type: DFT
          Wavefunction type:  closed shell.
          No. of atoms     :     6
          No. of electrons :    18
           Alpha electrons :     9
            Beta electrons :     9
          Charge           :     1
          Spin multiplicity:     1
          Use of symmetry is: off; symmetry adaption is: off
          Maximum number of iterations: ***
          AO basis - number of functions:   148
                     number of shells:    57
          Convergence on energy requested: 1.00D-06
          Convergence on density requested: 1.00D-05
          Convergence on gradient requested: 5.00D-04

              XC Information
              --------------
                  TPSS metaGGA Exchange Functional  1.000          
             TPSS03 metaGGA Correlation Functional  1.000          

             Grid Information
             ----------------
          Grid used for XC integration:  medium    
          Radial quadrature: Mura-Knowles        
          Angular quadrature: Lebedev. 
          Tag              B.-S. Rad. Rad. Pts. Rad. Cut. Ang. Pts.
          ---              ---------- --------- --------- ---------
          Si                  1.10       88          12.0       590
          H                   0.35       45          12.0       434
          Grid pruning is: on 
          Number of quadrature shells:   313
          Spatial weights used:  Erf1

          Convergence Information
          -----------------------
          Convergence aids based upon iterative change in 
          total energy or number of iterations. 
          Levelshifting, if invoked, occurs when the 
          HOMO/LUMO gap drops below (HL_TOL): 1.00D-02
          DIIS, if invoked, will attempt to extrapolate 
          using up to (NFOCK): 10 stored Fock matrices.

                    Damping( 0%)  Levelshifting(0.5)       DIIS
                  --------------- ------------------- ---------------
          dE  on:    start            ASAP                start   
          dE off:    2 iters        *** iters           *** iters 


      Screening Tolerance Information
      -------------------------------
          Density screening/tol_rho: 1.00D-10
          AO Gaussian exp screening on grid/accAOfunc:  14
          CD Gaussian exp screening on grid/accCDfunc:  20
          XC Gaussian exp screening on grid/accXCfunc:  20
          Schwarz screening/accCoul: 1.00D-08


      Superposition of Atomic Density Guess
      -------------------------------------

 Sum of atomic energies:        -291.33584498

 Renormalizing density from      19.00 to     18

      Non-variational initial energy
      ------------------------------

 Total energy =    -281.676037
 1-e energy   =    -429.744094
 2-e energy   =     122.344423
 HOMO         =      -0.811349
 LUMO         =      -0.375757

   Time after variat. SCF:      1.2
   Time prior to 1st pass:      1.2

 Integral file          = ./SiH5+.xyz.aoints.0
 Record size in doubles =    65536    No. of integs per rec  =    43688
 Max. records in memory =        0    Max. records in file   = ********
 No. of bits per label  =        8    No. of bits per value  =       64


 #quartets = 1.310D+06 #integrals = 5.522D+07 #direct =  0.0% #cached =100.0%


 Grid_pts file          = ./SiH5+.xyz.gridpts.0
 Record size in doubles =  12289        No. of grid_pts per rec  =   3070
 Max. records in memory =     68        Max. recs in file   = 995287576


           Memory utilization after 1st SCF pass: 
           Heap Space remaining (MW):       12.27            12266740
          Stack Space remaining (MW):       13.11            13106284

   convergence    iter        energy       DeltaE   RMS-Dens  Diis-err    time
 ---------------- ----- ----------------- --------- --------- ---------  ------
 d= 0,ls=0.0,diis     1   -291.9147778366 -3.18D+02  1.23D-02  4.54D+00    16.6
 d= 0,ls=0.0,diis     2   -292.0041810995 -8.94D-02  3.50D-03  1.66D+00    23.5
 d= 0,ls=0.0,diis     3   -292.0690823084 -6.49D-02  4.51D-04  2.68D-03    30.2
 d= 0,ls=0.0,diis     4   -292.0693601994 -2.78D-04  9.20D-05  3.07D-04    37.1
 d= 0,ls=0.0,diis     5   -292.0694269491 -6.67D-05  1.81D-05  1.24D-06    44.1
  Resetting Diis
 d= 0,ls=0.0,diis     6   -292.0694280364 -1.09D-06  2.18D-06  5.96D-08    50.6
 d= 0,ls=0.0,diis     7   -292.0694279494  8.70D-08  5.57D-07  5.66D-09    57.4


         Total DFT energy =     -292.069427949378
      One electron energy =     -449.467849825981
           Coulomb energy =      154.059319333618
          Exchange energy =      -21.752337294144
       Correlation energy =       -0.632194214663
 Nuclear repulsion energy =       25.723634051793

 Numeric. integr. density =       17.999988844788

     Total iterative time =     56.2s



                       DFT Final Molecular Orbital Analysis
                       ------------------------------------

 Vector    1  Occ=2.000000D+00  E=-6.601610D+01
              MO Center= -1.7D-04,  1.7D-01,  3.0D-03, r^2= 4.7D-03
   Bfn.  Coefficient  Atom+Function         Bfn.  Coefficient  Atom+Function  
  ----- ------------  ---------------      ----- ------------  ---------------
     2      0.645576  1 Si s                  1      0.418498  1 Si s          

 Vector    2  Occ=2.000000D+00  E=-5.426490D+00
              MO Center= -1.7D-04,  1.7D-01,  3.0D-03, r^2= 1.1D-01
   Bfn.  Coefficient  Atom+Function         Bfn.  Coefficient  Atom+Function  
  ----- ------------  ---------------      ----- ------------  ---------------
     3      0.551528  1 Si s                  4      0.547170  1 Si s          
     2     -0.305298  1 Si s          

 Vector    3  Occ=2.000000D+00  E=-3.792668D+00
              MO Center= -1.7D-04,  1.7D-01,  3.0D-03, r^2= 1.0D-01
   Bfn.  Coefficient  Atom+Function         Bfn.  Coefficient  Atom+Function  
  ----- ------------  ---------------      ----- ------------  ---------------
    11      0.689517  1 Si py                 8      0.401102  1 Si py         

 Vector    4  Occ=2.000000D+00  E=-3.780189D+00
              MO Center= -1.6D-04,  1.7D-01,  3.0D-03, r^2= 1.0D-01
   Bfn.  Coefficient  Atom+Function         Bfn.  Coefficient  Atom+Function  
  ----- ------------  ---------------      ----- ------------  ---------------
    10      0.690025  1 Si px                 7      0.402276  1 Si px         

 Vector    5  Occ=2.000000D+00  E=-3.779982D+00
              MO Center= -1.7D-04,  1.7D-01,  3.0D-03, r^2= 1.0D-01
   Bfn.  Coefficient  Atom+Function         Bfn.  Coefficient  Atom+Function  
  ----- ------------  ---------------      ----- ------------  ---------------
    12      0.689361  1 Si pz                 9      0.401893  1 Si pz         

 Vector    6  Occ=2.000000D+00  E=-8.239534D-01
              MO Center=  3.6D-04, -8.1D-01, -1.2D-02, r^2= 1.6D+00
   Bfn.  Coefficient  Atom+Function         Bfn.  Coefficient  Atom+Function  
  ----- ------------  ---------------      ----- ------------  ---------------
     5      0.312207  1 Si s                  6      0.296944  1 Si s          
     4     -0.198120  1 Si s                 55      0.175696  2 H  s          
    74      0.175904  3 H  s          

 Vector    7  Occ=2.000000D+00  E=-6.961107D-01
              MO Center=  8.9D-04, -3.7D-01, -1.8D-02, r^2= 2.4D+00
   Bfn.  Coefficient  Atom+Function         Bfn.  Coefficient  Atom+Function  
  ----- ------------  ---------------      ----- ------------  ---------------
     5      0.365214  1 Si s                 55     -0.197020  2 H  s          
    74     -0.196905  3 H  s                  4     -0.193062  1 Si s          
     6      0.187812  1 Si s          

 Vector    8  Occ=2.000000D+00  E=-5.967976D-01
              MO Center= -3.5D-02,  2.0D-01,  4.8D-01, r^2= 2.0D+00
   Bfn.  Coefficient  Atom+Function         Bfn.  Coefficient  Atom+Function  
  ----- ------------  ---------------      ----- ------------  ---------------
   112      0.251634  5 H  s                131     -0.243949  6 H  s          
    13     -0.211592  1 Si px         

 Vector    9  Occ=2.000000D+00  E=-5.936750D-01
              MO Center=  3.4D-02,  2.6D-01, -4.7D-01, r^2= 2.0D+00
   Bfn.  Coefficient  Atom+Function         Bfn.  Coefficient  Atom+Function  
  ----- ------------  ---------------      ----- ------------  ---------------
    93      0.281109  4 H  s                 15     -0.205220  1 Si pz         
    18     -0.170391  1 Si pz                92      0.165066  4 H  s          
   131     -0.151112  6 H  s          

 Vector   10  Occ=0.000000D+00  E=-3.165957D-01
              MO Center= -2.7D-04,  2.7D-01,  4.0D-03, r^2= 2.7D+00
   Bfn.  Coefficient  Atom+Function         Bfn.  Coefficient  Atom+Function  
  ----- ------------  ---------------      ----- ------------  ---------------
    17      0.582420  1 Si py                20      0.373472  1 Si py         
    14      0.230940  1 Si py                11     -0.170253  1 Si py         
    56      0.166382  2 H  s                 75      0.165782  3 H  s          

 Vector   11  Occ=0.000000D+00  E=-2.427785D-01
              MO Center=  8.3D-03, -8.9D-01, -1.3D-01, r^2= 3.4D+00
   Bfn.  Coefficient  Atom+Function         Bfn.  Coefficient  Atom+Function  
  ----- ------------  ---------------      ----- ------------  ---------------
    57      0.583229  2 H  s                 76     -0.583871  3 H  s          
    56      0.544099  2 H  s                 75     -0.545668  3 H  s          
    16      0.330200  1 Si px               113      0.319793  5 H  s          
    39     -0.315330  1 Si dxy              132     -0.315030  6 H  s          
    19      0.281888  1 Si px                55      0.259332  2 H  s          

 Vector   12  Occ=0.000000D+00  E=-2.197814D-01
              MO Center= -1.4D-03, -2.9D-01,  1.3D-02, r^2= 5.5D+00
   Bfn.  Coefficient  Atom+Function         Bfn.  Coefficient  Atom+Function  
  ----- ------------  ---------------      ----- ------------  ---------------
     6      1.172059  1 Si s                 22      0.943812  1 Si s          
    95     -0.414819  4 H  s                114     -0.406935  5 H  s          
   133     -0.403905  6 H  s                  5      0.399026  1 Si s          
    94     -0.369514  4 H  s                113     -0.341044  5 H  s          
   132     -0.338504  6 H  s                  4     -0.223038  1 Si s          

 Vector   13  Occ=0.000000D+00  E=-2.073417D-01
              MO Center= -2.3D-02, -1.4D-01,  3.8D-01, r^2= 4.0D+00
   Bfn.  Coefficient  Atom+Function         Bfn.  Coefficient  Atom+Function  
  ----- ------------  ---------------      ----- ------------  ---------------
    95      0.856966  4 H  s                 18      0.689898  1 Si pz         
    25      0.685867  1 Si pz                94      0.592490  4 H  s          
    21      0.516577  1 Si pz               133     -0.428929  6 H  s          
   114     -0.403056  5 H  s                132     -0.303963  6 H  s          
    42     -0.287391  1 Si dyz              113     -0.285173  5 H  s          

 Vector   14  Occ=0.000000D+00  E=-1.774909D-01
              MO Center=  1.3D-02,  3.2D-03, -2.0D-01, r^2= 5.1D+00
   Bfn.  Coefficient  Atom+Function         Bfn.  Coefficient  Atom+Function  
  ----- ------------  ---------------      ----- ------------  ---------------
    57      1.363610  2 H  s                 76     -1.363830  3 H  s          
    23     -1.100247  1 Si px               114     -1.026420  5 H  s          
   133      1.006661  6 H  s                 16     -0.621557  1 Si px         
    56      0.490105  2 H  s                 75     -0.488901  3 H  s          
    40      0.396488  1 Si dxz               19     -0.354387  1 Si px         

 Vector   15  Occ=0.000000D+00  E=-1.337734D-01
              MO Center=  1.5D-02, -2.4D-01, -4.3D-01, r^2= 5.0D+00
   Bfn.  Coefficient  Atom+Function         Bfn.  Coefficient  Atom+Function  
  ----- ------------  ---------------      ----- ------------  ---------------
    42      0.910561  1 Si dyz               95      0.737102  4 H  s          
    22      0.582968  1 Si s                133     -0.509251  6 H  s          
   114     -0.483904  5 H  s                 94     -0.394976  4 H  s          
    38     -0.318093  1 Si dxx               43      0.311252  1 Si dzz        
    36      0.254468  1 Si dyz        

 Vector   16  Occ=0.000000D+00  E=-1.305310D-01
              MO Center= -8.1D-05,  5.4D-01,  3.2D-02, r^2= 1.3D+01
   Bfn.  Coefficient  Atom+Function         Bfn.  Coefficient  Atom+Function  
  ----- ------------  ---------------      ----- ------------  ---------------
    24      0.735709  1 Si py                20     -0.536261  1 Si py         
   114      0.507229  5 H  s                133      0.508523  6 H  s          
    95      0.418653  4 H  s                 57     -0.349147  2 H  s          
    76     -0.349333  3 H  s                113     -0.185325  5 H  s          
   132     -0.185308  6 H  s                 14     -0.169732  1 Si py         

 Vector   17  Occ=0.000000D+00  E=-1.222347D-01
              MO Center= -3.0D-02,  3.0D-01,  3.3D-01, r^2= 1.3D+01
   Bfn.  Coefficient  Atom+Function         Bfn.  Coefficient  Atom+Function  
  ----- ------------  ---------------      ----- ------------  ---------------
    23      1.093157  1 Si px                19     -0.738254  1 Si px         
   114     -0.348335  5 H  s                133      0.336059  6 H  s          
    39      0.232144  1 Si dxy               13     -0.195056  1 Si px         
   132      0.195879  6 H  s                113     -0.193752  5 H  s          

 Vector   18  Occ=0.000000D+00  E=-1.196295D-01
              MO Center=  1.4D-02,  3.1D-01,  3.5D-01, r^2= 1.2D+01
   Bfn.  Coefficient  Atom+Function         Bfn.  Coefficient  Atom+Function  
  ----- ------------  ---------------      ----- ------------  ---------------
    25      1.076131  1 Si pz                21     -0.739865  1 Si pz         
    94     -0.510294  4 H  s                  6      0.451664  1 Si s          
    42      0.449797  1 Si dyz               76      0.243724  3 H  s          
    57      0.241728  2 H  s                133      0.217900  6 H  s          
   114      0.207895  5 H  s                 95     -0.203730  4 H  s          

 Vector   19  Occ=0.000000D+00  E=-1.159439D-01
              MO Center=  7.4D-03, -1.0D+00, -4.1D-01, r^2= 1.0D+01
   Bfn.  Coefficient  Atom+Function         Bfn.  Coefficient  Atom+Function  
  ----- ------------  ---------------      ----- ------------  ---------------
     6      1.496747  1 Si s                 22     -1.027670  1 Si s          
    76      0.929262  3 H  s                 57      0.922734  2 H  s          
   113     -0.836098  5 H  s                132     -0.839850  6 H  s          
    94     -0.616876  4 H  s                 56     -0.575697  2 H  s          
    75     -0.573022  3 H  s                 24      0.512153  1 Si py         

 Vector   20  Occ=0.000000D+00  E=-6.765653D-02
              MO Center=  2.7D-04,  1.2D-01,  1.7D-03, r^2= 1.7D+01
   Bfn.  Coefficient  Atom+Function         Bfn.  Coefficient  Atom+Function  
  ----- ------------  ---------------      ----- ------------  ---------------
    24      3.308340  1 Si py                57      2.280485  2 H  s          
    76      2.268313  3 H  s                 22     -2.079605  1 Si s          
   114     -1.084198  5 H  s                133     -1.068252  6 H  s          
     6     -1.059793  1 Si s                 20     -1.015542  1 Si py         
   113      0.875123  5 H  s                132      0.873310  6 H  s          

 Vector   21  Occ=0.000000D+00  E=-5.611449D-02
              MO Center=  1.5D-03, -8.6D-01, -3.8D-02, r^2= 1.7D+01
   Bfn.  Coefficient  Atom+Function         Bfn.  Coefficient  Atom+Function  
  ----- ------------  ---------------      ----- ------------  ---------------
    57      4.711100  2 H  s                 76     -4.710673  3 H  s          
   114      4.499654  5 H  s                133     -4.411167  6 H  s          
    23      2.958940  1 Si px               113     -1.649717  5 H  s          
   132      1.627117  6 H  s                 19     -1.599203  1 Si px         
    56     -1.386912  2 H  s                 75      1.388733  3 H  s          

 Vector   22  Occ=0.000000D+00  E=-5.099912D-02
              MO Center= -1.4D-02,  1.3D-01,  2.7D-01, r^2= 1.7D+01
   Bfn.  Coefficient  Atom+Function         Bfn.  Coefficient  Atom+Function  
  ----- ------------  ---------------      ----- ------------  ---------------
    95      6.999943  4 H  s                 25      5.516360  1 Si pz         
   133     -3.706660  6 H  s                114     -3.492829  5 H  s          
    94     -2.516611  4 H  s                 21     -2.490971  1 Si pz         
   132      1.259180  6 H  s                113      1.182519  5 H  s          
    18     -1.079407  1 Si pz                24     -0.350816  1 Si py         

 Vector   23  Occ=0.000000D+00  E=-4.305114D-02
              MO Center=  1.3D-02, -3.8D-01, -2.4D-01, r^2= 1.7D+01
   Bfn.  Coefficient  Atom+Function         Bfn.  Coefficient  Atom+Function  
  ----- ------------  ---------------      ----- ------------  ---------------
    57      7.292059  2 H  s                 76     -7.312998  3 H  s          
    23     -5.683126  1 Si px               114     -4.545847  5 H  s          
   133      4.418760  6 H  s                 19      2.667471  1 Si px         
    56     -2.648170  2 H  s                 75      2.650790  3 H  s          
   113      1.974465  5 H  s                132     -1.927568  6 H  s          

 Vector   24  Occ=0.000000D+00  E=-3.578906D-02
              MO Center=  2.6D-03, -7.0D-03, -3.6D-02, r^2= 1.9D+01
   Bfn.  Coefficient  Atom+Function         Bfn.  Coefficient  Atom+Function  
  ----- ------------  ---------------      ----- ------------  ---------------
    22     23.506276  1 Si s                 95     -6.713068  4 H  s          
   133     -6.388526  6 H  s                114     -6.348573  5 H  s          
    57     -2.502625  2 H  s                 76     -2.447220  3 H  s          
    24     -1.991348  1 Si py                 6     -1.470771  1 Si s          
    43     -0.509052  1 Si dzz                5     -0.450633  1 Si s          

 Vector   25  Occ=0.000000D+00  E= 7.866362D-03
              MO Center= -3.5D-03, -3.0D-01,  6.6D-02, r^2= 6.1D+00
   Bfn.  Coefficient  Atom+Function         Bfn.  Coefficient  Atom+Function  
  ----- ------------  ---------------      ----- ------------  ---------------
    56      3.402978  2 H  s                 75     -3.406782  3 H  s          
    39      1.886126  1 Si dxy               57     -1.368260  2 H  s          
    76      1.359526  3 H  s                 40      0.881745  1 Si dxz        
   113      0.877022  5 H  s                132     -0.868187  6 H  s          
    19      0.853531  1 Si px                55      0.471375  2 H  s          

 Vector   26  Occ=0.000000D+00  E= 3.690877D-02
              MO Center= -1.4D-03,  6.8D-01,  1.6D-02, r^2= 1.2D+01
   Bfn.  Coefficient  Atom+Function         Bfn.  Coefficient  Atom+Function  
  ----- ------------  ---------------      ----- ------------  ---------------
     6      3.534176  1 Si s                 17      3.495027  1 Si py         
    20     -2.254179  1 Si py               113     -2.091655  5 H  s          
   132     -2.085660  6 H  s                 94     -1.764344  4 H  s          
    24      1.288943  1 Si py                41     -1.168680  1 Si dyy        
    45     -1.130110  1 Si fxxy              52     -1.118704  1 Si fyzz       

 Vector   27  Occ=0.000000D+00  E= 4.790610D-02
              MO Center=  2.8D-03,  2.0D-01, -4.3D-02, r^2= 1.3D+01
   Bfn.  Coefficient  Atom+Function         Bfn.  Coefficient  Atom+Function  
  ----- ------------  ---------------      ----- ------------  ---------------
    21      4.666852  1 Si pz                18     -3.835336  1 Si pz         
    25     -2.431105  1 Si pz                94      1.294760  4 H  s          
    53      1.260882  1 Si fzzz              46      1.245841  1 Si fxxz       
    51      1.207273  1 Si fyyz              15      0.700043  1 Si pz         
   132     -0.564558  6 H  s                113     -0.525546  5 H  s          

 Vector   28  Occ=0.000000D+00  E= 5.039845D-02
              MO Center= -3.8D-03,  3.5D-01,  5.1D-02, r^2= 1.3D+01
   Bfn.  Coefficient  Atom+Function         Bfn.  Coefficient  Atom+Function  
  ----- ------------  ---------------      ----- ------------  ---------------
    16      4.193512  1 Si px                19     -4.060865  1 Si px         
    23      2.457519  1 Si px                44     -1.311221  1 Si fxxx       
    49     -1.309642  1 Si fxzz              47     -1.289911  1 Si fxyy       
    57     -1.290277  2 H  s                 76      1.292586  3 H  s          
    56      1.120030  2 H  s                 75     -1.119237  3 H  s          

 Vector   29  Occ=0.000000D+00  E= 7.447435D-02
              MO Center=  1.4D-02, -1.3D-01, -2.6D-01, r^2= 6.5D+00
   Bfn.  Coefficient  Atom+Function         Bfn.  Coefficient  Atom+Function  
  ----- ------------  ---------------      ----- ------------  ---------------
    94      6.273055  4 H  s                 21      4.205890  1 Si pz         
    18      3.987399  1 Si pz               132     -3.255649  6 H  s          
   113     -3.065240  5 H  s                 95     -2.546214  4 H  s          
    38      2.014842  1 Si dxx               25     -1.872070  1 Si pz         
    43     -1.861337  1 Si dzz               42      1.459309  1 Si dyz        

 Vector   30  Occ=0.000000D+00  E= 8.270015D-02
              MO Center=  3.5D-04,  2.4D-01, -1.6D-02, r^2= 9.0D+00
   Bfn.  Coefficient  Atom+Function         Bfn.  Coefficient  Atom+Function  
  ----- ------------  ---------------      ----- ------------  ---------------
    20      4.763142  1 Si py                22      4.637710  1 Si s          
     6      3.808523  1 Si s                 24     -3.158601  1 Si py         
    41     -2.533647  1 Si dyy               94     -2.537876  4 H  s          
   113     -2.459609  5 H  s                132     -2.448936  6 H  s          
    17     -2.020164  1 Si py                57     -1.600308  2 H  s          

 Vector   31  Occ=0.000000D+00  E= 1.194538D-01
              MO Center=  1.0D-04, -1.4D+00, -5.0D-02, r^2= 1.0D+01
   Bfn.  Coefficient  Atom+Function         Bfn.  Coefficient  Atom+Function  
  ----- ------------  ---------------      ----- ------------  ---------------
    22      6.996409  1 Si s                  6      5.337239  1 Si s          
    75     -3.378046  3 H  s                 56     -3.334886  2 H  s          
    20     -2.848594  1 Si py                95     -2.142173  4 H  s          
   114     -2.097377  5 H  s                133     -2.098144  6 H  s          
    17     -2.060433  1 Si py                94     -1.650969  4 H  s          

 Vector   32  Occ=0.000000D+00  E= 1.447889D-01
              MO Center= -6.7D-03,  3.6D-01,  6.8D-02, r^2= 9.6D+00
   Bfn.  Coefficient  Atom+Function         Bfn.  Coefficient  Atom+Function  
  ----- ------------  ---------------      ----- ------------  ---------------
    19      9.787106  1 Si px               113      9.113561  5 H  s          
   132     -8.900855  6 H  s                 40      5.650759  1 Si dxz        
    23     -4.978617  1 Si px               114     -4.270985  5 H  s          
   133      4.163734  6 H  s                 16      3.823388  1 Si px         
    75      3.485297  3 H  s                 56     -3.452463  2 H  s          

 Vector   33  Occ=0.000000D+00  E= 1.536065D-01
              MO Center=  4.0D-03,  2.4D-01, -2.1D-02, r^2= 4.9D+00
   Bfn.  Coefficient  Atom+Function         Bfn.  Coefficient  Atom+Function  
  ----- ------------  ---------------      ----- ------------  ---------------
    56      1.842225  2 H  s                 75     -1.843776  3 H  s          
    57     -1.035903  2 H  s                 76      1.023863  3 H  s          
   102      0.739495  4 H  px               123     -0.653804  5 H  pz         
   142      0.647764  6 H  pz                83     -0.481972  3 H  px         
    64     -0.472226  2 H  px                55      0.440017  2 H  s          

 Vector   34  Occ=0.000000D+00  E= 1.639205D-01
              MO Center= -2.4D-03, -3.1D-01, -6.3D-02, r^2= 6.5D+00
   Bfn.  Coefficient  Atom+Function         Bfn.  Coefficient  Atom+Function  
  ----- ------------  ---------------      ----- ------------  ---------------
    22      5.841476  1 Si s                 21     -4.096169  1 Si pz         
    94     -3.912451  4 H  s                113      2.730156  5 H  s          
   132      2.712677  6 H  s                114     -2.287916  5 H  s          
   133     -2.266242  6 H  s                 38     -1.960043  1 Si dxx        
    25      1.890262  1 Si pz                18     -1.224683  1 Si pz         

 Vector   35  Occ=0.000000D+00  E= 1.684348D-01
              MO Center=  1.0D-03, -3.1D-01, -3.9D-02, r^2= 9.2D+00
   Bfn.  Coefficient  Atom+Function         Bfn.  Coefficient  Atom+Function  
  ----- ------------  ---------------      ----- ------------  ---------------
    22     16.079117  1 Si s                 95     -3.751286  4 H  s          
    43     -3.137235  1 Si dzz                6      3.103817  1 Si s          
    24     -2.916600  1 Si py               133     -2.907801  6 H  s          
   114     -2.873065  5 H  s                 57     -2.698927  2 H  s          
    38     -2.598123  1 Si dxx               76     -2.593192  3 H  s          

 Vector   36  Occ=0.000000D+00  E= 1.754006D-01
              MO Center=  9.6D-03, -4.9D-01, -5.9D-02, r^2= 7.6D+00
   Bfn.  Coefficient  Atom+Function         Bfn.  Coefficient  Atom+Function  
  ----- ------------  ---------------      ----- ------------  ---------------
    19      6.731055  1 Si px               132     -6.529659  6 H  s          
   113      6.444088  5 H  s                 16      3.910260  1 Si px         
   133      3.862329  6 H  s                 23     -3.806348  1 Si px         
   114     -3.791039  5 H  s                 40      3.426289  1 Si dxz        
    39     -2.776739  1 Si dxy               56     -2.173524  2 H  s          

 Vector   37  Occ=0.000000D+00  E= 1.984506D-01
              MO Center=  5.5D-05,  9.4D-02, -4.7D-01, r^2= 1.0D+01
   Bfn.  Coefficient  Atom+Function         Bfn.  Coefficient  Atom+Function  
  ----- ------------  ---------------      ----- ------------  ---------------
    22      9.223302  1 Si s                 94      8.906325  4 H  s          
    95     -7.050494  4 H  s                 21      5.427431  1 Si pz         
     6     -4.455698  1 Si s                 25     -3.434903  1 Si pz         
    43     -2.307093  1 Si dzz               18      1.783018  1 Si pz         
    17      1.522969  1 Si py                41     -1.252240  1 Si dyy        

 Vector   38  Occ=0.000000D+00  E= 2.047953D-01
              MO Center= -6.1D-04, -1.5D+00,  1.3D-01, r^2= 9.1D+00
   Bfn.  Coefficient  Atom+Function         Bfn.  Coefficient  Atom+Function  
  ----- ------------  ---------------      ----- ------------  ---------------
    56     10.747580  2 H  s                 75    -10.751010  3 H  s          
    57     -6.945049  2 H  s                 76      6.975989  3 H  s          
    19     -2.214796  1 Si px                64     -2.100801  2 H  px         
    83     -2.058393  3 H  px                23      1.323104  1 Si px         
    74     -1.007836  3 H  s                 55      0.977917  2 H  s          

 Vector   39  Occ=0.000000D+00  E= 2.093142D-01
              MO Center= -9.3D-03,  2.2D-01,  4.8D-01, r^2= 9.3D+00
   Bfn.  Coefficient  Atom+Function         Bfn.  Coefficient  Atom+Function  
  ----- ------------  ---------------      ----- ------------  ---------------
    22      9.805331  1 Si s                132      5.085765  6 H  s          
   113      5.026563  5 H  s                114     -4.877464  5 H  s          
   133     -4.898565  6 H  s                 21     -4.266130  1 Si pz         
    25      2.868322  1 Si pz                 6     -2.794877  1 Si s          
    94     -2.227079  4 H  s                 38     -2.214213  1 Si dxx        

 Vector   40  Occ=0.000000D+00  E= 2.983364D-01
              MO Center= -1.1D-02, -2.4D-01,  1.8D-01, r^2= 6.1D+00
   Bfn.  Coefficient  Atom+Function         Bfn.  Coefficient  Atom+Function  
  ----- ------------  ---------------      ----- ------------  ---------------
    56      4.633907  2 H  s                 75     -4.610597  3 H  s          
    57     -1.778143  2 H  s                 76      1.768667  3 H  s          
   114      1.626207  5 H  s                133     -1.605187  6 H  s          
    16     -1.352879  1 Si px               113     -1.238772  5 H  s          
   132      1.196555  6 H  s                 23      1.155840  1 Si px         

 Vector   41  Occ=0.000000D+00  E= 3.175111D-01
              MO Center=  1.4D-02, -5.1D-02, -2.2D-01, r^2= 5.7D+00
   Bfn.  Coefficient  Atom+Function         Bfn.  Coefficient  Atom+Function  
  ----- ------------  ---------------      ----- ------------  ---------------
    21      1.768641  1 Si pz                95      1.390903  4 H  s          
    93      1.241522  4 H  s                 42     -1.017981  1 Si dyz        
    94     -0.714783  4 H  s                123     -0.706119  5 H  pz         
   142     -0.702983  6 H  pz               131     -0.618629  6 H  s          
    18     -0.600779  1 Si pz               104     -0.596308  4 H  pz         

 Vector   42  Occ=0.000000D+00  E= 3.227719D-01
              MO Center= -6.8D-03, -3.0D-01,  1.4D-01, r^2= 6.0D+00
   Bfn.  Coefficient  Atom+Function         Bfn.  Coefficient  Atom+Function  
  ----- ------------  ---------------      ----- ------------  ---------------
    17      2.555312  1 Si py                94     -2.090500  4 H  s          
   132     -1.770298  6 H  s                113     -1.753935  5 H  s          
     6      1.697303  1 Si s                 75      1.147302  3 H  s          
    56      1.138777  2 H  s                 20     -1.009596  1 Si py         
    22     -0.958095  1 Si s                122      0.954551  5 H  py         

 Vector   43  Occ=0.000000D+00  E= 3.646365D-01
              MO Center= -4.5D-03, -4.0D-01,  6.2D-03, r^2= 5.9D+00
   Bfn.  Coefficient  Atom+Function         Bfn.  Coefficient  Atom+Function  
  ----- ------------  ---------------      ----- ------------  ---------------
    39      4.124490  1 Si dxy               75     -2.509665  3 H  s          
    56      2.403216  2 H  s                 16      1.638376  1 Si px         
   113      1.421791  5 H  s                 66     -1.316924  2 H  pz         
    85      1.314064  3 H  pz                84     -1.222278  3 H  py         
    65      1.183037  2 H  py               132     -1.139943  6 H  s          

 Vector   44  Occ=0.000000D+00  E= 3.711843D-01
              MO Center=  5.6D-03, -3.2D-01,  6.0D-02, r^2= 6.0D+00
   Bfn.  Coefficient  Atom+Function         Bfn.  Coefficient  Atom+Function  
  ----- ------------  ---------------      ----- ------------  ---------------
    17      3.802560  1 Si py                 6      2.990263  1 Si s          
    42      2.665287  1 Si dyz               18      2.458552  1 Si pz         
   132     -2.382746  6 H  s                113     -2.284079  5 H  s          
    22     -1.357946  1 Si s                 52     -1.301601  1 Si fyzz       
    45     -1.280234  1 Si fxxy              50     -1.201010  1 Si fyyy       

 Vector   45  Occ=0.000000D+00  E= 4.237615D-01
              MO Center= -2.7D-03,  1.1D-01, -2.6D-01, r^2= 6.0D+00
   Bfn.  Coefficient  Atom+Function         Bfn.  Coefficient  Atom+Function  
  ----- ------------  ---------------      ----- ------------  ---------------
     6     14.293510  1 Si s                 17      6.233050  1 Si py         
   132     -5.495312  6 H  s                113     -4.696166  5 H  s          
    41     -4.449322  1 Si dyy               94     -3.278012  4 H  s          
     5     -2.285889  1 Si s                 20      2.154165  1 Si py         
    50     -2.126682  1 Si fyyy              45     -2.113879  1 Si fxxy       

 Vector   46  Occ=0.000000D+00  E= 4.266692D-01
              MO Center=  1.1D-02, -2.0D-02,  1.2D-01, r^2= 6.0D+00
   Bfn.  Coefficient  Atom+Function         Bfn.  Coefficient  Atom+Function  
  ----- ------------  ---------------      ----- ------------  ---------------
   113      5.981923  5 H  s                 40      5.907063  1 Si dxz        
   132     -5.168173  6 H  s                 16      4.592442  1 Si px         
    75     -3.339276  3 H  s                 56      3.181907  2 H  s          
    19      2.418470  1 Si px                47     -1.604027  1 Si fxyy       
   121      1.453265  5 H  px               102      1.435933  4 H  px         

 Vector   47  Occ=0.000000D+00  E= 4.487729D-01
              MO Center=  2.2D-03, -2.2D-01,  1.3D-01, r^2= 7.6D+00
   Bfn.  Coefficient  Atom+Function         Bfn.  Coefficient  Atom+Function  
  ----- ------------  ---------------      ----- ------------  ---------------
    20     -6.539653  1 Si py                 6      6.505364  1 Si s          
    94      5.601051  4 H  s                 75     -4.887178  3 H  s          
    56     -4.824057  2 H  s                 17     -4.650533  1 Si py         
    18      4.433492  1 Si pz                43     -3.650240  1 Si dzz        
    41      3.482850  1 Si dyy               21      3.262140  1 Si pz         

 Vector   48  Occ=0.000000D+00  E= 4.637553D-01
              MO Center=  1.1D-02,  2.7D-01, -4.7D-01, r^2= 5.5D+00
   Bfn.  Coefficient  Atom+Function         Bfn.  Coefficient  Atom+Function  
  ----- ------------  ---------------      ----- ------------  ---------------
    18     11.423576  1 Si pz                94     11.117510  4 H  s          
    21      5.847219  1 Si pz                 6     -5.067725  1 Si s          
   132     -4.814341  6 H  s                113     -4.509727  5 H  s          
    38      4.058412  1 Si dxx               51     -3.316689  1 Si fyyz       
    43     -3.102345  1 Si dzz               46     -3.099446  1 Si fxxz       

 Vector   49  Occ=0.000000D+00  E= 4.927919D-01
              MO Center=  6.3D-03,  5.2D-03, -7.0D-02, r^2= 3.9D+00
   Bfn.  Coefficient  Atom+Function         Bfn.  Coefficient  Atom+Function  
  ----- ------------  ---------------      ----- ------------  ---------------
    94      7.873611  4 H  s                 18      7.580947  1 Si pz         
     6     -5.086122  1 Si s                 21      4.403930  1 Si pz         
   132     -2.685871  6 H  s                 38      2.665305  1 Si dxx        
   113     -2.615520  5 H  s                 51     -2.304793  1 Si fyyz       
    46     -2.017574  1 Si fxxz             104      1.973882  4 H  pz         

 Vector   50  Occ=0.000000D+00  E= 5.023180D-01
              MO Center= -7.4D-03,  1.4D-01, -1.6D-02, r^2= 6.3D+00
   Bfn.  Coefficient  Atom+Function         Bfn.  Coefficient  Atom+Function  
  ----- ------------  ---------------      ----- ------------  ---------------
    16     16.578616  1 Si px                47     -5.719156  1 Si fxyy       
   113      5.647386  5 H  s                132     -5.616214  6 H  s          
    44     -5.327824  1 Si fxxx              49     -5.319439  1 Si fxzz       
    13     -4.338381  1 Si px                19      2.351489  1 Si px         
   133      1.590601  6 H  s                114     -1.576281  5 H  s          


 center of mass
 --------------
 x =  -0.00013397 y =   0.13710996 z =   0.00236424

 moments of inertia (a.u.)
 ------------------
          34.633338444327          -0.000000000000           0.000000000000
          -0.000000000000          23.993531155392           0.000000000000
           0.000000000000           0.000000000000          35.622829080773

     Multipole analysis of the density
     ---------------------------------

     L   x y z        total         alpha         beta         nuclear
     -   - - -        -----         -----         ----         -------
     0   0 0 0      1.000000     -9.000000     -9.000000     19.000000

     1   1 0 0      0.000156      0.000078      0.000078      0.000000
     1   0 1 0     -0.528473     -0.264236     -0.264236     -0.000000
     1   0 0 1     -0.007497     -0.003748     -0.003748      0.000000

     2   2 0 0     -9.246938    -10.820730    -10.820730     12.394523
     2   1 1 0     -0.006073     -0.003452     -0.003452      0.000831
     2   1 0 1      0.000493      0.000239      0.000239      0.000014
     2   0 2 0     -5.626932    -13.864127    -13.864127     22.101323
     2   0 1 1      0.114539      0.064601      0.064601     -0.014664
     2   0 0 2     -9.751187    -10.581825    -10.581825     11.412463


------------------------------------------------------------
EAF file 0: "./SiH5+.xyz.aoints.0" size=662700032 bytes
------------------------------------------------------------
               write      read    awrite     aread      wait
               -----      ----    ------     -----      ----
     calls:     1264         6         0      7578      7578
   data(b): 6.63e+08  3.15e+06  0.00e+00  3.97e+09
   time(s): 0.00e+00  0.00e+00  0.00e+00  0.00e+00  0.00e+00
rate(mb/s): 0.00e+00  0.00e+00
------------------------------------------------------------


 Parallel integral file used    1264 records with       0 large values


 Task  times  cpu:       57.5s     wall:       62.0s


                                NWChem Input Module
                                -------------------


 Summary of allocated global arrays
-----------------------------------
  No active global arrays



                         GA Statistics for process    0
                         ------------------------------

       create   destroy   get      put      acc     scatter   gather  read&inc
calls:  138      138     3.75e+04 7245     1.96e+04    0        0     1112     
number of processes/call 1.00e+00 1.00e+00 1.00e+00 0.00e+00 0.00e+00
bytes total:             2.08e+08 2.16e+07 1.13e+08 0.00e+00 0.00e+00 8.90e+03
bytes remote:            0.00e+00 0.00e+00 0.00e+00 0.00e+00 0.00e+00 0.00e+00
Max memory consumed for GA by this process: 6834048 bytes

MA_summarize_allocated_blocks: starting scan ...
MA_summarize_allocated_blocks: scan completed: 0 heap blocks, 0 stack blocks
MA usage statistics:

	allocation statistics:
					      heap	     stack
					      ----	     -----
	current number of blocks	         0	         0
	maximum number of blocks	        22	        51
	current total bytes		         0	         0
	maximum total bytes		   6723192	  25392232
	maximum total K-bytes		      6724	     25393
	maximum total M-bytes		         7	        26


                                     CITATION
                                     --------
                Please cite the following reference when publishing
                           results obtained with NWChem:

                 M. Valiev, E.J. Bylaska, N. Govind, K. Kowalski,
              T.P. Straatsma, H.J.J. van Dam, D. Wang, J. Nieplocha,
                        E. Apra, T.L. Windus, W.A. de Jong
                 "NWChem: a comprehensive and scalable open-source
                  solution for large scale molecular simulations"
                      Comput. Phys. Commun. 181, 1477 (2010)
                           doi:10.1016/j.cpc.2010.04.018

                                      AUTHORS
                                      -------
          E. Apra, E. J. Bylaska, W. A. de Jong, N. Govind, K. Kowalski,
       T. P. Straatsma, M. Valiev, H. J. J. van Dam, D. Wang, T. L. Windus,
        J. Hammond, J. Autschbach, K. Bhaskaran-Nair, J. Brabec, K. Lopata,
       S. A. Fischer, S. Krishnamoorthy, W. Ma, M. Klemm, O. Villa, Y. Chen,
    V. Anisimov, F. Aquino, S. Hirata, M. T. Hackler, T. Risthaus, M. Malagoli,
       A. Marenich, A. Otero-de-la-Roza, J. Mullin, P. Nichols, R. Peverati,
     J. Pittner, Y. Zhao, P.-D. Fan, A. Fonari, M. Williamson, R. J. Harrison,
       J. R. Rehr, M. Dupuis, D. Silverstein, D. M. A. Smith, J. Nieplocha,
        V. Tipparaju, M. Krishnan, B. E. Van Kuiken, A. Vazquez-Mayagoitia,
        L. Jensen, M. Swart, Q. Wu, T. Van Voorhis, A. A. Auer, M. Nooijen,
      L. D. Crosby, E. Brown, G. Cisneros, G. I. Fann, H. Fruchtl, J. Garza,
        K. Hirao, R. A. Kendall, J. A. Nichols, K. Tsemekhman, K. Wolinski,
     J. Anchell, D. E. Bernholdt, P. Borowski, T. Clark, D. Clerc, H. Dachsel,
   M. J. O. Deegan, K. Dyall, D. Elwood, E. Glendening, M. Gutowski, A. C. Hess,
         J. Jaffe, B. G. Johnson, J. Ju, R. Kobayashi, R. Kutteh, Z. Lin,
   R. Littlefield, X. Long, B. Meng, T. Nakajima, S. Niu, L. Pollack, M. Rosing,
   K. Glaesemann, G. Sandrone, M. Stave, H. Taylor, G. Thomas, J. H. van Lenthe,
                               A. T. Wong, Z. Zhang.

 Total times  cpu:       57.6s     wall:       62.2s
