  NWChem w/ OpenMP: maximum threads =  1
                                         
                                         
 
 
              Northwest Computational Chemistry Package (NWChem) 6.8
              ------------------------------------------------------
 
 
                    Environmental Molecular Sciences Laboratory
                       Pacific Northwest National Laboratory
                                Richland, WA 99352
 
                              Copyright (c) 1994-2017
                       Pacific Northwest National Laboratory
                            Battelle Memorial Institute
 
             NWChem is an open-source computational chemistry package
                        distributed under the terms of the
                      Educational Community License (ECL) 2.0
             A copy of the license is included with this distribution
                              in the LICENSE.TXT file
 
                                  ACKNOWLEDGMENT
                                  --------------

            This software and its documentation were developed at the
            EMSL at Pacific Northwest National Laboratory, a multiprogram
            national laboratory, operated for the U.S. Department of Energy
            by Battelle under Contract Number DE-AC05-76RL01830. Support
            for this work was provided by the Department of Energy Office
            of Biological and Environmental Research, Office of Basic
            Energy Sciences, and the Office of Advanced Scientific Computing.


           Job information
           ---------------

    hostname        = kohn
    program         = nwchem
    date            = Wed Sep 26 21:42:41 2018

    compiled        = Wed_Sep_26_21:04:37_2018
    source          = /home/kohn/softwares/nwchem/nwchem-6.8
    nwchem branch   = 6.8
    nwchem revision = v6.8-47-gdf6c956
    ga revision     = ga-5.6.3
    use scalapack   = F
    input           = nwchem.nw
    prefix          = Co.
    data base       = ./Co.db
    status          = startup
    nproc           =        4
    time left       =     -1s



           Memory information
           ------------------

    heap     =   13107198 doubles =    100.0 Mbytes
    stack    =   13107195 doubles =    100.0 Mbytes
    global   =   26214400 doubles =    200.0 Mbytes (distinct from heap & stack)
    total    =   52428793 doubles =    400.0 Mbytes
    verify   = yes
    hardfail = no 


           Directory information
           ---------------------
 
  0 permanent = .
  0 scratch   = .
 
 
 
 
                                NWChem Input Module
                                -------------------
 
 

 Scaling coordinates for geometry "geometry" by  1.889725989
 (inverse scale =  0.529177249)

 
 
                             Geometry "geometry" -> ""
                             -------------------------
 
 Output coordinates in angstroms (scale by  1.889725989 to convert to a.u.)
 
  No.       Tag          Charge          X              Y              Z
 ---- ---------------- ---------- -------------- -------------- --------------
    1 Co                  27.0000     0.00000000     0.00000000     0.00000000
 
      Atomic Mass 
      ----------- 
 
      Co                58.933200
 

 Effective nuclear repulsion energy (a.u.)       0.0000000000

            Nuclear Dipole moment (a.u.) 
            ----------------------------
        X                 Y               Z
 ---------------- ---------------- ----------------
     0.0000000000     0.0000000000     0.0000000000
 
 
            XYZ format geometry
            -------------------
     1
 geometry
 Co                    0.00000000     0.00000000     0.00000000
 


 Summary of "ao basis" -> "" (cartesian)
 ------------------------------------------------------------------------------
       Tag                 Description            Shells   Functions and Types
 ---------------- ------------------------------  ------  ---------------------
 *                         def2-TZVPP                 on all atoms 


 
                                 NWChem DFT Module
                                 -----------------
 
 
                      Basis "ao basis" -> "ao basis" (cartesian)
                      -----
  Co (Cobalt)
  -----------
            Exponent  Coefficients 
       -------------- ---------------------------------------------------------
  1 S  3.25817016E+05  0.000226
  1 S  4.88396365E+04  0.001750
  1 S  1.11149373E+04  0.009100
  1 S  3.14616036E+03  0.036996
  1 S  1.02443785E+03  0.120443
  1 S  3.68025088E+02  0.285987
  1 S  1.42912292E+02  0.409083
  1 S  5.64826492E+01  0.215001
 
  2 S  3.56402983E+02 -0.024767
  2 S  1.10311652E+02 -0.117021
  2 S  1.76596348E+01  0.552155
  2 S  7.50590305E+00  0.532469
 
  3 S  1.15018072E+01 -0.229425
  3 S  1.90819946E+00  0.711809
 
  4 S  7.93966969E-01  1.000000
 
  5 S  1.24444488E-01  1.000000
 
  6 S  4.44446454E-02  1.000000
 
  7 P  1.73113691E+03  0.002391
  7 P  4.09917504E+02  0.019383
  7 P  1.31456486E+02  0.090905
  7 P  4.89874397E+01  0.261467
  7 P  1.95370790E+01  0.421573
  7 P  7.92872816E+00  0.245718
 
  8 P  3.10760176E+01 -0.029438
  8 P  4.28351807E+00  0.556156
  8 P  1.70229216E+00  0.967722
 
  9 P  6.42029086E-01  1.000000
 
 10 P  2.42100000E-01  1.000000
 
 11 P  9.13200000E-02  1.000000
 
 12 D  6.81407452E+01  0.011984
 12 D  1.96852410E+01  0.073689
 12 D  6.93221288E+00  0.230855
 12 D  2.60251257E+00  0.392811
 
 13 D  9.40168373E-01  1.000000
 
 14 D  3.03814578E-01  1.000000
 
 15 D  9.80000000E-02  1.000000
 
 16 F  3.95500000E+00  1.000000
 
 17 F  9.65000000E-01  1.000000
 
 18 G  2.50000000E+00  1.000000
 


 Summary of "ao basis" -> "ao basis" (cartesian)
 ------------------------------------------------------------------------------
       Tag                 Description            Shells   Functions and Types
 ---------------- ------------------------------  ------  ---------------------
 Co                        def2-TZVPP               18       80   6s5p4d2f1g




 Summary of "ao basis" -> "ao basis" (cartesian)
 ------------------------------------------------------------------------------
       Tag                 Description            Shells   Functions and Types
 ---------------- ------------------------------  ------  ---------------------
 Co                        def2-TZVPP               18       80   6s5p4d2f1g


  Caching 1-el integrals 
 
            General Information
            -------------------
          SCF calculation type: DFT
          Wavefunction type:  spin polarized.
          No. of atoms     :     1
          No. of electrons :    27
           Alpha electrons :    15
            Beta electrons :    12
          Charge           :     0
          Spin multiplicity:     4
          Use of symmetry is: off; symmetry adaption is: off
          Maximum number of iterations: ***
          AO basis - number of functions:    80
                     number of shells:    18
          Convergence on energy requested:  1.00D-06
          Convergence on density requested:  1.00D-05
          Convergence on gradient requested:  5.00D-04
 
              XC Information
              --------------
                  TPSS metaGGA Exchange Functional  1.000          
             TPSS03 metaGGA Correlation Functional  1.000          
 
             Grid Information
             ----------------
          Grid used for XC integration:  medium    
          Radial quadrature: Mura-Knowles        
          Angular quadrature: Lebedev. 
          Tag              B.-S. Rad. Rad. Pts. Rad. Cut. Ang. Pts.
          ---              ---------- --------- --------- ---------
          Co                  1.35      112           7.0       590
          Grid pruning is: on 
          Number of quadrature shells:   112
          Spatial weights used:  Erf1
 
          Convergence Information
          -----------------------
          Convergence aids based upon iterative change in 
          total energy or number of iterations. 
          Levelshifting, if invoked, occurs when the 
          HOMO/LUMO gap drops below (HL_TOL):  1.00D-02
          DIIS, if invoked, will attempt to extrapolate 
          using up to (NFOCK): 10 stored Fock matrices.

                    Damping( 0%)  Levelshifting(0.5)       DIIS
                  --------------- ------------------- ---------------
          dE  on:    start            ASAP                start   
          dE off:    2 iters        *** iters           *** iters 

 
      Screening Tolerance Information
      -------------------------------
          Density screening/tol_rho:  1.00D-10
          AO Gaussian exp screening on grid/accAOfunc:  14
          CD Gaussian exp screening on grid/accCDfunc:  20
          XC Gaussian exp screening on grid/accXCfunc:  20
          Schwarz screening/accCoul:  1.00D-08

 
      Superposition of Atomic Density Guess
      -------------------------------------
 
 Sum of atomic energies:       -1381.30210967
 
      Non-variational initial energy
      ------------------------------

 Total energy =   -1380.343322
 1-e energy   =   -1913.537545
 2-e energy   =     533.194223
 HOMO         =      -0.386959
 LUMO         =      -0.268531
 
   Time after variat. SCF:      3.0
   Time prior to 1st pass:      3.0

 Integral file          = ./Co.aoints.0
 Record size in doubles =    65536    No. of integs per rec  =    43688
 Max. records in memory =       43    Max. records in file   =  1478997
 No. of bits per label  =        8    No. of bits per value  =       64


 #quartets = 1.471D+04 #integrals = 8.315D+05 #direct =  0.0% #cached =100.0%


File balance: exchanges=     0  moved=     0  time=   0.0


 Grid_pts file          = ./Co.gridpts.0
 Record size in doubles =  12289        No. of grid_pts per rec  =   3070
 Max. records in memory =      7        Max. recs in file   =   7887347


           Memory utilization after 1st SCF pass: 
           Heap Space remaining (MW):       10.20            10196518
          Stack Space remaining (MW):       13.11            13106460

   convergence    iter        energy       DeltaE   RMS-Dens  Diis-err    time
 ---------------- ----- ----------------- --------- --------- ---------  ------
 d= 0,ls=0.0,diis     1  -1382.6847294458 -1.38D+03  3.53D-02  4.83D-01     5.0
                                                     3.10D-02  4.02D-01
 d= 0,ls=0.5,diis     2  -1378.8969095865  3.79D+00  6.26D-03  1.29D+01     6.9
                                                     4.28D-03  1.04D+01
 d= 0,ls=0.5,diis     3  -1380.1269042897 -1.23D+00  7.12D-03  6.79D+00     8.0
                                                     5.13D-03  5.48D+00
 d= 0,ls=0.5,diis     4  -1381.0190366814 -8.92D-01  5.52D-03  2.84D+00     9.5
                                                     4.24D-03  2.29D+00
 d= 0,ls=0.5,diis     5  -1381.4335770451 -4.15D-01  3.13D-02  1.16D+00    10.7
                                                     7.11D-03  9.19D-01
 d= 0,ls=0.5,diis     6  -1382.5073637288 -1.07D+00  1.61D-03  1.64D+00    11.8
                                                     9.66D-03  1.18D+00
 d= 0,ls=0.5,diis     7  -1382.3846726678  1.23D-01  8.73D-04  2.33D+00    12.9
                                                     8.12D-03  1.73D+00
 d= 0,ls=0.5,diis     8  -1382.2281039089  1.57D-01  5.47D-04  3.24D+00    14.7
                                                     5.06D-03  2.42D+00
 d= 0,ls=0.5,diis     9  -1382.1216810582  1.06D-01  3.77D-04  3.85D+00    15.6
                                                     2.94D-03  2.83D+00
 d= 0,ls=0.5,diis    10  -1382.0703935174  5.13D-02  2.64D-04  4.13D+00    17.0
                                                     1.70D-03  3.00D+00
  Resetting Diis
 d= 0,ls=0.5,diis    11  -1382.0557249041  1.47D-02  6.23D-04  4.19D+00    18.5
                                                     1.39D-03  3.04D+00
 d= 0,ls=0.5,diis    12  -1381.9840565449  7.17D-02  3.38D-02  4.64D+00    19.8
                                                     4.23D-02  3.37D+00
 d= 0,ls=0.5,diis    13  -1379.2405530395  2.74D+00  1.33D-02  2.38D+01    21.1
                                                     1.07D-02  1.59D+01
 d= 0,ls=0.5,diis    14  -1381.9513509973 -2.71D+00  9.09D-03  4.63D+00    22.3
                                                     8.74D-03  2.76D+00
 d= 0,ls=0.5,diis    15  -1382.6689983918 -7.18D-01  3.94D-03  4.00D-01    23.2
                                                     4.50D-03  2.36D-01
 d= 0,ls=0.5,diis    16  -1382.7492522042 -8.03D-02  1.87D-03  3.61D-02    24.6
                                                     3.09D-03  2.22D-02
 d= 0,ls=0.5,diis    17  -1382.7618578478 -1.26D-02  8.49D-04  2.11D-03    25.8
                                                     2.20D-03  2.02D-03
 d= 0,ls=0.5,diis    18  -1382.7640651515 -2.21D-03  4.33D-04  4.32D-04    26.7
                                                     1.41D-03  7.99D-04
 d= 0,ls=0.5,diis    19  -1382.7648347144 -7.70D-04  2.23D-04  4.17D-04    28.5
                                                     9.82D-04  7.63D-04
 d= 0,ls=0.5,diis    20  -1382.7654245549 -5.90D-04  2.27D-04  7.38D-05    29.8
                                                     8.13D-04  3.83D-04
 d= 0,ls=0.5,diis    21  -1382.7658495471 -4.25D-04  2.95D-04  1.24D-04    32.0
                                                     6.72D-04  3.99D-04
 d= 0,ls=0.5,diis    22  -1382.7661655499 -3.16D-04  1.61D-04  6.91D-04    33.2
                                                     5.06D-04  8.22D-04
 d= 0,ls=0.5,diis    23  -1382.7665251067 -3.60D-04  2.11D-04  6.60D-04    34.5
                                                     4.70D-04  7.73D-04
 d= 0,ls=0.5,diis    24  -1382.7668001937 -2.75D-04  3.96D-04  1.13D-03    36.4
                                                     5.06D-04  1.09D-03
 d= 0,ls=0.5,diis    25  -1382.7665840151  2.16D-04  2.32D-04  4.72D-03    38.2
                                                     4.53D-04  3.53D-03
 d= 0,ls=0.5,diis    26  -1382.7666621332 -7.81D-05  1.55D-04  6.07D-03    39.5
                                                     4.21D-04  4.34D-03
 d= 0,ls=0.5,diis    27  -1382.7669308338 -2.69D-04  7.98D-05  6.11D-03    40.4
                                                     3.84D-04  4.33D-03
 d= 0,ls=0.5,diis    28  -1382.7675029344 -5.72D-04  3.64D-04  4.16D-03    41.9
                                                     4.64D-04  3.01D-03
 d= 0,ls=0.5,diis    29  -1382.7668679826  6.35D-04  1.61D-04  1.00D-02    42.9
                                                     4.09D-04  6.87D-03
 d= 0,ls=0.5,diis    30  -1382.7670010498 -1.33D-04  9.65D-05  1.04D-02    44.0
                                                     3.75D-04  7.05D-03
 d= 0,ls=0.5,diis    31  -1382.7673741398 -3.73D-04  2.22D-04  9.38D-03    45.3
                                                     3.19D-04  6.32D-03
 d= 0,ls=0.5,diis    32  -1382.7685738604 -1.20D-03  7.30D-04  3.18D-03    46.4
                                                     5.73D-04  2.30D-03
 d= 0,ls=0.5,diis    33  -1382.7660961962  2.48D-03  3.18D-04  2.06D-02    48.0
                                                     4.75D-04  1.39D-02
 d= 0,ls=0.5,diis    34  -1382.7651840320  9.12D-04  1.64D-04  2.65D-02    49.0
                                                     3.69D-04  1.75D-02
 d= 0,ls=0.5,diis    35  -1382.7665691062 -1.39D-03  1.59D-04  1.83D-02    50.3
                                                     3.20D-04  1.21D-02
 d= 0,ls=0.5,diis    36  -1382.7679188471 -1.35D-03  8.91D-05  1.11D-02    51.4
                                                     3.25D-04  7.51D-03
 d= 0,ls=0.5,diis    37  -1382.7681508323 -2.32D-04  4.50D-05  1.10D-02    52.5
                                                     3.07D-04  7.51D-03
 d= 0,ls=0.5,diis    38  -1382.7685010471 -3.50D-04  6.49D-05  9.81D-03    53.7
                                                     2.91D-04  6.73D-03
 d= 0,ls=0.5,diis    39  -1382.7691595034 -6.58D-04  5.04D-05  6.60D-03    54.7
                                                     2.87D-04  4.57D-03
 d= 0,ls=0.5,diis    40  -1382.7696670383 -5.08D-04  5.95D-05  4.42D-03    55.8
                                                     2.65D-04  3.11D-03
 d= 0,ls=0.5,diis    41  -1382.7697985059 -1.31D-04  2.10D-05  4.42D-03    57.1
                                                     2.47D-04  3.07D-03
 d= 0,ls=0.5,diis    42  -1382.7700255383 -2.27D-04  1.48D-04  3.68D-03    58.4
                                                     2.38D-04  2.57D-03
 d= 0,ls=0.5,diis    43  -1382.7698379250  1.88D-04  7.35D-05  5.37D-03    59.8
                                                     2.23D-04  3.65D-03
 d= 0,ls=0.5,diis    44  -1382.7698915593 -5.36D-05  3.45D-05  5.42D-03    61.2
                                                     2.03D-04  3.66D-03
 d= 0,ls=0.5,diis    45  -1382.7700816521 -1.90D-04  2.83D-05  4.65D-03    62.4
                                                     1.91D-04  3.14D-03
 d= 0,ls=0.5,diis    46  -1382.7703498431 -2.68D-04  2.85D-05  3.46D-03    63.6
                                                     1.79D-04  2.37D-03
 d= 0,ls=0.5,diis    47  -1382.7705878341 -2.38D-04  7.59D-05  2.46D-03    64.5
                                                     1.82D-04  1.71D-03
 d= 0,ls=0.5,diis    48  -1382.7705880722 -2.38D-07  2.70D-05  2.86D-03    65.7
                                                     1.78D-04  1.99D-03
 d= 0,ls=0.5,diis    49  -1382.7706984682 -1.10D-04  1.25D-04  2.52D-03    67.1
                                                     1.84D-04  1.76D-03
 d= 0,ls=0.5,diis    50  -1382.7705619986  1.36D-04  3.39D-05  3.66D-03    68.2
                                                     1.72D-04  2.50D-03
 d= 0,ls=0.5,diis    51  -1382.7706873289 -1.25D-04  1.03D-04  3.11D-03    69.6
                                                     1.72D-04  2.12D-03
 d= 0,ls=0.5,diis    52  -1382.7705804848  1.07D-04  4.74D-05  4.00D-03    70.6
                                                     1.63D-04  2.70D-03
 d= 0,ls=0.5,diis    53  -1382.7708328007 -2.52D-04  3.67D-05  2.69D-03    72.0
                                                     1.46D-04  1.84D-03
 d= 0,ls=0.5,diis    54  -1382.7710129602 -1.80D-04  1.50D-04  1.87D-03    73.1
                                                     1.69D-04  1.30D-03
 d= 0,ls=0.5,diis    55  -1382.7708042804  2.09D-04  5.03D-05  3.40D-03    74.3
                                                     1.53D-04  2.31D-03
 d= 0,ls=0.5,diis    56  -1382.7708344881 -3.02D-05  2.87D-05  3.34D-03    75.3
                                                     1.39D-04  2.24D-03
 d= 0,ls=0.5,diis    57  -1382.7709041246 -6.96D-05  1.57D-05  3.08D-03    76.8
                                                     1.29D-04  2.06D-03
 d= 0,ls=0.5,diis    58  -1382.7710085151 -1.04D-04  3.54D-05  2.62D-03    78.4
                                                     1.34D-04  1.76D-03
 d= 0,ls=0.5,diis    59  -1382.7711803536 -1.72D-04  3.33D-05  1.78D-03    79.8
                                                     1.32D-04  1.22D-03
 d= 0,ls=0.5,diis    60  -1382.7712132648 -3.29D-05  6.83D-05  1.79D-03    80.7
                                                     1.33D-04  1.22D-03
 d= 0,ls=0.5,diis    61  -1382.7711765030  3.68D-05  4.26D-05  2.16D-03    82.1
                                                     1.31D-04  1.45D-03
 d= 0,ls=0.5,diis    62  -1382.7711854174 -8.91D-06  2.60D-05  2.23D-03    83.7
                                                     1.21D-04  1.49D-03
 d= 0,ls=0.5,diis    63  -1382.7713013981 -1.16D-04  5.98D-05  1.65D-03    84.8
                                                     1.20D-04  1.11D-03
 d= 0,ls=0.5,diis    64  -1382.7712677342  3.37D-05  2.86D-05  1.99D-03    85.8
                                                     1.16D-04  1.33D-03
 d= 0,ls=0.5,diis    65  -1382.7712951855 -2.75D-05  1.57D-05  1.92D-03    87.2
                                                     1.10D-04  1.28D-03
 d= 0,ls=0.5,diis    66  -1382.7713443223 -4.91D-05  4.57D-05  1.73D-03    88.4
                                                     1.10D-04  1.15D-03
 d= 0,ls=0.5,diis    67  -1382.7713324773  1.18D-05  1.36D-05  1.90D-03    89.6
                                                     1.06D-04  1.26D-03
 d= 0,ls=0.5,diis    68  -1382.7713968816 -6.44D-05  7.78D-06  1.60D-03    90.7
                                                     9.98D-05  1.06D-03
 d= 0,ls=0.5,diis    69  -1382.7714463915 -4.95D-05  7.74D-05  1.40D-03    92.4
                                                     1.07D-04  9.33D-04
 d= 0,ls=0.5,diis    70  -1382.7713723562  7.40D-05  4.15D-05  1.93D-03    93.5
                                                     1.03D-04  1.28D-03
 d= 0,ls=0.5,diis    71  -1382.7713632917  9.06D-06  1.87D-05  2.03D-03    95.1
                                                     9.89D-05  1.33D-03
 d= 0,ls=0.5,diis    72  -1382.7714062268 -4.29D-05  1.27D-05  1.83D-03    96.6
                                                     8.97D-05  1.20D-03
 d= 0,ls=0.5,diis    73  -1382.7714625695 -5.63D-05  2.37D-05  1.55D-03    98.0
                                                     8.36D-05  1.02D-03
 d= 0,ls=0.5,diis    74  -1382.7715394363 -7.69D-05  6.70D-06  1.17D-03    99.2
                                                     8.06D-05  7.76D-04
 d= 0,ls=0.5,diis    75  -1382.7715817652 -4.23D-05  1.67D-05  1.01D-03   100.2
                                                     7.73D-05  6.68D-04
 d= 0,ls=0.5,diis    76  -1382.7715930032 -1.12D-05  7.10D-06  1.01D-03   101.5
                                                     7.50D-05  6.69D-04
 d= 0,ls=0.5,diis    77  -1382.7716326762 -3.97D-05  1.43D-05  8.27D-04   102.7
                                                     7.20D-05  5.51D-04
 d= 0,ls=0.5,diis    78  -1382.7716762341 -4.36D-05  7.64D-06  6.30D-04   104.1
                                                     6.42D-05  4.23D-04
 d= 0,ls=0.5,diis    79  -1382.7716994851 -2.33D-05  1.27D-05  5.50D-04   105.4
                                                     6.29D-05  3.69D-04
 d= 0,ls=0.5,diis    80  -1382.7717311102 -3.16D-05  1.75D-05  4.12D-04   106.6
                                                     6.07D-05  2.79D-04
 d= 0,ls=0.5,diis    81  -1382.7717619494 -3.08D-05  6.80D-06  2.80D-04   107.8
                                                     6.08D-05  1.93D-04
 d= 0,ls=0.5,diis    82  -1382.7717786267 -1.67D-05  1.19D-05  2.30D-04   109.0
                                                     5.54D-05  1.60D-04
 d= 0,ls=0.5,diis    83  -1382.7717858923 -7.27D-06  1.67D-05  2.28D-04   110.3
                                                     5.14D-05  1.56D-04
 d= 0,ls=0.5,diis    84  -1382.7717880595 -2.17D-06  2.17D-05  2.48D-04   111.4
                                                     5.08D-05  1.66D-04
 d= 0,ls=0.5,diis    85  -1382.7717866283  1.43D-06  2.40D-05  2.83D-04   112.4
                                                     5.05D-05  1.88D-04
 d= 0,ls=0.5,diis    86  -1382.7717840895  2.54D-06  8.41D-06  3.24D-04   113.9
                                                     4.73D-05  2.12D-04
 d= 0,ls=0.5,diis    87  -1382.7717978384 -1.37D-05  1.92D-05  2.62D-04   114.8
                                                     4.41D-05  1.72D-04
 d= 0,ls=0.5,diis    88  -1382.7717958206  2.02D-06  2.22D-05  2.99D-04   116.1
                                                     4.58D-05  1.93D-04
 d= 0,ls=0.5,diis    89  -1382.7717924782  3.34D-06  7.52D-06  3.38D-04   118.2
                                                     4.27D-05  2.19D-04
 d= 0,ls=0.5,diis    90  -1382.7718025734 -1.01D-05  2.85D-05  2.95D-04   119.7
                                                     4.53D-05  1.89D-04
 d= 0,ls=0.5,diis    91  -1382.7717932679  9.31D-06  1.85D-04  3.71D-04   121.3
                                                     9.77D-05  2.37D-04
 d= 0,ls=0.5,diis    92  -1382.7718578002 -6.45D-05  1.15D-04  3.71D-05   122.6
                                                     6.47D-05  2.72D-05
 d= 0,ls=0.5,diis    93  -1382.7718548465  2.95D-06  6.00D-05  7.01D-05   123.7
                                                     4.91D-05  4.93D-05
 d= 0,ls=0.5,diis    94  -1382.7718373242  1.75D-05  4.26D-05  1.92D-04   124.9
                                                     4.97D-05  1.24D-04
 d= 0,ls=0.5,diis    95  -1382.7718217457  1.56D-05  2.08D-05  2.92D-04   125.9
                                                     4.40D-05  1.88D-04
 d= 0,ls=0.5,diis    96  -1382.7718220297 -2.84D-07  1.91D-05  2.94D-04   127.0
                                                     4.23D-05  1.88D-04
 d= 0,ls=0.5,diis    97  -1382.7718198951  2.13D-06  1.07D-05  3.16D-04   128.1
                                                     3.95D-05  2.02D-04
 d= 0,ls=0.5,diis    98  -1382.7718245020 -4.61D-06  2.04D-05  2.98D-04   129.1
                                                     4.16D-05  1.90D-04
 d= 0,ls=0.5,diis    99  -1382.7718196962  4.81D-06  9.62D-06  3.38D-04   130.4
                                                     3.86D-05  2.17D-04
 d= 0,ls=0.5,diis   100  -1382.7718237040 -4.01D-06  6.81D-06  3.24D-04   131.7
                                                     3.70D-05  2.06D-04
 d= 0,ls=0.5,diis   101  -1382.7718286543 -4.95D-06  3.37D-05  3.05D-04   133.0
                                                     4.29D-05  1.94D-04
 d= 0,ls=0.5,diis   102  -1382.7718562771 -2.76D-05  7.46D-06  1.54D-04   134.4
                                                     4.02D-05  1.04D-04
 d= 0,ls=0.5,diis   103  -1382.7718632821 -7.01D-06  1.71D-05  1.34D-04   135.8
                                                     4.20D-05  9.09D-05
 d= 0,ls=0.5,diis   104  -1382.7718619931  1.29D-06  6.31D-06  1.56D-04   136.9
                                                     4.07D-05  1.06D-04
 d= 0,ls=0.5,diis   105  -1382.7718658725 -3.88D-06  1.67D-05  1.45D-04   138.3
                                                     4.10D-05  9.81D-05
 d= 0,ls=0.5,diis   106  -1382.7718637778  2.09D-06  1.34D-05  1.68D-04   139.5
                                                     3.99D-05  1.13D-04
 d= 0,ls=0.5,diis   107  -1382.7718632452  5.33D-07  4.50D-05  1.80D-04   140.8
                                                     5.19D-05  1.20D-04
 d= 0,ls=0.5,diis   108  -1382.7718422801  2.10D-05  1.49D-05  3.13D-04   141.9
                                                     4.34D-05  2.06D-04
 d= 0,ls=0.5,diis   109  -1382.7718441856 -1.91D-06  9.23D-06  3.01D-04   143.6
                                                     3.86D-05  1.96D-04
 d= 0,ls=0.5,diis   110  -1382.7718479650 -3.78D-06  8.89D-06  2.84D-04   144.7
                                                     3.86D-05  1.85D-04
 d= 0,ls=0.5,diis   111  -1382.7718499211 -1.96D-06  9.44D-06  2.80D-04   146.1
                                                     3.86D-05  1.81D-04
 d= 0,ls=0.5,diis   112  -1382.7718510282 -1.11D-06  4.37D-06  2.80D-04   147.2
                                                     3.75D-05  1.82D-04
 d= 0,ls=0.5,diis   113  -1382.7718580495 -7.02D-06  6.41D-06  2.45D-04   148.6
                                                     3.33D-05  1.60D-04
 d= 0,ls=0.5,diis   114  -1382.7718674574 -9.41D-06  1.44D-05  1.99D-04   149.8
                                                     4.76D-05  1.30D-04
 d= 0,ls=0.5,diis   115  -1382.7718661093  1.35D-06  1.96D-05  2.17D-04   151.6
                                                     4.87D-05  1.43D-04
 d= 0,ls=0.5,diis   116  -1382.7718598684  6.24D-06  3.27D-05  2.60D-04   153.0
                                                     3.69D-05  1.70D-04
 d= 0,ls=0.5,diis   117  -1382.7718832044 -2.33D-05  3.22D-05  1.27D-04   154.0
                                                     3.06D-05  8.38D-05
 d= 0,ls=0.5,diis   118  -1382.7718987778 -1.56D-05  2.17D-05  5.01D-05   154.9
                                                     2.83D-05  3.40D-05
 d= 0,ls=0.5,diis   119  -1382.7719061241 -7.35D-06  9.76D-06  1.98D-05   156.1
                                                     2.71D-05  1.44D-05
 d= 0,ls=0.5,diis   120  -1382.7719088765 -2.75D-06  1.15D-05  1.29D-05   157.7
                                                     2.43D-05  9.81D-06
 d= 0,ls=0.5,diis   121  -1382.7719088309  4.56D-08  9.06D-06  1.98D-05   159.2
                                                     2.59D-05  1.42D-05
 d= 0,ls=0.5,diis   122  -1382.7719088951 -6.42D-08  1.32D-05  2.45D-05   160.4
                                                     2.81D-05  1.72D-05
 d= 0,ls=0.5,diis   123  -1382.7719078402  1.05D-06  7.02D-06  3.51D-05   161.5
                                                     2.67D-05  2.38D-05
 d= 0,ls=0.5,diis   124  -1382.7719082020 -3.62D-07  9.15D-06  3.62D-05   162.8
                                                     2.06D-05  2.43D-05
 d= 0,ls=0.5,diis   125  -1382.7719113580 -3.16D-06  2.97D-06  2.10D-05   164.3
                                                     1.88D-05  1.41D-05
 d= 0,ls=0.5,diis   126  -1382.7719130183 -1.66D-06  9.66D-06  1.52D-05   165.5
                                                     2.09D-05  1.04D-05
 d= 0,ls=0.5,diis   127  -1382.7719126939  3.24D-07  3.24D-06  2.11D-05   167.5
                                                     1.99D-05  1.40D-05
 d= 0,ls=0.5,diis   128  -1382.7719134026 -7.09D-07  4.35D-06  1.97D-05   168.7
                                                     1.95D-05  1.30D-05
 d= 0,ls=0.5,diis   129  -1382.7719137773 -3.75D-07  4.49D-06  2.03D-05   170.0
                                                     1.97D-05  1.34D-05
 d= 0,ls=0.5,diis   130  -1382.7719141072 -3.30D-07  8.15D-06  2.09D-05   171.2
                                                     2.34D-05  1.37D-05
 d= 0,ls=0.5,diis   131  -1382.7719137848  3.22D-07  2.61D-06  2.54D-05   172.2
                                                     1.90D-05  1.67D-05
 d= 0,ls=0.5,diis   132  -1382.7719148080 -1.02D-06  1.22D-05  2.13D-05   173.5
                                                     2.63D-05  1.39D-05
 d= 0,ls=0.5,diis   133  -1382.7719135222  1.29D-06  5.75D-06  3.16D-05   174.6
                                                     2.40D-05  2.07D-05
 d= 0,ls=0.5,diis   134  -1382.7719137388 -2.17D-07  6.17D-06  3.21D-05   175.8
                                                     2.51D-05  2.07D-05
 d= 0,ls=0.5,diis   135  -1382.7719137166  2.22D-08  3.40D-05  3.42D-05   178.0
                                                     2.89D-05  2.20D-05
 d= 0,ls=0.5,diis   136  -1382.7719192021 -5.49D-06  9.61D-06  3.85D-06   179.3
                                                     1.62D-05  3.12D-06
 d= 0,ls=0.5,diis   137  -1382.7719201882 -9.86D-07  3.35D-05  9.63D-07   180.5
                                                     3.45D-05  9.37D-07
 d= 0,ls=0.5,diis   138  -1382.7719179139  2.27D-06  1.28D-05  1.78D-05   181.8
                                                     2.65D-05  1.24D-05
 d= 0,ls=0.5,diis   139  -1382.7719169524  9.62D-07  6.02D-06  2.45D-05   183.0
                                                     2.05D-05  1.62D-05
 d= 0,ls=0.5,diis   140  -1382.7719175357 -5.83D-07  3.67D-06  2.18D-05   184.2
                                                     1.65D-05  1.43D-05
 d= 0,ls=0.5,diis   141  -1382.7719186176 -1.08D-06  3.23D-06  1.69D-05   185.6
                                                     1.77D-05  1.11D-05
 d= 0,ls=0.5,diis   142  -1382.7719189535 -3.36D-07  7.48D-06  1.68D-05   186.6
                                                     2.14D-05  1.12D-05
 d= 0,ls=0.5,diis   143  -1382.7719186337  3.20D-07  3.97D-06  2.05D-05   188.2
                                                     1.61D-05  1.37D-05
 d= 0,ls=0.5,diis   144  -1382.7719200107 -1.38D-06  1.25D-06  1.37D-05   189.5
                                                     1.52D-05  9.18D-06
 d= 0,ls=0.5,diis   145  -1382.7719208365 -8.26D-07  7.15D-06  1.07D-05   190.5
                                                     1.35D-05  7.27D-06
 d= 0,ls=0.5,diis   146  -1382.7719222249 -1.39D-06  2.46D-06  4.35D-06   191.7
                                                     1.43D-05  3.13D-06
 d= 0,ls=0.5,diis   147  -1382.7719225997 -3.75D-07  1.82D-05  4.02D-06   193.0
                                                     2.53D-05  2.97D-06
 d= 0,ls=0.5,diis   148  -1382.7719210711  1.53D-06  7.74D-06  1.49D-05   194.3
                                                     1.51D-05  1.05D-05
 d= 0,ls=0.5,diis   149  -1382.7719225674 -1.50D-06  1.91D-05  6.78D-06   195.6
                                                     2.74D-05  4.74D-06
 d= 0,ls=0.5,diis   150  -1382.7719204665  2.10D-06  2.40D-05  2.11D-05   196.9
                                                     3.82D-05  1.45D-05
 d= 0,ls=0.5,diis   151  -1382.7719162994  4.17D-06  7.51D-06  4.69D-05   198.0
                                                     2.51D-05  3.17D-05
 d= 0,ls=0.5,diis   152  -1382.7719175470 -1.25D-06  1.11D-05  3.86D-05   199.8
                                                     3.12D-05  2.53D-05
 d= 0,ls=0.5,diis   153  -1382.7719158706  1.68D-06  4.41D-06  4.95D-05   201.0
                                                     2.49D-05  3.27D-05
 d= 0,ls=0.5,diis   154  -1382.7719165296 -6.59D-07  2.60D-06  4.59D-05   201.9
                                                     2.14D-05  2.99D-05
 d= 0,ls=0.5,diis   155  -1382.7719175980 -1.07D-06  7.24D-06  4.05D-05   203.2
                                                     2.65D-05  2.63D-05
 d= 0,ls=0.5,diis   156  -1382.7719167531  8.45D-07  4.71D-05  4.68D-05   204.1
                                                     3.54D-05  3.05D-05
 d= 0,ls=0.5,diis   157  -1382.7719246584 -7.91D-06  1.13D-05  2.95D-06   205.7
                                                     1.47D-05  2.84D-06
 d= 0,ls=0.5,diis   158  -1382.7719253971 -7.39D-07  1.14D-05  8.33D-07   206.9
                                                     1.65D-05  8.30D-07
 d= 0,ls=0.5,diis   159  -1382.7719256905 -2.93D-07  1.19D-05  6.52D-07   208.3
                                                     1.28D-05  6.65D-07
 d= 0,ls=0.5,diis   160  -1382.7719259228 -2.32D-07  1.70D-05  2.43D-07   210.0
                                                     2.27D-05  3.12D-07
 d= 0,ls=0.5,diis   161  -1382.7719253997  5.23D-07  1.93D-05  4.60D-06   211.4
                                                     3.35D-05  3.65D-06
 d= 0,ls=0.5,diis   162  -1382.7719237858  1.61D-06  6.59D-06  1.52D-05   213.1
                                                     1.99D-05  1.13D-05
 d= 0,ls=0.5,diis   163  -1382.7719245198 -7.34D-07  1.07D-05  1.07D-05   214.1
                                                     2.81D-05  7.52D-06
 d= 0,ls=0.5,diis   164  -1382.7719235377  9.82D-07  1.87D-05  1.74D-05   215.7
                                                     1.38D-05  1.23D-05
 d= 0,ls=0.5,diis   165  -1382.7719260152 -2.48D-06  6.40D-06  3.32D-06   216.9
                                                     1.40D-05  2.27D-06
 d= 0,ls=0.5,diis   166  -1382.7719258303  1.85D-07  4.44D-06  5.59D-06   218.1
                                                     1.40D-05  3.85D-06
 d= 0,ls=0.5,diis   167  -1382.7719257098  1.20D-07  6.04D-06  7.03D-06   219.3
                                                     8.55D-06  4.76D-06


         Total DFT energy =    -1382.771926458203
      One electron energy =    -1916.968567846924
           Coulomb energy =      593.587677511831
          Exchange energy =      -58.193083940953
       Correlation energy =       -1.197952182157
 Nuclear repulsion energy =        0.000000000000

 Numeric. integr. density =       27.000000020829

     Total iterative time =    216.6s


 
                    DFT Final Alpha Molecular Orbital Analysis
                    ------------------------------------------
 
 Vector    1  Occ=1.000000D+00  E=-2.766024D+02
              MO Center=  2.6D-11,  8.7D-11, -4.5D-11, r^2= 1.2D-03
   Bfn.  Coefficient  Atom+Function         Bfn.  Coefficient  Atom+Function  
  ----- ------------  ---------------      ----- ------------  ---------------
     1      0.998072  1 Co s          
 
 Vector    2  Occ=1.000000D+00  E=-3.239069D+01
              MO Center=  3.6D-08,  1.0D-07, -5.4D-08, r^2= 2.2D-02
   Bfn.  Coefficient  Atom+Function         Bfn.  Coefficient  Atom+Function  
  ----- ------------  ---------------      ----- ------------  ---------------
     2      1.019413  1 Co s                  1     -0.316225  1 Co s          
     4      0.045896  1 Co s          
 
 Vector    3  Occ=1.000000D+00  E=-2.804708D+01
              MO Center=  4.0D-08, -3.3D-08,  3.6D-08, r^2= 1.8D-02
   Bfn.  Coefficient  Atom+Function         Bfn.  Coefficient  Atom+Function  
  ----- ------------  ---------------      ----- ------------  ---------------
     9      0.584853  1 Co pz                 8     -0.569567  1 Co py         
     7      0.560060  1 Co px                15     -0.028084  1 Co pz         
    14      0.027358  1 Co py                13     -0.026888  1 Co px         
 
 Vector    4  Occ=1.000000D+00  E=-2.804564D+01
              MO Center= -2.1D-08, -5.0D-08, -3.5D-08, r^2= 1.8D-02
   Bfn.  Coefficient  Atom+Function         Bfn.  Coefficient  Atom+Function  
  ----- ------------  ---------------      ----- ------------  ---------------
     8      0.808071  1 Co py                 9      0.455807  1 Co pz         
     7      0.345808  1 Co px                14     -0.038288  1 Co py         
    11      0.025725  1 Co py         
 
 Vector    5  Occ=1.000000D+00  E=-2.804562D+01
              MO Center= -4.4D-08,  1.8D-09,  3.8D-08, r^2= 1.8D-02
   Bfn.  Coefficient  Atom+Function         Bfn.  Coefficient  Atom+Function  
  ----- ------------  ---------------      ----- ------------  ---------------
     7      0.739603  1 Co px                 9     -0.656080  1 Co pz         
     8      0.053566  1 Co py                13     -0.035038  1 Co px         
    15      0.031087  1 Co pz         
 
 Vector    6  Occ=1.000000D+00  E=-3.580324D+00
              MO Center=  1.2D-06,  1.9D-07, -1.8D-06, r^2= 2.0D-01
   Bfn.  Coefficient  Atom+Function         Bfn.  Coefficient  Atom+Function  
  ----- ------------  ---------------      ----- ------------  ---------------
     3      0.593920  1 Co s                  2     -0.468466  1 Co s          
     4      0.448502  1 Co s                  1      0.119037  1 Co s          
     5     -0.032928  1 Co s                 22      0.027376  1 Co dxx        
    25      0.027421  1 Co dyy               27      0.027432  1 Co dzz        
 
 Vector    7  Occ=1.000000D+00  E=-2.284930D+00
              MO Center=  7.2D-07, -2.3D-07, -4.2D-07, r^2= 2.3D-01
   Bfn.  Coefficient  Atom+Function         Bfn.  Coefficient  Atom+Function  
  ----- ------------  ---------------      ----- ------------  ---------------
    10      0.535361  1 Co px                12      0.529156  1 Co pz         
    11     -0.475675  1 Co py                 7     -0.229576  1 Co px         
     9     -0.226895  1 Co pz                 8      0.203937  1 Co py         
    13      0.124134  1 Co px                15      0.122410  1 Co pz         
    14     -0.109648  1 Co py         
 
 Vector    8  Occ=1.000000D+00  E=-2.284221D+00
              MO Center=  4.8D-07,  1.2D-07, -6.3D-07, r^2= 2.3D-01
   Bfn.  Coefficient  Atom+Function         Bfn.  Coefficient  Atom+Function  
  ----- ------------  ---------------      ----- ------------  ---------------
    11      0.743977  1 Co py                12      0.412495  1 Co pz         
     8     -0.319362  1 Co py                10      0.252698  1 Co px         
     9     -0.177095  1 Co pz                14      0.177388  1 Co py         
     7     -0.108495  1 Co px                15      0.098732  1 Co pz         
    13      0.060558  1 Co px         
 
 Vector    9  Occ=1.000000D+00  E=-2.284161D+00
              MO Center= -9.2D-07, -1.7D-07,  5.2D-07, r^2= 2.3D-01
   Bfn.  Coefficient  Atom+Function         Bfn.  Coefficient  Atom+Function  
  ----- ------------  ---------------      ----- ------------  ---------------
    10      0.662351  1 Co px                12     -0.582437  1 Co pz         
     7     -0.284344  1 Co px                 9      0.250019  1 Co pz         
    13      0.158241  1 Co px                15     -0.138872  1 Co pz         
    11      0.097979  1 Co py                 8     -0.042050  1 Co py         
 
 Vector   10  Occ=1.000000D+00  E=-2.247720D-01
              MO Center= -1.9D-07, -2.3D-07, -6.6D-07, r^2= 4.9D-01
   Bfn.  Coefficient  Atom+Function         Bfn.  Coefficient  Atom+Function  
  ----- ------------  ---------------      ----- ------------  ---------------
    24      0.805293  1 Co dxz               23      0.530978  1 Co dxy        
    30      0.527128  1 Co dxz               29      0.347677  1 Co dxy        
    36      0.347296  1 Co dxz               26      0.248469  1 Co dyz        
    35      0.229236  1 Co dxy               25     -0.163387  1 Co dyy        
    32      0.162646  1 Co dyz               27      0.117826  1 Co dzz        
 
 Vector   11  Occ=1.000000D+00  E=-2.247255D-01
              MO Center=  1.1D-07, -1.7D-07, -2.5D-07, r^2= 4.9D-01
   Bfn.  Coefficient  Atom+Function         Bfn.  Coefficient  Atom+Function  
  ----- ------------  ---------------      ----- ------------  ---------------
    26      0.760448  1 Co dyz               23     -0.634823  1 Co dxy        
    32      0.497788  1 Co dyz               29     -0.415441  1 Co dxy        
    38      0.327993  1 Co dyz               35     -0.273564  1 Co dxy        
    24      0.196514  1 Co dxz               30      0.128516  1 Co dxz        
    22      0.126544  1 Co dxx               27     -0.112021  1 Co dzz        
 
 Vector   12  Occ=1.000000D+00  E=-1.905024D-01
              MO Center=  8.3D-07, -7.1D-07, -1.4D-06, r^2= 8.0D-01
   Bfn.  Coefficient  Atom+Function         Bfn.  Coefficient  Atom+Function  
  ----- ------------  ---------------      ----- ------------  ---------------
    26      0.582830  1 Co dyz               23      0.543456  1 Co dxy        
    24     -0.538497  1 Co dxz               32      0.382049  1 Co dyz        
    29      0.356197  1 Co dxy               30     -0.352863  1 Co dxz        
    38      0.263260  1 Co dyz               35      0.245380  1 Co dxy        
    36     -0.242943  1 Co dxz                5      0.224304  1 Co s          
 
 Vector   13  Occ=1.000000D+00  E=-1.851440D-01
              MO Center= -2.4D-07, -2.3D-07, -4.8D-07, r^2= 5.4D-01
   Bfn.  Coefficient  Atom+Function         Bfn.  Coefficient  Atom+Function  
  ----- ------------  ---------------      ----- ------------  ---------------
    22      0.569881  1 Co dxx               28      0.376485  1 Co dxx        
    25     -0.329779  1 Co dyy               34      0.261835  1 Co dxx        
    27     -0.240202  1 Co dzz               31     -0.217725  1 Co dyy        
    26     -0.193070  1 Co dyz               33     -0.158546  1 Co dzz        
    37     -0.151449  1 Co dyy               32     -0.129816  1 Co dyz        
 
 Vector   14  Occ=1.000000D+00  E=-1.851387D-01
              MO Center=  2.7D-07, -2.2D-07, -8.4D-07, r^2= 5.4D-01
   Bfn.  Coefficient  Atom+Function         Bfn.  Coefficient  Atom+Function  
  ----- ------------  ---------------      ----- ------------  ---------------
    27      0.512140  1 Co dzz               25     -0.459300  1 Co dyy        
    33      0.338248  1 Co dzz               31     -0.303226  1 Co dyy        
    39      0.235135  1 Co dzz               37     -0.210786  1 Co dyy        
    23     -0.203495  1 Co dxy               24     -0.195090  1 Co dxz        
    29     -0.136534  1 Co dxy               30     -0.130701  1 Co dxz        
 
 Vector   15  Occ=1.000000D+00  E=-1.726970D-01
              MO Center= -2.4D-06,  3.8D-06, -9.4D-06, r^2= 2.8D+00
   Bfn.  Coefficient  Atom+Function         Bfn.  Coefficient  Atom+Function  
  ----- ------------  ---------------      ----- ------------  ---------------
     5      0.618993  1 Co s                  6      0.485882  1 Co s          
     4     -0.316378  1 Co s                 26     -0.214624  1 Co dyz        
    23     -0.200381  1 Co dxy               24      0.199494  1 Co dxz        
     3     -0.149565  1 Co s                 32     -0.141074  1 Co dyz        
    29     -0.131710  1 Co dxy               30      0.131121  1 Co dxz        
 
 Vector   16  Occ=0.000000D+00  E=-1.648960D-02
              MO Center=  6.0D-06, -2.5D-06, -7.3D-06, r^2= 3.8D+00
   Bfn.  Coefficient  Atom+Function         Bfn.  Coefficient  Atom+Function  
  ----- ------------  ---------------      ----- ------------  ---------------
    20      0.777411  1 Co py                21      0.523969  1 Co pz         
    19      0.269427  1 Co px                11     -0.160138  1 Co py         
    12     -0.107934  1 Co pz                 8      0.058446  1 Co py         
    10     -0.055501  1 Co px                14     -0.050415  1 Co py         
     9      0.039393  1 Co pz                17      0.035863  1 Co py         
 
 Vector   17  Occ=0.000000D+00  E=-1.642766D-02
              MO Center= -1.3D-06, -6.4D-06, -4.4D-06, r^2= 3.8D+00
   Bfn.  Coefficient  Atom+Function         Bfn.  Coefficient  Atom+Function  
  ----- ------------  ---------------      ----- ------------  ---------------
    19      0.767212  1 Co px                21     -0.588292  1 Co pz         
    10     -0.157989  1 Co px                20      0.130613  1 Co py         
    12      0.121143  1 Co pz                 7      0.057661  1 Co px         
    13     -0.049715  1 Co px                 9     -0.044213  1 Co pz         
    15      0.038123  1 Co pz                16      0.035239  1 Co px         
 
 Vector   18  Occ=0.000000D+00  E=-8.370006D-03
              MO Center=  1.0D-05, -1.1D-05, -4.6D-06, r^2= 3.8D+00
   Bfn.  Coefficient  Atom+Function         Bfn.  Coefficient  Atom+Function  
  ----- ------------  ---------------      ----- ------------  ---------------
    20     -0.582314  1 Co py                21      0.583087  1 Co pz         
    19      0.546233  1 Co px                11      0.116272  1 Co py         
    12     -0.116428  1 Co pz                10     -0.109071  1 Co px         
     8     -0.042388  1 Co py                 9      0.042445  1 Co pz         
     7      0.039763  1 Co px                14      0.034719  1 Co py         
 
 Vector   19  Occ=0.000000D+00  E= 4.630433D-02
              MO Center=  5.2D-06, -3.7D-06, -9.9D-06, r^2= 1.2D+01
   Bfn.  Coefficient  Atom+Function         Bfn.  Coefficient  Atom+Function  
  ----- ------------  ---------------      ----- ------------  ---------------
     6      4.932599  1 Co s                 40     -1.541785  1 Co dxx        
    43     -1.542093  1 Co dyy               45     -1.542130  1 Co dzz        
    34     -0.779349  1 Co dxx               37     -0.779192  1 Co dyy        
    39     -0.779174  1 Co dzz                4     -0.494268  1 Co s          
     5      0.220351  1 Co s                 28     -0.177624  1 Co dxx        
 
 Vector   20  Occ=0.000000D+00  E= 1.845048D-01
              MO Center= -5.5D-06,  3.9D-06,  8.5D-06, r^2= 5.2D+00
   Bfn.  Coefficient  Atom+Function         Bfn.  Coefficient  Atom+Function  
  ----- ------------  ---------------      ----- ------------  ---------------
    44      1.350354  1 Co dyz               41     -1.106630  1 Co dxy        
    42      0.294632  1 Co dxz               40     -0.290514  1 Co dxx        
    26     -0.238668  1 Co dyz               38     -0.215717  1 Co dyz        
    45      0.208998  1 Co dzz               23      0.195151  1 Co dxy        
    35      0.176348  1 Co dxy               32     -0.084014  1 Co dyz        
 
 Vector   21  Occ=0.000000D+00  E= 1.845067D-01
              MO Center= -3.7D-06,  4.6D-06,  8.8D-06, r^2= 5.2D+00
   Bfn.  Coefficient  Atom+Function         Bfn.  Coefficient  Atom+Function  
  ----- ------------  ---------------      ----- ------------  ---------------
    42      1.440084  1 Co dxz               41      0.969133  1 Co dxy        
    44      0.457107  1 Co dyz               24     -0.254561  1 Co dxz        
    43      0.244424  1 Co dyy               36     -0.230080  1 Co dxz        
    23     -0.171743  1 Co dxy               35     -0.155260  1 Co dxy        
    45     -0.150999  1 Co dzz               40     -0.093042  1 Co dxx        
 
 Vector   22  Occ=0.000000D+00  E= 1.879248D-01
              MO Center=  1.1D-06,  6.0D-06,  4.3D-06, r^2= 5.2D+00
   Bfn.  Coefficient  Atom+Function         Bfn.  Coefficient  Atom+Function  
  ----- ------------  ---------------      ----- ------------  ---------------
    43      1.019717  1 Co dyy               45     -0.678553  1 Co dzz        
    42     -0.370289  1 Co dxz               40     -0.340473  1 Co dxx        
    25     -0.187263  1 Co dyy               41     -0.178852  1 Co dxy        
    37     -0.173781  1 Co dyy               44     -0.125711  1 Co dyz        
    27      0.124607  1 Co dzz               39      0.115800  1 Co dzz        
 
 Vector   23  Occ=0.000000D+00  E= 1.879559D-01
              MO Center= -6.6D-06, -8.1D-07,  6.2D-06, r^2= 5.2D+00
   Bfn.  Coefficient  Atom+Function         Bfn.  Coefficient  Atom+Function  
  ----- ------------  ---------------      ----- ------------  ---------------
    40      0.962923  1 Co dxx               45     -0.782171  1 Co dzz        
    41     -0.358004  1 Co dxy               44      0.349858  1 Co dyz        
    43     -0.181240  1 Co dyy               22     -0.177245  1 Co dxx        
    34     -0.164723  1 Co dxx               42      0.151817  1 Co dxz        
    27      0.143771  1 Co dzz               39      0.133461  1 Co dzz        
 
 Vector   24  Occ=0.000000D+00  E= 1.899884D-01
              MO Center= -1.2D-06,  1.1D-06,  2.9D-06, r^2= 5.2D+00
   Bfn.  Coefficient  Atom+Function         Bfn.  Coefficient  Atom+Function  
  ----- ------------  ---------------      ----- ------------  ---------------
    44      1.113805  1 Co dyz               41      1.042256  1 Co dxy        
    42     -1.043790  1 Co dxz               26     -0.202900  1 Co dyz        
    23     -0.189859  1 Co dxy               24      0.190103  1 Co dxz        
    38     -0.190780  1 Co dyz               35     -0.178514  1 Co dxy        
    36      0.178753  1 Co dxz               40      0.080101  1 Co dxx        
 
 Vector   25  Occ=0.000000D+00  E= 3.313512D-01
              MO Center=  1.0D-05, -8.1D-06, -2.2D-05, r^2= 9.1D+00
   Bfn.  Coefficient  Atom+Function         Bfn.  Coefficient  Atom+Function  
  ----- ------------  ---------------      ----- ------------  ---------------
     5      6.970073  1 Co s                  6      6.077431  1 Co s          
    40     -3.407020  1 Co dxx               43     -3.407350  1 Co dyy        
    45     -3.407379  1 Co dzz                4     -2.364365  1 Co s          
    34     -2.205784  1 Co dxx               37     -2.206043  1 Co dyy        
    39     -2.206071  1 Co dzz               28     -0.458798  1 Co dxx        
 
 Vector   26  Occ=0.000000D+00  E= 4.601097D-01
              MO Center=  7.7D-06,  1.4D-05,  5.4D-06, r^2= 3.6D+00
   Bfn.  Coefficient  Atom+Function         Bfn.  Coefficient  Atom+Function  
  ----- ------------  ---------------      ----- ------------  ---------------
    17      1.569184  1 Co py                18      1.063550  1 Co pz         
    20     -1.064293  1 Co py                21     -0.721351  1 Co pz         
    16      0.538648  1 Co px                19     -0.365339  1 Co px         
    11     -0.282722  1 Co py                12     -0.191624  1 Co pz         
    14     -0.137587  1 Co py                62     -0.126733  1 Co fyyy       
 
 Vector   27  Occ=0.000000D+00  E= 4.602084D-01
              MO Center= -1.6D-05, -4.0D-06,  9.2D-06, r^2= 3.6D+00
   Bfn.  Coefficient  Atom+Function         Bfn.  Coefficient  Atom+Function  
  ----- ------------  ---------------      ----- ------------  ---------------
    16      1.552198  1 Co px                18     -1.183924  1 Co pz         
    19     -1.052695  1 Co px                21      0.802929  1 Co pz         
    10     -0.279672  1 Co px                17      0.269612  1 Co py         
    12      0.213315  1 Co pz                20     -0.182848  1 Co py         
    13     -0.136058  1 Co px                56     -0.125197  1 Co fxxx       
 
 Vector   28  Occ=0.000000D+00  E= 4.704197D-01
              MO Center=  4.0D-06, -2.5D-06, -3.7D-06, r^2= 3.6D+00
   Bfn.  Coefficient  Atom+Function         Bfn.  Coefficient  Atom+Function  
  ----- ------------  ---------------      ----- ------------  ---------------
    17     -1.161629  1 Co py                18      1.162580  1 Co pz         
    16      1.088504  1 Co px                20      0.782155  1 Co py         
    21     -0.782798  1 Co pz                19     -0.732923  1 Co px         
    11      0.210030  1 Co py                12     -0.210205  1 Co pz         
    10     -0.196813  1 Co px                14      0.098549  1 Co py         
 
 Vector   29  Occ=0.000000D+00  E= 9.117203D-01
              MO Center= -2.0D-06,  3.4D-06,  4.0D-06, r^2= 2.5D+00
   Bfn.  Coefficient  Atom+Function         Bfn.  Coefficient  Atom+Function  
  ----- ------------  ---------------      ----- ------------  ---------------
    36      1.877693  1 Co dxz               35      1.566489  1 Co dxy        
    42     -0.934494  1 Co dxz               41     -0.779599  1 Co dxy        
    30     -0.697470  1 Co dxz               29     -0.582104  1 Co dxy        
    24     -0.500835  1 Co dxz               23     -0.417941  1 Co dxy        
    38      0.294108  1 Co dyz               44     -0.146374  1 Co dyz        
 
 Vector   30  Occ=0.000000D+00  E= 9.117259D-01
              MO Center= -3.2D-06, -3.2D-09,  5.2D-06, r^2= 2.5D+00
   Bfn.  Coefficient  Atom+Function         Bfn.  Coefficient  Atom+Function  
  ----- ------------  ---------------      ----- ------------  ---------------
    38      1.945672  1 Co dyz               35     -1.293453  1 Co dxy        
    44     -0.968322  1 Co dyz               36      0.774971  1 Co dxz        
    32     -0.722677  1 Co dyz               41      0.643750  1 Co dxy        
    26     -0.518945  1 Co dyz               29      0.480013  1 Co dxy        
    42     -0.385713  1 Co dxz               23      0.344787  1 Co dxy        
 
 Vector   31  Occ=0.000000D+00  E= 9.238080D-01
              MO Center= -2.5D-07,  2.2D-06,  3.1D-06, r^2= 2.4D+00
   Bfn.  Coefficient  Atom+Function         Bfn.  Coefficient  Atom+Function  
  ----- ------------  ---------------      ----- ------------  ---------------
    37      1.401173  1 Co dyy               39     -0.914631  1 Co dzz        
    43     -0.689930  1 Co dyy               31     -0.530227  1 Co dyy        
    34     -0.479244  1 Co dxx               45      0.455125  1 Co dzz        
    25     -0.377492  1 Co dyy               33      0.348311  1 Co dzz        
    27      0.247513  1 Co dzz               40      0.239840  1 Co dxx        
 
 Vector   32  Occ=0.000000D+00  E= 9.238742D-01
              MO Center= -3.2D-06,  5.4D-08,  4.4D-06, r^2= 2.4D+00
   Bfn.  Coefficient  Atom+Function         Bfn.  Coefficient  Atom+Function  
  ----- ------------  ---------------      ----- ------------  ---------------
    34      1.333436  1 Co dxx               39     -1.087529  1 Co dzz        
    40     -0.661029  1 Co dxx               45      0.535969  1 Co dzz        
    28     -0.506973  1 Co dxx               33      0.411856  1 Co dzz        
    22     -0.360418  1 Co dxx               27      0.293146  1 Co dzz        
    37     -0.250319  1 Co dyy               43      0.122016  1 Co dyy        
 
 Vector   33  Occ=0.000000D+00  E= 9.279419D-01
              MO Center= -2.5D-07, -1.7D-07,  2.3D-06, r^2= 2.4D+00
   Bfn.  Coefficient  Atom+Function         Bfn.  Coefficient  Atom+Function  
  ----- ------------  ---------------      ----- ------------  ---------------
    38      1.481852  1 Co dyz               35      1.386674  1 Co dxy        
    36     -1.389491  1 Co dxz               44     -0.731371  1 Co dyz        
     5     -0.688193  1 Co s                 41     -0.684399  1 Co dxy        
    42      0.685788  1 Co dxz               32     -0.559158  1 Co dyz        
    29     -0.523247  1 Co dxy               30      0.524320  1 Co dxz        
 
 Vector   34  Occ=0.000000D+00  E= 9.751960D-01
              MO Center=  6.7D-07, -3.1D-07, -1.2D-06, r^2= 7.4D+00
   Bfn.  Coefficient  Atom+Function         Bfn.  Coefficient  Atom+Function  
  ----- ------------  ---------------      ----- ------------  ---------------
     5     22.302886  1 Co s                 34     -7.017496  1 Co dxx        
    37     -7.019910  1 Co dyy               39     -7.020087  1 Co dzz        
     6      5.871694  1 Co s                  4     -5.616493  1 Co s          
    40     -4.648873  1 Co dxx               43     -4.647625  1 Co dyy        
    45     -4.647532  1 Co dzz               28     -1.449008  1 Co dxx        
 
 Vector   35  Occ=0.000000D+00  E= 2.341986D+00
              MO Center= -1.7D-05, -5.2D-05, -3.7D-05, r^2= 1.4D+00
   Bfn.  Coefficient  Atom+Function         Bfn.  Coefficient  Atom+Function  
  ----- ------------  ---------------      ----- ------------  ---------------
    17      1.396079  1 Co py                57     -1.098080  1 Co fxxy       
    64     -1.097893  1 Co fyzz              62     -1.048463  1 Co fyyy       
    18      0.932365  1 Co pz                63     -0.735523  1 Co fyyz       
    58     -0.729949  1 Co fxxz              65     -0.700525  1 Co fzzz       
    11      0.622508  1 Co py                20     -0.518234  1 Co py         
 
 Vector   36  Occ=0.000000D+00  E= 2.342112D+00
              MO Center=  8.5D-05,  1.3D-05, -6.8D-05, r^2= 1.4D+00
   Bfn.  Coefficient  Atom+Function         Bfn.  Coefficient  Atom+Function  
  ----- ------------  ---------------      ----- ------------  ---------------
    16      1.373575  1 Co px                59     -1.078372  1 Co fxyy       
    61     -1.078125  1 Co fxzz              18     -1.063218  1 Co pz         
    56     -1.032806  1 Co fxxx              58      0.840036  1 Co fxxz       
    63      0.834383  1 Co fyyz              65      0.797768  1 Co fzzz       
    10      0.612492  1 Co px                19     -0.509874  1 Co px         
 
 Vector   37  Occ=0.000000D+00  E= 2.352903D+00
              MO Center= -1.1D-05,  1.3D-05, -1.6D-05, r^2= 1.4D+00
   Bfn.  Coefficient  Atom+Function         Bfn.  Coefficient  Atom+Function  
  ----- ------------  ---------------      ----- ------------  ---------------
    17     -1.033202  1 Co py                18      1.032215  1 Co pz         
    16      0.964926  1 Co px                62      0.790175  1 Co fyyy       
    65     -0.789255  1 Co fzzz              57      0.782327  1 Co fxxy       
    58     -0.782399  1 Co fxxz              63     -0.773978  1 Co fyyz       
    64      0.775214  1 Co fyzz              56     -0.738370  1 Co fxxx       
 
 Vector   38  Occ=0.000000D+00  E= 2.374086D+00
              MO Center= -5.3D-05,  2.5D-05,  1.1D-04, r^2= 1.8D+00
   Bfn.  Coefficient  Atom+Function         Bfn.  Coefficient  Atom+Function  
  ----- ------------  ---------------      ----- ------------  ---------------
     5     10.810513  1 Co s                 34     -3.926153  1 Co dxx        
    37     -3.925939  1 Co dyy               39     -3.925927  1 Co dzz        
     4     -3.683703  1 Co s                  6      1.590980  1 Co s          
    40     -1.577808  1 Co dxx               43     -1.577870  1 Co dyy        
    45     -1.577873  1 Co dzz               28      0.551142  1 Co dxx        
 
 Vector   39  Occ=0.000000D+00  E= 2.630262D+00
              MO Center=  4.0D-07, -4.0D-07, -7.9D-07, r^2= 6.4D-01
   Bfn.  Coefficient  Atom+Function         Bfn.  Coefficient  Atom+Function  
  ----- ------------  ---------------      ----- ------------  ---------------
    60      3.585611  1 Co fxyz              58      0.317971  1 Co fxxz       
    57     -0.293377  1 Co fxxy              59      0.287709  1 Co fxyy       
    61      0.267472  1 Co fxzz              56     -0.231279  1 Co fxxx       
    65     -0.212464  1 Co fzzz              62      0.210334  1 Co fyyy       
    64     -0.190762  1 Co fyzz              63      0.171798  1 Co fyyz       
 
 Vector   40  Occ=0.000000D+00  E= 2.637279D+00
              MO Center=  3.1D-07, -3.8D-07, -6.5D-07, r^2= 6.4D-01
   Bfn.  Coefficient  Atom+Function         Bfn.  Coefficient  Atom+Function  
  ----- ------------  ---------------      ----- ------------  ---------------
    61      1.376942  1 Co fxzz              58      1.298450  1 Co fxxz       
    57      1.043693  1 Co fxxy              59     -0.938283  1 Co fxyy       
    62     -0.547509  1 Co fyyy              64      0.493059  1 Co fyzz       
    65     -0.384093  1 Co fzzz              63     -0.224731  1 Co fyyz       
    56     -0.156657  1 Co fxxx              51      0.060368  1 Co fxzz       
 
 Vector   41  Occ=0.000000D+00  E= 2.637305D+00
              MO Center=  4.1D-07, -3.2D-07, -6.5D-07, r^2= 6.4D-01
   Bfn.  Coefficient  Atom+Function         Bfn.  Coefficient  Atom+Function  
  ----- ------------  ---------------      ----- ------------  ---------------
    63      1.341256  1 Co fyyz              64     -1.261351  1 Co fyzz       
    59     -1.152334  1 Co fxyy              57      0.753545  1 Co fxxy       
    56      0.589635  1 Co fxxx              61     -0.506395  1 Co fxzz       
    65     -0.429252  1 Co fzzz              62      0.177419  1 Co fyyy       
    60      0.157351  1 Co fxyz              58     -0.130638  1 Co fxxz       
 
 Vector   42  Occ=0.000000D+00  E= 2.637684D+00
              MO Center=  4.9D-07, -5.0D-07, -9.8D-07, r^2= 6.4D-01
   Bfn.  Coefficient  Atom+Function         Bfn.  Coefficient  Atom+Function  
  ----- ------------  ---------------      ----- ------------  ---------------
    57      1.164888  1 Co fxxy              58      1.141242  1 Co fxxz       
    61     -1.077962  1 Co fxzz              63     -1.076704  1 Co fyyz       
    64     -1.080282  1 Co fyzz              59      1.055610  1 Co fxyy       
    47      0.049865  1 Co fxxy              48      0.048847  1 Co fxxz       
    51     -0.046131  1 Co fxzz              53     -0.046060  1 Co fyyz       
 
 Vector   43  Occ=0.000000D+00  E= 2.651863D+00
              MO Center=  3.6D-08, -5.4D-07, -4.0D-07, r^2= 6.4D-01
   Bfn.  Coefficient  Atom+Function         Bfn.  Coefficient  Atom+Function  
  ----- ------------  ---------------      ----- ------------  ---------------
    63      1.404305  1 Co fyyz              59      1.212467  1 Co fxyy       
    64      1.015660  1 Co fyzz              57      0.727565  1 Co fxxy       
    61     -0.696223  1 Co fxzz              62     -0.613075  1 Co fyyy       
    65     -0.389623  1 Co fzzz              58     -0.298204  1 Co fxxz       
    56     -0.183972  1 Co fxxx              60      0.060799  1 Co fxyz       
 
 Vector   44  Occ=0.000000D+00  E= 2.651945D+00
              MO Center=  5.3D-07, -1.1D-08, -5.6D-07, r^2= 6.4D-01
   Bfn.  Coefficient  Atom+Function         Bfn.  Coefficient  Atom+Function  
  ----- ------------  ---------------      ----- ------------  ---------------
    58      1.421107  1 Co fxxz              57     -1.269135  1 Co fxxy       
    61     -1.062564  1 Co fxzz              64      0.967403  1 Co fyzz       
    56      0.491951  1 Co fxxx              65     -0.479726  1 Co fzzz       
    59     -0.320385  1 Co fxyy              60     -0.158679  1 Co fxyz       
    62      0.105063  1 Co fyyy              48      0.060942  1 Co fxxz       
 
 Vector   45  Occ=0.000000D+00  E= 2.663832D+00
              MO Center=  3.0D-07, -3.0D-07, -5.3D-07, r^2= 6.4D-01
   Bfn.  Coefficient  Atom+Function         Bfn.  Coefficient  Atom+Function  
  ----- ------------  ---------------      ----- ------------  ---------------
    60      1.257464  1 Co fxyz              59     -0.877680  1 Co fxyy       
    61     -0.865349  1 Co fxzz              64      0.866868  1 Co fyzz       
    63     -0.861537  1 Co fyyz              58     -0.724847  1 Co fxxz       
    57      0.707830  1 Co fxxy              56      0.557344  1 Co fxxx       
    65      0.503210  1 Co fzzz              62     -0.498862  1 Co fyyy       
 
 Vector   46  Occ=0.000000D+00  E= 3.342887D+00
              MO Center= -1.1D-06,  2.0D-06,  3.0D-06, r^2= 9.7D-01
   Bfn.  Coefficient  Atom+Function         Bfn.  Coefficient  Atom+Function  
  ----- ------------  ---------------      ----- ------------  ---------------
    30      2.698404  1 Co dxz               29      1.857985  1 Co dxy        
    36     -1.352981  1 Co dxz               24     -1.051069  1 Co dxz        
    35     -0.931547  1 Co dxy               32      0.774394  1 Co dyz        
    23     -0.723752  1 Co dxy               68     -0.671840  1 Co gxxxz      
    73     -0.669350  1 Co gxyyz             75     -0.672120  1 Co gxzzz      
 
 Vector   47  Occ=0.000000D+00  E= 3.342914D+00
              MO Center= -2.6D-06,  4.8D-07,  3.5D-06, r^2= 9.7D-01
   Bfn.  Coefficient  Atom+Function         Bfn.  Coefficient  Atom+Function  
  ----- ------------  ---------------      ----- ------------  ---------------
    32      2.585513  1 Co dyz               29     -2.080140  1 Co dxy        
    38     -1.296370  1 Co dyz               35      1.043030  1 Co dxy        
    26     -1.007100  1 Co dyz               23      0.810205  1 Co dxy        
    30      0.713282  1 Co dxz               70     -0.641159  1 Co gxxyz      
    77     -0.643780  1 Co gyyyz             79     -0.644034  1 Co gyzzz      
 
 Vector   48  Occ=0.000000D+00  E= 3.367842D+00
              MO Center= -1.1D-06,  1.7D-06,  2.7D-06, r^2= 9.7D-01
   Bfn.  Coefficient  Atom+Function         Bfn.  Coefficient  Atom+Function  
  ----- ------------  ---------------      ----- ------------  ---------------
    31      1.923875  1 Co dyy               33     -1.195269  1 Co dzz        
    37     -0.960201  1 Co dyy               25     -0.750934  1 Co dyy        
    28     -0.728974  1 Co dxx               39      0.597267  1 Co dzz        
    71      0.480516  1 Co gxxzz             76     -0.481207  1 Co gyyyy      
    27      0.466457  1 Co dzz               29      0.425454  1 Co dxy        
 
 Vector   49  Occ=0.000000D+00  E= 3.367893D+00
              MO Center= -2.3D-06,  8.0D-07,  3.6D-06, r^2= 9.7D-01
   Bfn.  Coefficient  Atom+Function         Bfn.  Coefficient  Atom+Function  
  ----- ------------  ---------------      ----- ------------  ---------------
    28      1.816478  1 Co dxx               33     -1.536885  1 Co dzz        
    34     -0.907228  1 Co dxx               39      0.767141  1 Co dzz        
    22     -0.708965  1 Co dxx               27      0.599876  1 Co dzz        
    66     -0.454252  1 Co gxxxx             78      0.453742  1 Co gyyzz      
    32     -0.407704  1 Co dyz               69     -0.383978  1 Co gxxyy      
 
 Vector   50  Occ=0.000000D+00  E= 3.370506D+00
              MO Center= -8.4D-07,  5.0D-07,  2.2D-06, r^2= 9.7D-01
   Bfn.  Coefficient  Atom+Function         Bfn.  Coefficient  Atom+Function  
  ----- ------------  ---------------      ----- ------------  ---------------
    32      2.052464  1 Co dyz               30     -1.933803  1 Co dxz        
    29      1.921916  1 Co dxy               38     -1.025597  1 Co dyz        
    36      0.966268  1 Co dxz               35     -0.960352  1 Co dxy        
    26     -0.800301  1 Co dyz               24      0.754058  1 Co dxz        
    23     -0.749406  1 Co dxy               70     -0.514160  1 Co gxxyz      
 
 Vector   51  Occ=0.000000D+00  E= 8.314097D+00
              MO Center=  2.2D-06, -3.2D-07, -3.7D-06, r^2= 5.5D-01
   Bfn.  Coefficient  Atom+Function         Bfn.  Coefficient  Atom+Function  
  ----- ------------  ---------------      ----- ------------  ---------------
     5      3.143673  1 Co s                  4     -2.014148  1 Co s          
    69     -1.778594  1 Co gxxyy             71     -1.778669  1 Co gxxzz      
    78     -1.776097  1 Co gyyzz             34     -1.279299  1 Co dxx        
    37     -1.279158  1 Co dyy               39     -1.279156  1 Co dzz        
    28      1.084927  1 Co dxx               31      1.084445  1 Co dyy        
 
 Vector   52  Occ=0.000000D+00  E= 9.174766D+00
              MO Center=  2.0D-05, -3.3D-05, -5.1D-05, r^2= 4.9D-01
   Bfn.  Coefficient  Atom+Function         Bfn.  Coefficient  Atom+Function  
  ----- ------------  ---------------      ----- ------------  ---------------
    73     -2.636012  1 Co gxyyz             30      2.616042  1 Co dxz        
    68     -2.572931  1 Co gxxxz             75     -2.567852  1 Co gxzzz      
    74     -1.746898  1 Co gxyzz             29      1.733201  1 Co dxy        
    67     -1.716058  1 Co gxxxy             72     -1.689791  1 Co gxyyy      
    24      1.202833  1 Co dxz               70     -0.812818  1 Co gxxyz      
 
 Vector   53  Occ=0.000000D+00  E= 9.174813D+00
              MO Center=  6.1D-05,  1.7D-05, -7.8D-05, r^2= 4.9D-01
   Bfn.  Coefficient  Atom+Function         Bfn.  Coefficient  Atom+Function  
  ----- ------------  ---------------      ----- ------------  ---------------
    70     -2.502275  1 Co gxxyz             32      2.473925  1 Co dyz        
    77     -2.435882  1 Co gyyyz             79     -2.422489  1 Co gyzzz      
    74      2.071998  1 Co gxyzz             29     -2.057043  1 Co dxy        
    72      2.035625  1 Co gxyyy             67      2.006837  1 Co gxxxy      
    26      1.137497  1 Co dyz               23     -0.945759  1 Co dxy        
 
 Vector   54  Occ=0.000000D+00  E= 9.191311D+00
              MO Center=  6.7D-06,  6.3D-06, -1.1D-05, r^2= 4.9D-01
   Bfn.  Coefficient  Atom+Function         Bfn.  Coefficient  Atom+Function  
  ----- ------------  ---------------      ----- ------------  ---------------
    14     13.719630  1 Co py                15      8.986467  1 Co pz         
    57     -7.244544  1 Co fxxy              62     -7.244071  1 Co fyyy       
    64     -7.245038  1 Co fyzz              13      5.162659  1 Co px         
    58     -4.744115  1 Co fxxz              63     -4.746701  1 Co fyyz       
    65     -4.744924  1 Co fzzz              11     -2.984644  1 Co py         
 
 Vector   55  Occ=0.000000D+00  E= 9.191422D+00
              MO Center=  2.3D-05, -2.0D-05, -1.7D-05, r^2= 4.9D-01
   Bfn.  Coefficient  Atom+Function         Bfn.  Coefficient  Atom+Function  
  ----- ------------  ---------------      ----- ------------  ---------------
    13     13.414002  1 Co px                15    -10.589403  1 Co pz         
    56     -7.082812  1 Co fxxx              59     -7.082672  1 Co fxyy       
    61     -7.083830  1 Co fxzz              58      5.592903  1 Co fxxz       
    63      5.590781  1 Co fyyz              65      5.591292  1 Co fzzz       
    10     -2.918168  1 Co px                12      2.303682  1 Co pz         
 
 Vector   56  Occ=0.000000D+00  E= 9.198153D+00
              MO Center= -1.1D-05,  1.8D-05, -3.8D-05, r^2= 4.9D-01
   Bfn.  Coefficient  Atom+Function         Bfn.  Coefficient  Atom+Function  
  ----- ------------  ---------------      ----- ------------  ---------------
    14    -10.189036  1 Co py                15     10.135023  1 Co pz         
    13      9.435322  1 Co px                57      5.380010  1 Co fxxy       
    62      5.381074  1 Co fyyy              64      5.379776  1 Co fyzz       
    58     -5.351502  1 Co fxxz              63     -5.351264  1 Co fyyz       
    65     -5.352550  1 Co fzzz              56     -4.983099  1 Co fxxx       
 
 Vector   57  Occ=0.000000D+00  E= 9.208483D+00
              MO Center=  3.4D-06, -1.4D-05,  5.0D-05, r^2= 4.9D-01
   Bfn.  Coefficient  Atom+Function         Bfn.  Coefficient  Atom+Function  
  ----- ------------  ---------------      ----- ------------  ---------------
    32      2.039772  1 Co dyz               77     -2.015702  1 Co gyyyz      
    79     -2.016037  1 Co gyzzz             70     -1.995586  1 Co gxxyz      
    29      1.897827  1 Co dxy               67     -1.878421  1 Co gxxxy      
    72     -1.874126  1 Co gxyyy             30     -1.864103  1 Co dxz        
    68      1.844555  1 Co gxxxz             74     -1.852410  1 Co gxyzz      
 
 Vector   58  Occ=0.000000D+00  E= 9.210316D+00
              MO Center= -4.6D-05,  1.8D-05,  3.0D-05, r^2= 4.9D-01
   Bfn.  Coefficient  Atom+Function         Bfn.  Coefficient  Atom+Function  
  ----- ------------  ---------------      ----- ------------  ---------------
    71      1.860571  1 Co gxxzz             31      1.849924  1 Co dyy        
    76     -1.821409  1 Co gyyyy             28     -1.191694  1 Co dxx        
    78     -1.197651  1 Co gyyzz             66      1.172691  1 Co gxxxx      
    25      0.852856  1 Co dyy               30      0.696676  1 Co dxz        
    68     -0.690731  1 Co gxxxz             75     -0.690862  1 Co gxzzz      
 
 Vector   59  Occ=0.000000D+00  E= 9.210320D+00
              MO Center= -5.8D-05,  7.1D-06,  1.2D-04, r^2= 4.9D-01
   Bfn.  Coefficient  Atom+Function         Bfn.  Coefficient  Atom+Function  
  ----- ------------  ---------------      ----- ------------  ---------------
    69      1.762550  1 Co gxxyy             33      1.752373  1 Co dzz        
    80     -1.725195  1 Co gzzzz             78     -1.478957  1 Co gyyzz      
    28     -1.471399  1 Co dxx               66      1.448190  1 Co gxxxx      
    27      0.807870  1 Co dzz               22     -0.678354  1 Co dxx        
    29     -0.570495  1 Co dxy               72      0.567736  1 Co gxyyy      
 
 Vector   60  Occ=0.000000D+00  E= 9.915368D+00
              MO Center=  3.0D-07,  1.8D-07, -4.3D-07, r^2= 3.1D-01
   Bfn.  Coefficient  Atom+Function         Bfn.  Coefficient  Atom+Function  
  ----- ------------  ---------------      ----- ------------  ---------------
    73      3.630443  1 Co gxyyz             74     -3.623027  1 Co gxyzz      
    70     -3.068160  1 Co gxxyz             71     -1.108003  1 Co gxxzz      
    69     -1.091807  1 Co gxxyy             78     -0.859903  1 Co gyyzz      
    72      0.660010  1 Co gxyyy             75     -0.625904  1 Co gxzzz      
    68     -0.581485  1 Co gxxxz             67      0.545194  1 Co gxxxy      
 
 Vector   61  Occ=0.000000D+00  E= 9.923956D+00
              MO Center=  2.1D-07,  8.0D-08, -2.9D-07, r^2= 3.1D-01
   Bfn.  Coefficient  Atom+Function         Bfn.  Coefficient  Atom+Function  
  ----- ------------  ---------------      ----- ------------  ---------------
    73      5.103771  1 Co gxyyz             74      3.690386  1 Co gxyzz      
    70      1.715767  1 Co gxxyz             67     -0.897671  1 Co gxxxy      
    68     -0.892378  1 Co gxxxz             75     -0.852130  1 Co gxzzz      
    71     -0.677068  1 Co gxxzz             79     -0.521374  1 Co gyzzz      
    69      0.463502  1 Co gxxyy             72     -0.361533  1 Co gxyyy      
 
 Vector   62  Occ=0.000000D+00  E= 9.924051D+00
              MO Center=  5.0D-07,  2.4D-07, -5.7D-07, r^2= 3.1D-01
   Bfn.  Coefficient  Atom+Function         Bfn.  Coefficient  Atom+Function  
  ----- ------------  ---------------      ----- ------------  ---------------
    70      5.242238  1 Co gxxyz             74     -3.613454  1 Co gxyzz      
    77     -0.962300  1 Co gyyyz             72      0.945598  1 Co gxyyy      
    78      0.834965  1 Co gyyzz             79     -0.826692  1 Co gyzzz      
    73      0.745275  1 Co gxyyz             75     -0.571796  1 Co gxzzz      
    69     -0.529166  1 Co gxxyy             68      0.312010  1 Co gxxxz      
 
 Vector   63  Occ=0.000000D+00  E= 9.927767D+00
              MO Center=  3.9D-07,  1.6D-07, -4.3D-07, r^2= 3.1D-01
   Bfn.  Coefficient  Atom+Function         Bfn.  Coefficient  Atom+Function  
  ----- ------------  ---------------      ----- ------------  ---------------
    72     -1.740213  1 Co gxyyy             75     -1.745831  1 Co gxzzz      
    67      1.697859  1 Co gxxxy             68      1.697451  1 Co gxxxz      
    77      1.675322  1 Co gyyyz             79     -1.658298  1 Co gyzzz      
    69     -0.264939  1 Co gxxyy             71      0.211292  1 Co gxxzz      
    73      0.144589  1 Co gxyyz             74      0.125618  1 Co gxyzz      
 
 Vector   64  Occ=0.000000D+00  E= 9.934574D+00
              MO Center=  2.0D-07,  1.5D-07, -3.4D-07, r^2= 3.1D-01
   Bfn.  Coefficient  Atom+Function         Bfn.  Coefficient  Atom+Function  
  ----- ------------  ---------------      ----- ------------  ---------------
    78      3.168321  1 Co gyyzz             69     -2.272969  1 Co gxxyy      
    70     -1.429663  1 Co gxxyz             68      1.132493  1 Co gxxxz      
    67     -1.068118  1 Co gxxxy             74      1.035389  1 Co gxyzz      
    75     -0.951818  1 Co gxzzz             72      0.662175  1 Co gxyyy      
    71     -0.643146  1 Co gxxzz             79      0.575781  1 Co gyzzz      
 
 Vector   65  Occ=0.000000D+00  E= 9.934644D+00
              MO Center=  3.6D-07,  2.3D-07, -4.8D-07, r^2= 3.1D-01
   Bfn.  Coefficient  Atom+Function         Bfn.  Coefficient  Atom+Function  
  ----- ------------  ---------------      ----- ------------  ---------------
    71      3.264528  1 Co gxxzz             69     -2.433238  1 Co gxxyy      
    77     -1.149260  1 Co gyyyz             73      1.125641  1 Co gxyyz      
    79      0.979427  1 Co gyzzz             78     -0.914159  1 Co gyyzz      
    72     -0.742209  1 Co gxyyy             74      0.649297  1 Co gxyzz      
    76      0.579345  1 Co gyyyy             67      0.473886  1 Co gxxxy      
 
 Vector   66  Occ=0.000000D+00  E= 9.956522D+00
              MO Center=  1.5D-07,  1.9D-07, -3.0D-07, r^2= 3.1D-01
   Bfn.  Coefficient  Atom+Function         Bfn.  Coefficient  Atom+Function  
  ----- ------------  ---------------      ----- ------------  ---------------
    77      2.062730  1 Co gyyyz             79     -2.007715  1 Co gyzzz      
    71      1.701677  1 Co gxxzz             72      1.703790  1 Co gxyyy      
    67     -1.635789  1 Co gxxxy             69     -0.902115  1 Co gxxyy      
    78     -0.622135  1 Co gyyzz             75      0.468521  1 Co gxzzz      
    68     -0.406863  1 Co gxxxz             76      0.267612  1 Co gyyyy      
 
 Vector   67  Occ=0.000000D+00  E= 9.956560D+00
              MO Center=  4.5D-07,  1.7D-07, -5.0D-07, r^2= 3.1D-01
   Bfn.  Coefficient  Atom+Function         Bfn.  Coefficient  Atom+Function  
  ----- ------------  ---------------      ----- ------------  ---------------
    68      2.063713  1 Co gxxxz             75     -2.073224  1 Co gxzzz      
    78     -1.680023  1 Co gyyzz             69      1.558826  1 Co gxxyy      
    67     -1.305273  1 Co gxxxy             72      1.281731  1 Co gxyyy      
    79      0.830690  1 Co gyzzz             77     -0.650878  1 Co gyyyz      
[...]
    23      1.020111  1 Co dxy               26     -1.023795  1 Co dyz        
 
 Vector   60  Occ=0.000000D+00  E= 1.001364D+01
              MO Center=  3.5D-07,  1.0D-07, -3.6D-07, r^2= 3.1D-01
   Bfn.  Coefficient  Atom+Function         Bfn.  Coefficient  Atom+Function  
  ----- ------------  ---------------      ----- ------------  ---------------
    79     -1.898041  1 Co gyzzz             77      1.859558  1 Co gyyyz      
    71      1.808446  1 Co gxxzz             69     -1.653404  1 Co gxxyy      
    73      1.463630  1 Co gxyyz             67     -1.342583  1 Co gxxxy      
    74      1.337394  1 Co gxyzz             68     -1.159950  1 Co gxxxz      
    72      0.906860  1 Co gxyyy             75      0.682498  1 Co gxzzz      
 
 Vector   61  Occ=0.000000D+00  E= 1.001377D+01
              MO Center=  5.1D-07,  1.8D-07, -4.1D-07, r^2= 3.1D-01
   Bfn.  Coefficient  Atom+Function         Bfn.  Coefficient  Atom+Function  
  ----- ------------  ---------------      ----- ------------  ---------------
    78      2.127518  1 Co gyyzz             75      1.781051  1 Co gxzzz      
    72     -1.691168  1 Co gxyyy             68     -1.553917  1 Co gxxxz      
    70     -1.480482  1 Co gxxyz             67      1.390188  1 Co gxxxy      
    69     -1.321150  1 Co gxxyy             71     -1.082157  1 Co gxxzz      
    74      0.921463  1 Co gxyzz             73     -0.696234  1 Co gxyyz      
 
 Vector   62  Occ=0.000000D+00  E= 1.001808D+01
              MO Center=  1.5D-07,  2.1D-07, -3.5D-07, r^2= 3.1D-01
   Bfn.  Coefficient  Atom+Function         Bfn.  Coefficient  Atom+Function  
  ----- ------------  ---------------      ----- ------------  ---------------
    78      2.097909  1 Co gyyzz             69      2.075314  1 Co gxxyy      
    71      2.064441  1 Co gxxzz             73      1.738633  1 Co gxyyz      
    74     -1.718695  1 Co gxyzz             70     -1.335918  1 Co gxxyz      
    76     -0.696816  1 Co gyyyy             66     -0.692293  1 Co gxxxx      
    80     -0.695055  1 Co gzzzz             67      0.429878  1 Co gxxxy      
 
 Vector   63  Occ=0.000000D+00  E= 1.002712D+01
              MO Center=  2.1D-07,  8.1D-08, -2.7D-07, r^2= 3.1D-01
   Bfn.  Coefficient  Atom+Function         Bfn.  Coefficient  Atom+Function  
  ----- ------------  ---------------      ----- ------------  ---------------
    70      2.775774  1 Co gxxyz             78     -2.469154  1 Co gyyzz      
    67      1.531665  1 Co gxxxy             68     -1.492005  1 Co gxxxz      
    74     -1.290356  1 Co gxyzz             73      1.160169  1 Co gxyyz      
    72     -1.105082  1 Co gxyyy             75      1.108423  1 Co gxzzz      
    69      1.088458  1 Co gxxyy             71      0.990884  1 Co gxxzz      
 
 Vector   64  Occ=0.000000D+00  E= 1.002726D+01
              MO Center=  2.3D-07,  2.8D-07, -4.4D-07, r^2= 3.1D-01
   Bfn.  Coefficient  Atom+Function         Bfn.  Coefficient  Atom+Function  
  ----- ------------  ---------------      ----- ------------  ---------------
    71     -2.263360  1 Co gxxzz             69      2.211577  1 Co gxxyy      
    73     -2.153895  1 Co gxyyz             74     -2.076051  1 Co gxyzz      
    77      1.434071  1 Co gyyyz             79     -1.400661  1 Co gyzzz      
    72      1.100130  1 Co gxyyy             75      1.072644  1 Co gxzzz      
    67     -0.415266  1 Co gxxxy             76     -0.384820  1 Co gyyyy      
 
 Vector   65  Occ=0.000000D+00  E= 1.002755D+01
              MO Center=  3.2D-07,  1.5D-07, -3.8D-07, r^2= 3.1D-01
   Bfn.  Coefficient  Atom+Function         Bfn.  Coefficient  Atom+Function  
  ----- ------------  ---------------      ----- ------------  ---------------
    77      1.793334  1 Co gyyyz             79     -1.776961  1 Co gyzzz      
    68      1.685455  1 Co gxxxz             75     -1.687675  1 Co gxzzz      
    67      1.648828  1 Co gxxxy             72     -1.646570  1 Co gxyyy      
    69     -0.087440  1 Co gxxyy             70     -0.049840  1 Co gxxyz      
 
 Vector   66  Occ=0.000000D+00  E= 1.003173D+01
              MO Center=  6.8D-08,  1.4D-08, -2.1D-07, r^2= 3.1D-01
   Bfn.  Coefficient  Atom+Function         Bfn.  Coefficient  Atom+Function  
  ----- ------------  ---------------      ----- ------------  ---------------
    73      4.222237  1 Co gxyyz             74      3.683084  1 Co gxyzz      
    71     -1.925133  1 Co gxxzz             69      1.620149  1 Co gxxyy      
    70      0.755054  1 Co gxxyz             75     -0.720844  1 Co gxzzz      
    68     -0.709521  1 Co gxxxz             67     -0.688566  1 Co gxxxy      
    72     -0.558121  1 Co gxyyy             76     -0.318995  1 Co gyyyy      
 
 Vector   67  Occ=0.000000D+00  E= 1.003180D+01
              MO Center=  3.2D-07,  3.5D-07, -4.9D-07, r^2= 3.1D-01
   Bfn.  Coefficient  Atom+Function         Bfn.  Coefficient  Atom+Function  
  ----- ------------  ---------------      ----- ------------  ---------------
    70      4.826898  1 Co gxxyz             74     -2.451372  1 Co gxyzz      
    78      2.119988  1 Co gyyzz             69     -1.283368  1 Co gxxyy      
    73      1.223456  1 Co gxyyz             77     -0.832014  1 Co gyyyz      
    79     -0.800173  1 Co gyzzz             71     -0.782905  1 Co gxxzz      
    72      0.648597  1 Co gxyyy             75     -0.443102  1 Co gxzzz      
 
 Vector   68  Occ=0.000000D+00  E= 1.004164D+01
              MO Center=  2.6D-07,  1.8D-07, -3.6D-07, r^2= 3.1D-01
   Bfn.  Coefficient  Atom+Function         Bfn.  Coefficient  Atom+Function  
  ----- ------------  ---------------      ----- ------------  ---------------
    73      3.747495  1 Co gxyyz             74     -3.723270  1 Co gxyzz      
    70     -3.068805  1 Co gxxyz             71     -1.036859  1 Co gxxzz      
    69     -1.029943  1 Co gxxyy             78     -0.756774  1 Co gyyzz      
    72      0.659247  1 Co gxyyy             75     -0.633993  1 Co gxzzz      
    68     -0.605816  1 Co gxxxz             67      0.572489  1 Co gxxxy      
 
 Vector   69  Occ=0.000000D+00  E= 1.045635D+01
              MO Center= -6.0D-07, -1.1D-07,  8.7D-07, r^2= 2.1D-01
   Bfn.  Coefficient  Atom+Function         Bfn.  Coefficient  Atom+Function  
  ----- ------------  ---------------      ----- ------------  ---------------
    49      0.993993  1 Co fxyy              51      0.971788  1 Co fxzz       
    54     -0.957273  1 Co fyzz              53      0.943714  1 Co fyyz       
    48      0.837263  1 Co fxxz              47     -0.816639  1 Co fxxy       
    46     -0.655354  1 Co fxxx              52      0.591422  1 Co fyyy       
    55     -0.593770  1 Co fzzz              59     -0.389212  1 Co fxyy       
 
 Vector   70  Occ=0.000000D+00  E= 1.049024D+01
              MO Center= -2.4D-07, -8.7D-08,  8.6D-07, r^2= 2.1D-01
   Bfn.  Coefficient  Atom+Function         Bfn.  Coefficient  Atom+Function  
  ----- ------------  ---------------      ----- ------------  ---------------
    53      1.467002  1 Co fyyz              54      1.372846  1 Co fyzz       
    49      1.001873  1 Co fxyy              51     -0.758354  1 Co fxzz       
    52     -0.680362  1 Co fyyy              47      0.669040  1 Co fxxy       
    55     -0.581749  1 Co fzzz              63     -0.570681  1 Co fyyz       
    64     -0.533674  1 Co fyzz              59     -0.390534  1 Co fxyy       
 
 Vector   71  Occ=0.000000D+00  E= 1.049044D+01
              MO Center= -7.1D-07, -1.8D-07,  7.3D-07, r^2= 2.1D-01
   Bfn.  Coefficient  Atom+Function         Bfn.  Coefficient  Atom+Function  
  ----- ------------  ---------------      ----- ------------  ---------------
    48     -1.521540  1 Co fxxz              47      1.394340  1 Co fxxy       
    51      1.093950  1 Co fxzz              49      0.831747  1 Co fxyy       
    46     -0.641608  1 Co fxxx              58      0.592247  1 Co fxxz       
    57     -0.543093  1 Co fxxy              54     -0.507986  1 Co fyzz       
    55      0.456775  1 Co fzzz              61     -0.424675  1 Co fxzz       
 
 Vector   72  Occ=0.000000D+00  E= 1.049180D+01
              MO Center= -8.2D-07,  8.0D-09,  9.9D-07, r^2= 2.1D-01
   Bfn.  Coefficient  Atom+Function         Bfn.  Coefficient  Atom+Function  
  ----- ------------  ---------------      ----- ------------  ---------------
    47      1.264148  1 Co fxxy              48      1.226578  1 Co fxxz       
    53     -1.175138  1 Co fyyz              51     -1.167169  1 Co fxzz       
    54     -1.169452  1 Co fyzz              49      1.160784  1 Co fxyy       
    57     -0.493293  1 Co fxxy              58     -0.478640  1 Co fxxz       
    63      0.458631  1 Co fyyz              61      0.455486  1 Co fxzz       
 
 Vector   73  Occ=0.000000D+00  E= 1.051318D+01
              MO Center= -5.4D-07, -2.8D-07,  9.2D-07, r^2= 2.1D-01
   Bfn.  Coefficient  Atom+Function         Bfn.  Coefficient  Atom+Function  
  ----- ------------  ---------------      ----- ------------  ---------------
    54     -1.557044  1 Co fyzz              53      1.543992  1 Co fyyz       
    49     -0.886449  1 Co fxyy              47      0.801600  1 Co fxxy       
    51     -0.728367  1 Co fxzz              48     -0.678607  1 Co fxxz       
    64      0.606895  1 Co fyzz              63     -0.601750  1 Co fyyz       
    46      0.539350  1 Co fxxx              59      0.344895  1 Co fxyy       
 
 Vector   74  Occ=0.000000D+00  E= 1.051335D+01
              MO Center= -5.3D-07,  7.5D-08,  6.9D-07, r^2= 2.1D-01
   Bfn.  Coefficient  Atom+Function         Bfn.  Coefficient  Atom+Function  
  ----- ------------  ---------------      ----- ------------  ---------------
    51     -1.495627  1 Co fxzz              49      1.422893  1 Co fxyy       
    48     -1.327367  1 Co fxxz              47     -1.234851  1 Co fxxy       
    61      0.583061  1 Co fxzz              59     -0.554837  1 Co fxyy       
    58      0.516886  1 Co fxxz              57      0.480831  1 Co fxxy       
    52      0.418312  1 Co fyyy              55      0.395533  1 Co fzzz       
 
 Vector   75  Occ=0.000000D+00  E= 1.051811D+01
              MO Center= -6.0D-07, -7.0D-08,  8.6D-07, r^2= 2.1D-01
   Bfn.  Coefficient  Atom+Function         Bfn.  Coefficient  Atom+Function  
  ----- ------------  ---------------      ----- ------------  ---------------
    50      4.114645  1 Co fxyz              60     -1.604652  1 Co fxyz       
    48      0.174774  1 Co fxxz              47     -0.164787  1 Co fxxy       
    49      0.099098  1 Co fxyy              51      0.073032  1 Co fxzz       
    58     -0.066046  1 Co fxxz              57      0.062145  1 Co fxxy       
    46     -0.057871  1 Co fxxx              52      0.054352  1 Co fyyy       
 
 Vector   76  Occ=0.000000D+00  E= 2.275361D+01
              MO Center=  6.0D-09,  3.3D-08,  1.8D-08, r^2= 2.4D-01
   Bfn.  Coefficient  Atom+Function         Bfn.  Coefficient  Atom+Function  
  ----- ------------  ---------------      ----- ------------  ---------------
    14      4.730877  1 Co py                15      3.435289  1 Co pz         
    11      3.066038  1 Co py                57     -2.854956  1 Co fxxy       
    62     -2.854897  1 Co fyyy              64     -2.855035  1 Co fyzz       
    47     -2.715078  1 Co fxxy              52     -2.714614  1 Co fyyy       
    54     -2.714883  1 Co fyzz              12      2.226368  1 Co pz         
 
 Vector   77  Occ=0.000000D+00  E= 2.275371D+01
              MO Center= -2.2D-09,  1.0D-08,  3.8D-09, r^2= 2.4D-01
   Bfn.  Coefficient  Atom+Function         Bfn.  Coefficient  Atom+Function  
  ----- ------------  ---------------      ----- ------------  ---------------
    13      4.796282  1 Co px                15     -3.448223  1 Co pz         
    10      3.108403  1 Co px                56     -2.894374  1 Co fxxx       
    59     -2.894405  1 Co fxyy              61     -2.894492  1 Co fxzz       
    46     -2.752118  1 Co fxxx              49     -2.752633  1 Co fxyy       
    51     -2.752410  1 Co fxzz              12     -2.234706  1 Co pz         
 
 Vector   78  Occ=0.000000D+00  E= 2.275744D+01
              MO Center= -8.2D-09,  1.9D-08, -5.7D-09, r^2= 2.4D-01
   Bfn.  Coefficient  Atom+Function         Bfn.  Coefficient  Atom+Function  
  ----- ------------  ---------------      ----- ------------  ---------------
    14     -3.542345  1 Co py                15      3.527965  1 Co pz         
    13      3.348096  1 Co px                11     -2.291383  1 Co py         
    12      2.282056  1 Co pz                10      2.165761  1 Co px         
    57      2.137216  1 Co fxxy              58     -2.128538  1 Co fxxz       
    62      2.137265  1 Co fyyy              63     -2.128530  1 Co fyyz       
 
 Vector   79  Occ=0.000000D+00  E= 6.072337D+01
              MO Center= -5.4D-09, -4.1D-09,  7.7D-09, r^2= 7.3D-02
   Bfn.  Coefficient  Atom+Function         Bfn.  Coefficient  Atom+Function  
  ----- ------------  ---------------      ----- ------------  ---------------
     3     30.471452  1 Co s                 22    -16.822413  1 Co dxx        
    25    -16.822410  1 Co dyy               27    -16.822409  1 Co dzz        
     4      6.712543  1 Co s                  2      6.199705  1 Co s          
    28     -1.503687  1 Co dxx               31     -1.503681  1 Co dyy        
    33     -1.503681  1 Co dzz                5     -0.746272  1 Co s          
 
 Vector   80  Occ=0.000000D+00  E= 1.772524D+02
              MO Center=  2.7D-10, -4.6D-10, -8.1D-11, r^2= 1.0D+00
   Bfn.  Coefficient  Atom+Function         Bfn.  Coefficient  Atom+Function  
  ----- ------------  ---------------      ----- ------------  ---------------
     4    117.224852  1 Co s                  3    -53.422950  1 Co s          
    28    -22.057037  1 Co dxx               31    -22.057032  1 Co dyy        
    33    -22.057032  1 Co dzz                2    -18.397730  1 Co s          
    69    -13.131697  1 Co gxxyy             71    -13.131697  1 Co gxxzz      
    78    -13.131708  1 Co gyyzz             66     -6.565887  1 Co gxxxx      
 

   alpha - beta orbital overlaps 
   ----------------------------- 


   alpha      1      2      3      4      5      6      7      8      9     10
    beta      1      2      3      5      4      6      9      7      8     14
 overlap   1.000  1.000  1.000  0.901  0.901  1.000  0.997  0.996  0.997  0.996


   alpha     11     12     13     14     15     16     17     18     19     20
    beta     15     12     10     11     13     17     18     16     19     24
 overlap   0.996  0.751  0.942  0.942  0.747  0.959  0.959  0.999  0.996  0.834


   alpha     21     22     23     24     25     26     27     28     29     30
    beta     23     22     21     20     25     28     27     26     32     33
 overlap   0.833  0.868  0.868  0.999  0.999  0.996  0.996  0.999  0.933  0.932


   alpha     31     32     33     34     35     36     37     38     39     40
    beta     31     30     29     34     36     37     35     38     45     44
 overlap   0.973  0.973  0.999  0.999  0.847  0.847  0.995  1.000  0.969  0.991


   alpha     41     42     43     44     45     46     47     48     49     50
    beta     43     42     40     41     39     49     50     47     46     48
 overlap   0.991  1.000  0.992  0.992  0.973  0.974  0.973  0.969  0.968  1.000


   alpha     51     52     53     54     55     56     57     58     59     60
    beta     51     58     59     52     53     57     56     54     55     68
 overlap   1.000  0.979  0.979  1.000  0.999  1.000  0.999  0.905  0.906  0.999


   alpha     61     62     63     64     65     66     67     68     69     70
    beta     66     67     65     63     64     60     61     62     75     74
 overlap   0.913  0.920  0.997  0.910  0.894  0.898  0.897  0.999  1.000  0.964


   alpha     71     72     73     74     75     76     77     78     79     80
    beta     73     71     70     72     69     76     77     78     79     80
 overlap   0.964  0.989  0.989  1.000  1.000  0.972  0.972  0.982  1.000  1.000


     --------------------------
     Expectation value of S2:  
     --------------------------
      <S2> =      3.7513 (Exact =     3.7500)
 

 Parallel integral file used      22 records with       0 large values


 Task  times  cpu:      217.4s     wall:      224.1s
 
 
                                NWChem Input Module
                                -------------------
 
 
 Summary of allocated global arrays
-----------------------------------
  No active global arrays



                         GA Statistics for process    0
                         ------------------------------

       create   destroy   get      put      acc     scatter   gather  read&inc
calls: 3811     3811     3.36e+04 2.54e+04 5724        0        0       49     
number of processes/call 1.04e+00 1.01e+00 1.36e+00 0.00e+00 0.00e+00
bytes total:             6.66e+08 2.37e+08 2.93e+08 0.00e+00 0.00e+00 3.92e+02
bytes remote:            1.61e+07 4.62e+06 2.61e+07 0.00e+00 0.00e+00 0.00e+00
Max memory consumed for GA by this process: 3328000 bytes
 
MA_summarize_allocated_blocks: starting scan ...
MA_summarize_allocated_blocks: scan completed: 0 heap blocks, 0 stack blocks
MA usage statistics:

	allocation statistics:
					      heap	     stack
					      ----	     -----
	current number of blocks	         0	         0
	maximum number of blocks	        21	        51
	current total bytes		         0	         0
	maximum total bytes		  23284792	  29277432
	maximum total K-bytes		     23285	     29278
	maximum total M-bytes		        24	        30
 
 
                                     CITATION
                                     --------
                Please cite the following reference when publishing
                           results obtained with NWChem:
 
                 M. Valiev, E.J. Bylaska, N. Govind, K. Kowalski,
              T.P. Straatsma, H.J.J. van Dam, D. Wang, J. Nieplocha,
                        E. Apra, T.L. Windus, W.A. de Jong
                 "NWChem: a comprehensive and scalable open-source
                  solution for large scale molecular simulations"
                      Comput. Phys. Commun. 181, 1477 (2010)
                           doi:10.1016/j.cpc.2010.04.018
 
                                      AUTHORS
                                      -------
          E. Apra, E. J. Bylaska, W. A. de Jong, N. Govind, K. Kowalski,
       T. P. Straatsma, M. Valiev, H. J. J. van Dam, D. Wang, T. L. Windus,
        J. Hammond, J. Autschbach, K. Bhaskaran-Nair, J. Brabec, K. Lopata,
    S. A. Fischer, S. Krishnamoorthy, M. Jacquelin, W. Ma, M. Klemm, O. Villa,
      Y. Chen, V. Anisimov, F. Aquino, S. Hirata, M. T. Hackler, V. Konjkov,
            D. Mejia-Rodriguez, T. Risthaus, M. Malagoli, A. Marenich,
   A. Otero-de-la-Roza, J. Mullin, P. Nichols, R. Peverati, J. Pittner, Y. Zhao,
        P.-D. Fan, A. Fonari, M. J. Williamson, R. J. Harrison, J. R. Rehr,
      M. Dupuis, D. Silverstein, D. M. A. Smith, J. Nieplocha, V. Tipparaju,
    M. Krishnan, B. E. Van Kuiken, A. Vazquez-Mayagoitia, L. Jensen, M. Swart,
      Q. Wu, T. Van Voorhis, A. A. Auer, M. Nooijen, L. D. Crosby, E. Brown,
      G. Cisneros, G. I. Fann, H. Fruchtl, J. Garza, K. Hirao, R. A. Kendall,
      J. A. Nichols, K. Tsemekhman, K. Wolinski, J. Anchell, D. E. Bernholdt,
      P. Borowski, T. Clark, D. Clerc, H. Dachsel, M. J. O. Deegan, K. Dyall,
    D. Elwood, E. Glendening, M. Gutowski, A. C. Hess, J. Jaffe, B. G. Johnson,
     J. Ju, R. Kobayashi, R. Kutteh, Z. Lin, R. Littlefield, X. Long, B. Meng,
      T. Nakajima, S. Niu, L. Pollack, M. Rosing, K. Glaesemann, G. Sandrone,
      M. Stave, H. Taylor, G. Thomas, J. H. van Lenthe, A. T. Wong, Z. Zhang.

 Total times  cpu:      217.5s     wall:      224.2s
