  NWChem w/ OpenMP: maximum threads =  1
                                         
                                         
 
 
              Northwest Computational Chemistry Package (NWChem) 6.8
              ------------------------------------------------------
 
 
                    Environmental Molecular Sciences Laboratory
                       Pacific Northwest National Laboratory
                                Richland, WA 99352
 
                              Copyright (c) 1994-2017
                       Pacific Northwest National Laboratory
                            Battelle Memorial Institute
 
             NWChem is an open-source computational chemistry package
                        distributed under the terms of the
                      Educational Community License (ECL) 2.0
             A copy of the license is included with this distribution
                              in the LICENSE.TXT file
 
                                  ACKNOWLEDGMENT
                                  --------------

            This software and its documentation were developed at the
            EMSL at Pacific Northwest National Laboratory, a multiprogram
            national laboratory, operated for the U.S. Department of Energy
            by Battelle under Contract Number DE-AC05-76RL01830. Support
            for this work was provided by the Department of Energy Office
            of Biological and Environmental Research, Office of Basic
            Energy Sciences, and the Office of Advanced Scientific Computing.


           Job information
           ---------------

    hostname        = kohn
    program         = nwchem
    date            = Wed Sep 26 21:46:47 2018

    compiled        = Wed_Sep_26_21:04:37_2018
    source          = /home/kohn/softwares/nwchem/nwchem-6.8
    nwchem branch   = 6.8
    nwchem revision = v6.8-47-gdf6c956
    ga revision     = ga-5.6.3
    use scalapack   = F
    input           = nwchem.nw
    prefix          = F.
    data base       = ./F.db
    status          = startup
    nproc           =        4
    time left       =     -1s



           Memory information
           ------------------

    heap     =   13107198 doubles =    100.0 Mbytes
    stack    =   13107195 doubles =    100.0 Mbytes
    global   =   26214400 doubles =    200.0 Mbytes (distinct from heap & stack)
    total    =   52428793 doubles =    400.0 Mbytes
    verify   = yes
    hardfail = no 


           Directory information
           ---------------------
 
  0 permanent = .
  0 scratch   = .
 
 
 
 
                                NWChem Input Module
                                -------------------
 
 

 Scaling coordinates for geometry "geometry" by  1.889725989
 (inverse scale =  0.529177249)

 
 
                             Geometry "geometry" -> ""
                             -------------------------
 
 Output coordinates in angstroms (scale by  1.889725989 to convert to a.u.)
 
  No.       Tag          Charge          X              Y              Z
 ---- ---------------- ---------- -------------- -------------- --------------
    1 F                    9.0000     0.00000000     0.00000000     0.00000000
 
      Atomic Mass 
      ----------- 
 
      F                 18.998400
 

 Effective nuclear repulsion energy (a.u.)       0.0000000000

            Nuclear Dipole moment (a.u.) 
            ----------------------------
        X                 Y               Z
 ---------------- ---------------- ----------------
     0.0000000000     0.0000000000     0.0000000000
 
 
            XYZ format geometry
            -------------------
     1
 geometry
 F                     0.00000000     0.00000000     0.00000000
 


 Summary of "ao basis" -> "" (cartesian)
 ------------------------------------------------------------------------------
       Tag                 Description            Shells   Functions and Types
 ---------------- ------------------------------  ------  ---------------------
 *                         def2-TZVPP                 on all atoms 


 
                                 NWChem DFT Module
                                 -----------------
 
 
                      Basis "ao basis" -> "ao basis" (cartesian)
                      -----
  F (Fluorine)
  ------------
            Exponent  Coefficients 
       -------------- ---------------------------------------------------------
  1 S  3.54791004E+04  0.000215
  1 S  5.31847290E+03  0.001670
  1 S  1.21048110E+03  0.008673
  1 S  3.42855181E+02  0.035050
  1 S  1.12019432E+02  0.111653
  1 S  4.07147402E+01  0.259885
 
  2 S  1.60396781E+01  0.394230
  2 S  6.50381867E+00  0.249982
 
  3 S  1.54404775E+00  1.000000
 
  4 S  6.12234529E-01  1.000000
 
  5 S  2.40279797E-01  1.000000
 
  6 P  8.02339005E+01  0.006369
  6 P  1.85940107E+01  0.044303
  6 P  5.68679027E+00  0.168672
  6 P  1.95110063E+00  0.361663
 
  7 P  6.69702113E-01  1.000000
 
  8 P  2.16513004E-01  1.000000
 
  9 D  3.10700000E+00  1.000000
 
 10 D  8.55000000E-01  1.000000
 
 11 F  1.91700000E+00  1.000000
 


 Summary of "ao basis" -> "ao basis" (cartesian)
 ------------------------------------------------------------------------------
       Tag                 Description            Shells   Functions and Types
 ---------------- ------------------------------  ------  ---------------------
 F                         def2-TZVPP               11       36   5s3p2d1f




 Summary of "ao basis" -> "ao basis" (cartesian)
 ------------------------------------------------------------------------------
       Tag                 Description            Shells   Functions and Types
 ---------------- ------------------------------  ------  ---------------------
 F                         def2-TZVPP               11       36   5s3p2d1f


  Caching 1-el integrals 
 
            General Information
            -------------------
          SCF calculation type: DFT
          Wavefunction type:  spin polarized.
          No. of atoms     :     1
          No. of electrons :     9
           Alpha electrons :     5
            Beta electrons :     4
          Charge           :     0
          Spin multiplicity:     2
          Use of symmetry is: off; symmetry adaption is: off
          Maximum number of iterations: ***
          AO basis - number of functions:    36
                     number of shells:    11
          Convergence on energy requested:  1.00D-06
          Convergence on density requested:  1.00D-05
          Convergence on gradient requested:  5.00D-04
 
              XC Information
              --------------
                  TPSS metaGGA Exchange Functional  1.000          
             TPSS03 metaGGA Correlation Functional  1.000          
 
             Grid Information
             ----------------
          Grid used for XC integration:  medium    
          Radial quadrature: Mura-Knowles        
          Angular quadrature: Lebedev. 
          Tag              B.-S. Rad. Rad. Pts. Rad. Cut. Ang. Pts.
          ---              ---------- --------- --------- ---------
          F                   0.50       49           4.0       434
          Grid pruning is: on 
          Number of quadrature shells:    49
          Spatial weights used:  Erf1
 
          Convergence Information
          -----------------------
          Convergence aids based upon iterative change in 
          total energy or number of iterations. 
          Levelshifting, if invoked, occurs when the 
          HOMO/LUMO gap drops below (HL_TOL):  1.00D-02
          DIIS, if invoked, will attempt to extrapolate 
          using up to (NFOCK): 10 stored Fock matrices.

                    Damping( 0%)  Levelshifting(0.5)       DIIS
                  --------------- ------------------- ---------------
          dE  on:    start            ASAP                start   
          dE off:    2 iters        *** iters           *** iters 

 
      Screening Tolerance Information
      -------------------------------
          Density screening/tol_rho:  1.00D-10
          AO Gaussian exp screening on grid/accAOfunc:  14
          CD Gaussian exp screening on grid/accCDfunc:  20
          XC Gaussian exp screening on grid/accXCfunc:  20
          Schwarz screening/accCoul:  1.00D-08

 
      Superposition of Atomic Density Guess
      -------------------------------------
 
 Sum of atomic energies:         -99.41807837
 
      Non-variational initial energy
      ------------------------------

 Total energy =     -99.059303
 1-e energy   =    -139.274928
 2-e energy   =      40.215625
 HOMO         =      -0.590345
 LUMO         =       0.590466
 
   Time after variat. SCF:      2.6
   Time prior to 1st pass:      2.6

 #quartets = 2.211D+03 #integrals = 4.157D+04 #direct =  0.0% #cached =100.0%


 Integral file          = ./F.aoints.0
 Record size in doubles =    65536    No. of integs per rec  =    43688
 Max. records in memory =        3    Max. records in file   =  1478997
 No. of bits per label  =        8    No. of bits per value  =       64


File balance: exchanges=     0  moved=     0  time=   0.1


 Grid_pts file          = ./F.gridpts.0
 Record size in doubles =  12289        No. of grid_pts per rec  =   3070
 Max. records in memory =      3        Max. recs in file   =   7887347


           Memory utilization after 1st SCF pass: 
           Heap Space remaining (MW):       12.87            12871622
          Stack Space remaining (MW):       13.11            13106780

   convergence    iter        energy       DeltaE   RMS-Dens  Diis-err    time
 ---------------- ----- ----------------- --------- --------- ---------  ------
 d= 0,ls=0.0,diis     1    -99.7612908161 -9.98D+01  4.40D-03  1.22D-01     3.9
                                                     2.51D-03  6.34D-02
 d= 0,ls=0.0,diis     2    -99.7674801465 -6.19D-03  2.16D-03  2.68D-02     4.6
                                                     2.08D-03  2.41D-02
 d= 0,ls=0.0,diis     3    -99.7719342850 -4.45D-03  8.24D-04  7.68D-03     5.5
                                                     7.26D-04  5.24D-03
 d= 0,ls=0.0,diis     4    -99.7736434123 -1.71D-03  3.01D-05  1.17D-05     6.2
                                                     4.77D-05  1.79D-05
 d= 0,ls=0.0,diis     5    -99.7736478291 -4.42D-06  5.05D-06  2.15D-07     7.4
                                                     2.73D-06  4.01D-08
 d= 0,ls=0.0,diis     6    -99.7736478709 -4.18D-08  4.17D-07  1.56D-10     8.1
                                                     4.08D-07  6.07D-10


         Total DFT energy =      -99.773647870906
      One electron energy =     -139.182271029952
           Coulomb energy =       49.788506406998
          Exchange energy =      -10.086413099096
       Correlation energy =       -0.293470148856
 Nuclear repulsion energy =        0.000000000000

 Numeric. integr. density =        8.999999601710

     Total iterative time =      5.5s


 
                    DFT Final Alpha Molecular Orbital Analysis
                    ------------------------------------------
 
 Vector    1  Occ=1.000000D+00  E=-2.450839D+01
              MO Center= -6.8D-18, -1.1D-18, -8.1D-18, r^2= 1.2D-02
   Bfn.  Coefficient  Atom+Function         Bfn.  Coefficient  Atom+Function  
  ----- ------------  ---------------      ----- ------------  ---------------
     2      0.647304  1 F  s                  1      0.425747  1 F  s          
     4     -0.092840  1 F  s                  3      0.075537  1 F  s          
 
 Vector    2  Occ=1.000000D+00  E=-1.147218D+00
              MO Center=  7.6D-16, -8.5D-16, -2.9D-15, r^2= 3.4D-01
   Bfn.  Coefficient  Atom+Function         Bfn.  Coefficient  Atom+Function  
  ----- ------------  ---------------      ----- ------------  ---------------
     3      0.436641  1 F  s                  4      0.426022  1 F  s          
     2     -0.264908  1 F  s                  5      0.211532  1 F  s          
     1     -0.109662  1 F  s                 26      0.041760  1 F  dzz        
 
 Vector    3  Occ=1.000000D+00  E=-4.978519D-01
              MO Center= -3.1D-16, -7.7D-16,  2.6D-15, r^2= 4.1D-01
   Bfn.  Coefficient  Atom+Function         Bfn.  Coefficient  Atom+Function  
  ----- ------------  ---------------      ----- ------------  ---------------
     8      0.510456  1 F  pz                11      0.412447  1 F  pz         
    14      0.215396  1 F  pz                 7     -0.166608  1 F  py         
    10     -0.134619  1 F  py                13     -0.070304  1 F  py         
     6     -0.057726  1 F  px                 9     -0.046642  1 F  px         
 
 Vector    4  Occ=1.000000D+00  E=-4.058631D-01
              MO Center=  4.4D-16,  4.8D-17,  2.3D-17, r^2= 4.4D-01
   Bfn.  Coefficient  Atom+Function         Bfn.  Coefficient  Atom+Function  
  ----- ------------  ---------------      ----- ------------  ---------------
     6      0.491702  1 F  px                 9      0.398182  1 F  px         
    12      0.248461  1 F  px                 7      0.152014  1 F  py         
    10      0.123101  1 F  py                 8      0.105221  1 F  pz         
    11      0.085208  1 F  pz                13      0.076814  1 F  py         
    14      0.053169  1 F  pz         
 
 Vector    5  Occ=1.000000D+00  E=-4.058631D-01
              MO Center= -8.2D-16,  2.2D-15,  5.1D-16, r^2= 4.4D-01
   Bfn.  Coefficient  Atom+Function         Bfn.  Coefficient  Atom+Function  
  ----- ------------  ---------------      ----- ------------  ---------------
     7      0.476002  1 F  py                10      0.385469  1 F  py         
    13      0.240528  1 F  py                 6     -0.176144  1 F  px         
     9     -0.142642  1 F  px                 8      0.135444  1 F  pz         
    11      0.109683  1 F  pz                12     -0.089007  1 F  px         
    14      0.068441  1 F  pz         
 
 Vector    6  Occ=0.000000D+00  E= 3.908311D-01
              MO Center=  2.8D-15, -3.6D-15, -1.0D-14, r^2= 1.6D+00
   Bfn.  Coefficient  Atom+Function         Bfn.  Coefficient  Atom+Function  
  ----- ------------  ---------------      ----- ------------  ---------------
     5      2.073381  1 F  s                  3     -1.333101  1 F  s          
     4      0.988952  1 F  s                 21     -0.799023  1 F  dxx        
    24     -0.799068  1 F  dyy               26     -0.799498  1 F  dzz        
     2      0.122477  1 F  s                  1      0.057386  1 F  s          
    20     -0.052876  1 F  dzz               18     -0.047123  1 F  dyy        
 
 Vector    7  Occ=0.000000D+00  E= 4.360813D-01
              MO Center= -1.2D-15, -3.0D-15,  9.7D-15, r^2= 2.0D+00
   Bfn.  Coefficient  Atom+Function         Bfn.  Coefficient  Atom+Function  
  ----- ------------  ---------------      ----- ------------  ---------------
    14      1.236602  1 F  pz                11     -0.794549  1 F  pz         
    13     -0.403617  1 F  py                 8     -0.265233  1 F  pz         
    10      0.259334  1 F  py                12     -0.139843  1 F  px         
    29      0.119467  1 F  fxxz              34      0.117831  1 F  fyyz       
    36      0.113874  1 F  fzzz               9      0.089853  1 F  px         
 
 Vector    8  Occ=0.000000D+00  E= 4.658497D-01
              MO Center=  1.3D-15,  6.6D-16,  3.5D-16, r^2= 1.9D+00
   Bfn.  Coefficient  Atom+Function         Bfn.  Coefficient  Atom+Function  
  ----- ------------  ---------------      ----- ------------  ---------------
    12      1.131756  1 F  px                 9     -0.761297  1 F  px         
    13      0.577632  1 F  py                10     -0.388555  1 F  py         
    14      0.316521  1 F  pz                 6     -0.249348  1 F  px         
    11     -0.212914  1 F  pz                 7     -0.127264  1 F  py         
    27      0.113226  1 F  fxxx              30      0.112449  1 F  fxyy       
 
 Vector    9  Occ=0.000000D+00  E= 4.658497D-01
              MO Center= -2.9D-15,  4.8D-15,  1.3D-15, r^2= 1.9D+00
   Bfn.  Coefficient  Atom+Function         Bfn.  Coefficient  Atom+Function  
  ----- ------------  ---------------      ----- ------------  ---------------
    13      1.103566  1 F  py                10     -0.742335  1 F  py         
    12     -0.643624  1 F  px                 9      0.432946  1 F  px         
    14      0.287410  1 F  pz                 7     -0.243138  1 F  py         
    11     -0.193331  1 F  pz                 6      0.141803  1 F  px         
    28      0.110654  1 F  fxxy              33      0.109865  1 F  fyyy       
 
 Vector   10  Occ=0.000000D+00  E= 1.810828D+00
              MO Center=  4.8D-16,  9.1D-17,  1.9D-16, r^2= 5.7D-01
   Bfn.  Coefficient  Atom+Function         Bfn.  Coefficient  Atom+Function  
  ----- ------------  ---------------      ----- ------------  ---------------
    25      0.872770  1 F  dyz               26     -0.870248  1 F  dzz        
    21      0.449653  1 F  dxx               24      0.324319  1 F  dyy        
    23      0.302394  1 F  dxz               22     -0.098699  1 F  dxy        
     4      0.075864  1 F  s          
 
 Vector   11  Occ=0.000000D+00  E= 1.825975D+00
              MO Center=  1.2D-16, -4.8D-16, -9.2D-17, r^2= 5.7D-01
   Bfn.  Coefficient  Atom+Function         Bfn.  Coefficient  Atom+Function  
  ----- ------------  ---------------      ----- ------------  ---------------
    25      1.390675  1 F  dyz               24     -0.505207  1 F  dyy        
    26      0.481575  1 F  dzz               23     -0.263437  1 F  dxz        
    22     -0.106834  1 F  dxy        
 
 Vector   12  Occ=0.000000D+00  E= 1.825975D+00
              MO Center= -4.2D-16,  4.6D-17, -2.0D-16, r^2= 5.7D-01
   Bfn.  Coefficient  Atom+Function         Bfn.  Coefficient  Atom+Function  
  ----- ------------  ---------------      ----- ------------  ---------------
    23      1.585598  1 F  dxz               22     -0.542528  1 F  dxy        
    26      0.229920  1 F  dzz               21     -0.182251  1 F  dxx        
    25      0.071005  1 F  dyz               24     -0.047669  1 F  dyy        
 
 Vector   13  Occ=0.000000D+00  E= 1.875974D+00
              MO Center=  6.8D-16,  3.1D-16,  1.6D-16, r^2= 5.7D-01
   Bfn.  Coefficient  Atom+Function         Bfn.  Coefficient  Atom+Function  
  ----- ------------  ---------------      ----- ------------  ---------------
    22      1.131615  1 F  dxy               21      0.597976  1 F  dxx        
    24     -0.585064  1 F  dyy               23      0.504596  1 F  dxz        
    25     -0.253949  1 F  dyz        
 
 Vector   14  Occ=0.000000D+00  E= 1.875974D+00
              MO Center=  4.7D-16, -5.4D-16, -1.0D-16, r^2= 5.7D-01
   Bfn.  Coefficient  Atom+Function         Bfn.  Coefficient  Atom+Function  
  ----- ------------  ---------------      ----- ------------  ---------------
    22      1.184348  1 F  dxy               21     -0.612635  1 F  dxx        
    24      0.521228  1 F  dyy               25      0.474183  1 F  dyz        
    23      0.247999  1 F  dxz               26      0.091407  1 F  dzz        
 
 Vector   15  Occ=0.000000D+00  E= 2.372708D+00
              MO Center=  1.4D-15,  1.4D-15, -3.3D-15, r^2= 9.9D-01
   Bfn.  Coefficient  Atom+Function         Bfn.  Coefficient  Atom+Function  
  ----- ------------  ---------------      ----- ------------  ---------------
    11      2.366958  1 F  pz                 8     -0.915692  1 F  pz         
    14     -0.869320  1 F  pz                10     -0.772555  1 F  py         
    29     -0.626114  1 F  fxxz              34     -0.626083  1 F  fyyz       
    36     -0.626009  1 F  fzzz               7      0.298874  1 F  py         
    13      0.283739  1 F  py                 9     -0.267672  1 F  px         
 
 Vector   16  Occ=0.000000D+00  E= 2.430340D+00
              MO Center=  5.9D-15,  2.0D-15,  1.8D-15, r^2= 9.7D-01
   Bfn.  Coefficient  Atom+Function         Bfn.  Coefficient  Atom+Function  
  ----- ------------  ---------------      ----- ------------  ---------------
     9      2.365608  1 F  px                 6     -0.918984  1 F  px         
    12     -0.860408  1 F  px                10      0.656114  1 F  py         
    27     -0.631960  1 F  fxxx              30     -0.631967  1 F  fxyy       
    32     -0.632016  1 F  fxzz              11      0.481669  1 F  pz         
     7     -0.254885  1 F  py                13     -0.238639  1 F  py         
 
 Vector   17  Occ=0.000000D+00  E= 2.430340D+00
              MO Center=  3.0D-15, -9.3D-15, -2.6D-15, r^2= 9.7D-01
   Bfn.  Coefficient  Atom+Function         Bfn.  Coefficient  Atom+Function  
  ----- ------------  ---------------      ----- ------------  ---------------
    10      2.287453  1 F  py                 7     -0.888623  1 F  py         
    13     -0.831982  1 F  py                 9     -0.768755  1 F  px         
    11      0.659669  1 F  pz                28     -0.611080  1 F  fxxy       
    33     -0.611087  1 F  fyyy              35     -0.611127  1 F  fyzz       
     6      0.298644  1 F  px                12      0.279608  1 F  px         
 
 Vector   18  Occ=0.000000D+00  E= 2.645218D+00
              MO Center= -1.1D-14,  6.8D-15,  4.3D-15, r^2= 9.5D-01
   Bfn.  Coefficient  Atom+Function         Bfn.  Coefficient  Atom+Function  
  ----- ------------  ---------------      ----- ------------  ---------------
     4      9.858637  1 F  s                  3     -4.246220  1 F  s          
    21     -3.623857  1 F  dxx               24     -3.622515  1 F  dyy        
    26     -3.609730  1 F  dzz                5      1.474953  1 F  s          
     2     -0.338549  1 F  s                 15     -0.183411  1 F  dxx        
    18     -0.182131  1 F  dyy               20     -0.169930  1 F  dzz        
 
 Vector   19  Occ=0.000000D+00  E= 6.726809D+00
              MO Center= -2.3D-16, -2.7D-16, -5.3D-17, r^2= 3.3D-01
   Bfn.  Coefficient  Atom+Function         Bfn.  Coefficient  Atom+Function  
  ----- ------------  ---------------      ----- ------------  ---------------
    35      1.636354  1 F  fyzz              29      1.226438  1 F  fxxz       
    36     -0.799644  1 F  fzzz              34      0.633915  1 F  fyyz       
    32      0.566960  1 F  fxzz              31     -0.466606  1 F  fxyz       
    28     -0.400298  1 F  fxxy              33     -0.353423  1 F  fyyy       
    27     -0.144789  1 F  fxxx              11      0.138314  1 F  pz         
 
 Vector   20  Occ=0.000000D+00  E= 6.737749D+00
              MO Center=  4.1D-17, -6.5D-17,  3.1D-16, r^2= 3.3D-01
   Bfn.  Coefficient  Atom+Function         Bfn.  Coefficient  Atom+Function  
  ----- ------------  ---------------      ----- ------------  ---------------
    34      1.730117  1 F  fyyz              35     -1.557512  1 F  fyzz       
    32      0.677946  1 F  fxzz              36     -0.613254  1 F  fzzz       
    28      0.508045  1 F  fxxy              30     -0.243002  1 F  fxyy       
    33      0.222814  1 F  fyyy              27     -0.113704  1 F  fxxx       
    31      0.110548  1 F  fxyz              10      0.098113  1 F  py         
 
 Vector   21  Occ=0.000000D+00  E= 6.737749D+00
              MO Center= -6.8D-17,  9.0D-17, -3.3D-16, r^2= 3.3D-01
   Bfn.  Coefficient  Atom+Function         Bfn.  Coefficient  Atom+Function  
  ----- ------------  ---------------      ----- ------------  ---------------
    32      2.025382  1 F  fxzz              31     -1.807020  1 F  fxyz       
    29     -0.682328  1 F  fxxz              27     -0.478936  1 F  fxxx       
    34     -0.374891  1 F  fyyz              36      0.375632  1 F  fzzz       
    30     -0.193337  1 F  fxyy              35      0.108382  1 F  fyzz       
    28      0.102410  1 F  fxxy               9     -0.101772  1 F  px         
 
 Vector   22  Occ=0.000000D+00  E= 6.769921D+00
              MO Center=  3.0D-18,  1.7D-16, -5.7D-17, r^2= 3.3D-01
   Bfn.  Coefficient  Atom+Function         Bfn.  Coefficient  Atom+Function  
  ----- ------------  ---------------      ----- ------------  ---------------
    31      2.044041  1 F  fxyz              29      1.179242  1 F  fxxz       
    34     -1.081832  1 F  fyyz              32      1.055731  1 F  fxzz       
    28     -0.686507  1 F  fxxy              30     -0.615297  1 F  fxyy       
    35     -0.552880  1 F  fyzz              33      0.413129  1 F  fyyy       
    27     -0.146811  1 F  fxxx              36     -0.032470  1 F  fzzz       
 
 Vector   23  Occ=0.000000D+00  E= 6.769921D+00
              MO Center=  1.7D-16,  1.4D-17,  3.5D-17, r^2= 3.3D-01
   Bfn.  Coefficient  Atom+Function         Bfn.  Coefficient  Atom+Function  
  ----- ------------  ---------------      ----- ------------  ---------------
    31      2.274554  1 F  fxyz              29     -1.322957  1 F  fxxz       
    30     -0.958499  1 F  fxyy              35      0.924666  1 F  fyzz       
    34      0.745765  1 F  fyyz              32      0.530874  1 F  fxzz       
    33     -0.348607  1 F  fyyy              36      0.192397  1 F  fzzz       
    27      0.142542  1 F  fxxx              28      0.121155  1 F  fxxy       
 
 Vector   24  Occ=0.000000D+00  E= 6.822842D+00
              MO Center= -2.2D-16,  1.2D-16,  1.3D-17, r^2= 3.3D-01
   Bfn.  Coefficient  Atom+Function         Bfn.  Coefficient  Atom+Function  
  ----- ------------  ---------------      ----- ------------  ---------------
    28      1.805607  1 F  fxxy              30      1.191445  1 F  fxyy       
    31      1.186136  1 F  fxyz              33     -0.577376  1 F  fyyy       
    27     -0.477778  1 F  fxxx              34     -0.430615  1 F  fyyz       
    29      0.427244  1 F  fxxz              32      0.241888  1 F  fxzz       
    35     -0.073481  1 F  fyzz       
 
 Vector   25  Occ=0.000000D+00  E= 6.822842D+00
              MO Center= -2.1D-16,  3.6D-16,  9.3D-17, r^2= 3.3D-01
   Bfn.  Coefficient  Atom+Function         Bfn.  Coefficient  Atom+Function  
  ----- ------------  ---------------      ----- ------------  ---------------
    30      1.770049  1 F  fxyy              28     -1.309116  1 F  fxxy       
    31      0.859370  1 F  fxyz              29     -0.635190  1 F  fxxz       
    27     -0.612821  1 F  fxxx              34      0.552712  1 F  fyyz       
    33      0.360041  1 F  fyyy              35      0.228992  1 F  fyzz       
    32      0.068414  1 F  fxzz              36      0.027493  1 F  fzzz       
 
 Vector   26  Occ=0.000000D+00  E= 7.187783D+00
              MO Center=  1.1D-15,  2.0D-15, -7.1D-15, r^2= 4.9D-01
   Bfn.  Coefficient  Atom+Function         Bfn.  Coefficient  Atom+Function  
  ----- ------------  ---------------      ----- ------------  ---------------
    11      2.124940  1 F  pz                29     -1.800120  1 F  fxxz       
    34     -1.763072  1 F  fyyz              36     -1.673436  1 F  fzzz       
     8      0.737763  1 F  pz                10     -0.693563  1 F  py         
    28      0.587544  1 F  fxxy              33      0.584613  1 F  fyyy       
    14     -0.493943  1 F  pz                35      0.460198  1 F  fyzz       
 
 Vector   27  Occ=0.000000D+00  E= 7.266795D+00
              MO Center= -4.9D-15, -1.6D-15, -7.7D-16, r^2= 4.9D-01
   Bfn.  Coefficient  Atom+Function         Bfn.  Coefficient  Atom+Function  
  ----- ------------  ---------------      ----- ------------  ---------------
     9      2.124008  1 F  px                27     -1.745887  1 F  fxxx       
    30     -1.732700  1 F  fxyy              32     -1.636485  1 F  fxzz       
     6      0.744147  1 F  px                10      0.569362  1 F  py         
    12     -0.492751  1 F  px                33     -0.465084  1 F  fyyy       
    28     -0.459428  1 F  fxxy              35     -0.452473  1 F  fyzz       
 
 Vector   28  Occ=0.000000D+00  E= 7.266795D+00
              MO Center= -2.3D-15,  9.5D-15,  2.2D-15, r^2= 4.9D-01
   Bfn.  Coefficient  Atom+Function         Bfn.  Coefficient  Atom+Function  
  ----- ------------  ---------------      ----- ------------  ---------------
    10      2.053146  1 F  py                28     -1.690344  1 F  fxxy       
    33     -1.677115  1 F  fyyy              35     -1.598015  1 F  fyzz       
     7      0.719320  1 F  py                 9     -0.669593  1 F  px         
    11      0.594408  1 F  pz                34     -0.558839  1 F  fyyz       
    30      0.555247  1 F  fxyy              27      0.550390  1 F  fxxx       
 
 Vector   29  Occ=0.000000D+00  E= 8.011479D+00
              MO Center=  1.2D-15, -2.7D-16, -1.8D-15, r^2= 2.4D-01
   Bfn.  Coefficient  Atom+Function         Bfn.  Coefficient  Atom+Function  
  ----- ------------  ---------------      ----- ------------  ---------------
     4      2.180837  1 F  s                  3     -1.111854  1 F  s          
    19      1.012081  1 F  dyz               20     -1.011276  1 F  dzz        
    21     -0.866754  1 F  dxx               24     -0.792883  1 F  dyy        
    15      0.519309  1 F  dxx               25     -0.514405  1 F  dyz        
    18      0.373970  1 F  dyy               17      0.350664  1 F  dxz        
 
 Vector   30  Occ=0.000000D+00  E= 8.037437D+00
              MO Center= -6.6D-16,  4.3D-16,  5.9D-16, r^2= 2.4D-01
   Bfn.  Coefficient  Atom+Function         Bfn.  Coefficient  Atom+Function  
  ----- ------------  ---------------      ----- ------------  ---------------
    19      1.442936  1 F  dyz               17     -1.023653  1 F  dxz        
    25     -0.732405  1 F  dyz               23      0.519585  1 F  dxz        
    18     -0.513928  1 F  dyy               20      0.403324  1 F  dzz        
    24      0.260859  1 F  dyy               26     -0.204719  1 F  dzz        
    16      0.141161  1 F  dxy               15      0.110604  1 F  dxx        
 
 Vector   31  Occ=0.000000D+00  E= 8.037437D+00
              MO Center=  3.0D-16,  1.1D-16, -3.4D-16, r^2= 2.4D-01
   Bfn.  Coefficient  Atom+Function         Bfn.  Coefficient  Atom+Function  
  ----- ------------  ---------------      ----- ------------  ---------------
    17      1.559560  1 F  dxz               23     -0.791600  1 F  dxz        
    19      0.727917  1 F  dyz               16     -0.626043  1 F  dxy        
    20      0.470036  1 F  dzz               25     -0.369476  1 F  dyz        
    22      0.317767  1 F  dxy               18     -0.287660  1 F  dyy        
    26     -0.238581  1 F  dzz               15     -0.182377  1 F  dxx        
 
 Vector   32  Occ=0.000000D+00  E= 8.115305D+00
              MO Center= -1.6D-16, -6.4D-16, -7.4D-17, r^2= 2.4D-01
   Bfn.  Coefficient  Atom+Function         Bfn.  Coefficient  Atom+Function  
  ----- ------------  ---------------      ----- ------------  ---------------
    16      1.254595  1 F  dxy               15      0.721120  1 F  dxx        
    18     -0.701878  1 F  dyy               22     -0.633869  1 F  dxy        
    17      0.572587  1 F  dxz               21     -0.364337  1 F  dxx        
    24      0.354616  1 F  dyy               19     -0.316296  1 F  dyz        
    23     -0.289293  1 F  dxz               25      0.159805  1 F  dyz        
 
 Vector   33  Occ=0.000000D+00  E= 8.115305D+00
              MO Center= -9.2D-16, -1.1D-16, -2.5D-16, r^2= 2.4D-01
   Bfn.  Coefficient  Atom+Function         Bfn.  Coefficient  Atom+Function  
  ----- ------------  ---------------      ----- ------------  ---------------
    16      1.424406  1 F  dxy               22     -0.719664  1 F  dxy        
    15     -0.681243  1 F  dxx               18      0.576016  1 F  dyy        
    19      0.537095  1 F  dyz               21      0.344190  1 F  dxx        
    17      0.310834  1 F  dxz               24     -0.291025  1 F  dyy        
    25     -0.271361  1 F  dyz               23     -0.157045  1 F  dxz        
 
 Vector   34  Occ=0.000000D+00  E= 8.332045D+00
              MO Center=  7.6D-15, -1.1D-14,  7.0D-15, r^2= 4.9D-01
   Bfn.  Coefficient  Atom+Function         Bfn.  Coefficient  Atom+Function  
  ----- ------------  ---------------      ----- ------------  ---------------
     4     38.303061  1 F  s                  3    -19.982517  1 F  s          
    21    -10.110001  1 F  dxx               24    -10.114294  1 F  dyy        
    26    -10.155220  1 F  dzz               15     -0.650535  1 F  dxx        
    18     -0.642647  1 F  dyy               20     -0.567461  1 F  dzz        
     2      0.283661  1 F  s                  1      0.169427  1 F  s          
 
 Vector   35  Occ=0.000000D+00  E= 2.186020D+01
              MO Center=  3.0D-17,  1.9D-17,  1.5D-17, r^2= 2.2D-01
   Bfn.  Coefficient  Atom+Function         Bfn.  Coefficient  Atom+Function  
  ----- ------------  ---------------      ----- ------------  ---------------
     4     11.682361  1 F  s                 21     -3.459135  1 F  dxx        
    24     -3.459224  1 F  dyy               26     -3.460076  1 F  dzz        
    15     -3.208170  1 F  dxx               18     -3.207966  1 F  dyy        
    20     -3.206024  1 F  dzz                2     -1.948145  1 F  s          
     3      1.805843  1 F  s                  1     -0.228508  1 F  s          
 
 Vector   36  Occ=0.000000D+00  E= 9.487992D+01
              MO Center= -2.5D-17,  8.3D-18, -5.9D-18, r^2= 6.0D-02
   Bfn.  Coefficient  Atom+Function         Bfn.  Coefficient  Atom+Function  
  ----- ------------  ---------------      ----- ------------  ---------------
     3     12.630417  1 F  s                  4     -8.285118  1 F  s          
     2     -4.272595  1 F  s                 15     -2.686754  1 F  dxx        
    18     -2.686762  1 F  dyy               20     -2.686841  1 F  dzz        
     1      1.720783  1 F  s                 21      1.592369  1 F  dxx        
    24      1.592372  1 F  dyy               26      1.592404  1 F  dzz        
 
 
                     DFT Final Beta Molecular Orbital Analysis
                     -----------------------------------------
 
 Vector    1  Occ=1.000000D+00  E=-2.447739D+01
              MO Center=  3.0D-18, -1.9D-18, -4.5D-18, r^2= 1.2D-02
   Bfn.  Coefficient  Atom+Function         Bfn.  Coefficient  Atom+Function  
  ----- ------------  ---------------      ----- ------------  ---------------
     2      0.649082  1 F  s                  1      0.426099  1 F  s          
     4     -0.082111  1 F  s                  3      0.063905  1 F  s          
 
 Vector    2  Occ=1.000000D+00  E=-1.066991D+00
              MO Center= -6.2D-17,  7.6D-15,  1.9D-15, r^2= 3.5D-01
   Bfn.  Coefficient  Atom+Function         Bfn.  Coefficient  Atom+Function  
  ----- ------------  ---------------      ----- ------------  ---------------
     4      0.456848  1 F  s                  3      0.407303  1 F  s          
     2     -0.261100  1 F  s                  5      0.234317  1 F  s          
     1     -0.108118  1 F  s          
 
 Vector    3  Occ=1.000000D+00  E=-3.798385D-01
              MO Center=  3.8D-15, -8.2D-15, -2.5D-15, r^2= 4.6D-01
   Bfn.  Coefficient  Atom+Function         Bfn.  Coefficient  Atom+Function  
  ----- ------------  ---------------      ----- ------------  ---------------
     7      0.457845  1 F  py                10      0.372540  1 F  py         
    13      0.246482  1 F  py                 6     -0.206393  1 F  px         
     9     -0.167938  1 F  px                 8      0.126098  1 F  pz         
    12     -0.111112  1 F  px                11      0.102604  1 F  pz         
    14      0.067885  1 F  pz         
 
 Vector    4  Occ=1.000000D+00  E=-3.798384D-01
              MO Center= -2.9D-15, -1.1D-15, -8.0D-16, r^2= 4.6D-01
   Bfn.  Coefficient  Atom+Function         Bfn.  Coefficient  Atom+Function  
  ----- ------------  ---------------      ----- ------------  ---------------
     6      0.471656  1 F  px                 9      0.383778  1 F  px         
    12      0.253917  1 F  px                 7      0.181604  1 F  py         
    10      0.147768  1 F  py                 8      0.112611  1 F  pz         
    13      0.097767  1 F  py                11      0.091630  1 F  pz         
    14      0.060625  1 F  pz         
 
 Vector    5  Occ=0.000000D+00  E=-3.176674D-01
              MO Center= -1.7D-16, -1.5D-16,  5.7D-16, r^2= 5.0D-01
   Bfn.  Coefficient  Atom+Function         Bfn.  Coefficient  Atom+Function  
  ----- ------------  ---------------      ----- ------------  ---------------
     8      0.470868  1 F  pz                11      0.381092  1 F  pz         
    14      0.299139  1 F  pz                 7     -0.153688  1 F  py         
    10     -0.124386  1 F  py                13     -0.097637  1 F  py         
     6     -0.053248  1 F  px                 9     -0.043096  1 F  px         
    12     -0.033828  1 F  px         
 
 Vector    6  Occ=0.000000D+00  E= 4.117820D-01
              MO Center=  7.2D-15, -9.7D-15, -5.8D-15, r^2= 1.6D+00
   Bfn.  Coefficient  Atom+Function         Bfn.  Coefficient  Atom+Function  
  ----- ------------  ---------------      ----- ------------  ---------------
     5      2.084498  1 F  s                  3     -1.356339  1 F  s          
     4      1.029992  1 F  s                 21     -0.821989  1 F  dxx        
    24     -0.821973  1 F  dyy               26     -0.821824  1 F  dzz        
     2      0.122597  1 F  s                  1      0.057889  1 F  s          
    15     -0.050822  1 F  dxx               18     -0.050468  1 F  dyy        
 
 Vector    7  Occ=0.000000D+00  E= 4.745708D-01
              MO Center= -8.2D-15,  1.3D-14,  3.3D-15, r^2= 1.9D+00
   Bfn.  Coefficient  Atom+Function         Bfn.  Coefficient  Atom+Function  
  ----- ------------  ---------------      ----- ------------  ---------------
    13      1.078910  1 F  py                10     -0.737687  1 F  py         
    12     -0.690442  1 F  px                 9      0.472078  1 F  px         
    14      0.274078  1 F  pz                 7     -0.238487  1 F  py         
    11     -0.187397  1 F  pz                 6      0.152618  1 F  px         
    35      0.108422  1 F  fyzz              28      0.107696  1 F  fxxy       
 
 Vector    8  Occ=0.000000D+00  E= 4.745708D-01
              MO Center=  1.1D-15,  6.0D-16,  3.3D-16, r^2= 1.9D+00
   Bfn.  Coefficient  Atom+Function         Bfn.  Coefficient  Atom+Function  
  ----- ------------  ---------------      ----- ------------  ---------------
    12      1.104339  1 F  px                 9     -0.755073  1 F  px         
    13      0.623309  1 F  py                10     -0.426177  1 F  py         
    14      0.328328  1 F  pz                 6     -0.244108  1 F  px         
    11     -0.224489  1 F  pz                 7     -0.137779  1 F  py         
    32      0.111062  1 F  fxzz              27      0.110275  1 F  fxxx       
 
 Vector    9  Occ=0.000000D+00  E= 4.903458D-01
              MO Center= -3.1D-16, -8.8D-16,  2.6D-15, r^2= 1.9D+00
   Bfn.  Coefficient  Atom+Function         Bfn.  Coefficient  Atom+Function  
  ----- ------------  ---------------      ----- ------------  ---------------
    14      1.237251  1 F  pz                11     -0.881167  1 F  pz         
    13     -0.403837  1 F  py                10      0.287611  1 F  py         
     8     -0.278173  1 F  pz                12     -0.139911  1 F  px         
    36      0.128585  1 F  fzzz              34      0.126974  1 F  fyyz       
    29      0.126308  1 F  fxxz               9      0.099644  1 F  px         
 
 Vector   10  Occ=0.000000D+00  E= 1.883140D+00
              MO Center=  9.8D-16, -8.5D-16, -1.3D-16, r^2= 5.7D-01
   Bfn.  Coefficient  Atom+Function         Bfn.  Coefficient  Atom+Function  
  ----- ------------  ---------------      ----- ------------  ---------------
    22      1.196477  1 F  dxy               21     -0.607161  1 F  dxx        
    24      0.515811  1 F  dyy               25      0.472027  1 F  dyz        
    23      0.253193  1 F  dxz               26      0.091350  1 F  dzz        
 
 Vector   11  Occ=0.000000D+00  E= 1.883140D+00
              MO Center= -1.1D-16,  5.3D-17, -3.6D-17, r^2= 5.7D-01
   Bfn.  Coefficient  Atom+Function         Bfn.  Coefficient  Atom+Function  
  ----- ------------  ---------------      ----- ------------  ---------------
    22      1.120716  1 F  dxy               21      0.604510  1 F  dxx        
    24     -0.590679  1 F  dyy               23      0.502507  1 F  dxz        
    25     -0.258855  1 F  dyz        
 
 Vector   12  Occ=0.000000D+00  E= 1.889484D+00
              MO Center=  3.3D-16,  3.6D-17,  3.3D-16, r^2= 5.7D-01
   Bfn.  Coefficient  Atom+Function         Bfn.  Coefficient  Atom+Function  
  ----- ------------  ---------------      ----- ------------  ---------------
    23      1.510778  1 F  dxz               22     -0.554793  1 F  dxy        
    25      0.337318  1 F  dyz               26      0.319015  1 F  dzz        
    21     -0.174926  1 F  dxx               24     -0.144088  1 F  dyy        
 
 Vector   13  Occ=0.000000D+00  E= 1.889484D+00
              MO Center= -1.0D-16,  9.5D-17,  3.4D-16, r^2= 5.7D-01
   Bfn.  Coefficient  Atom+Function         Bfn.  Coefficient  Atom+Function  
  ----- ------------  ---------------      ----- ------------  ---------------
    25      1.355824  1 F  dyz               23     -0.564298  1 F  dxz        
    24     -0.488343  1 F  dyy               26      0.430021  1 F  dzz        
    21      0.058322  1 F  dxx        
 
 Vector   14  Occ=0.000000D+00  E= 1.908945D+00
              MO Center= -2.3D-16, -3.6D-16,  1.5D-16, r^2= 5.7D-01
   Bfn.  Coefficient  Atom+Function         Bfn.  Coefficient  Atom+Function  
  ----- ------------  ---------------      ----- ------------  ---------------
    25      0.876482  1 F  dyz               26     -0.812840  1 F  dzz        
    21      0.512683  1 F  dxx               24      0.386816  1 F  dyy        
    23      0.303689  1 F  dxz                4     -0.114038  1 F  s          
    22     -0.099120  1 F  dxy                3      0.051388  1 F  s          
 
 Vector   15  Occ=0.000000D+00  E= 2.450024D+00
              MO Center=  1.7D-15, -3.5D-15, -1.1D-15, r^2= 9.7D-01
   Bfn.  Coefficient  Atom+Function         Bfn.  Coefficient  Atom+Function  
  ----- ------------  ---------------      ----- ------------  ---------------
    10      2.144212  1 F  py                 9     -1.161396  1 F  px         
     7     -0.832570  1 F  py                13     -0.776275  1 F  py         
    28     -0.577756  1 F  fxxy              33     -0.577480  1 F  fyyy       
    35     -0.575991  1 F  fyzz              11      0.568523  1 F  pz         
     6      0.450955  1 F  px                12      0.420463  1 F  px         
 
 Vector   16  Occ=0.000000D+00  E= 2.450024D+00
              MO Center=  2.5D-14,  1.3D-14,  6.7D-15, r^2= 9.7D-01
   Bfn.  Coefficient  Atom+Function         Bfn.  Coefficient  Atom+Function  
  ----- ------------  ---------------      ----- ------------  ---------------
     9      2.202098  1 F  px                10      1.036982  1 F  py         
     6     -0.855046  1 F  px                12     -0.797231  1 F  px         
    27     -0.593269  1 F  fxxx              30     -0.592996  1 F  fxyy       
    32     -0.591300  1 F  fxzz              11      0.587486  1 F  pz         
     7     -0.402647  1 F  py                13     -0.375421  1 F  py         
 
 Vector   17  Occ=0.000000D+00  E= 2.484412D+00
              MO Center=  9.9D-16,  4.0D-15, -1.3D-14, r^2= 9.6D-01
   Bfn.  Coefficient  Atom+Function         Bfn.  Coefficient  Atom+Function  
  ----- ------------  ---------------      ----- ------------  ---------------
    11      2.361629  1 F  pz                 8     -0.923057  1 F  pz         
    14     -0.847296  1 F  pz                10     -0.770821  1 F  py         
    29     -0.641522  1 F  fxxz              34     -0.641572  1 F  fyyz       
    36     -0.641692  1 F  fzzz               7      0.301280  1 F  py         
    13      0.276552  1 F  py                 9     -0.267062  1 F  px         
 
 Vector   18  Occ=0.000000D+00  E= 2.692668D+00
              MO Center= -2.8D-14, -1.2D-14,  6.8D-15, r^2= 9.4D-01
   Bfn.  Coefficient  Atom+Function         Bfn.  Coefficient  Atom+Function  
  ----- ------------  ---------------      ----- ------------  ---------------
     4     10.052259  1 F  s                  3     -4.336622  1 F  s          
    21     -3.664696  1 F  dxx               24     -3.664470  1 F  dyy        
    26     -3.662322  1 F  dzz                5      1.455403  1 F  s          
     2     -0.338788  1 F  s                 20     -0.185173  1 F  dzz        
    15     -0.178365  1 F  dxx               18     -0.179012  1 F  dyy        
 
 Vector   19  Occ=0.000000D+00  E= 6.827728D+00
              MO Center=  7.5D-18,  7.1D-17, -6.0D-17, r^2= 3.3D-01
   Bfn.  Coefficient  Atom+Function         Bfn.  Coefficient  Atom+Function  
  ----- ------------  ---------------      ----- ------------  ---------------
    32     -1.960432  1 F  fxzz              31      1.809697  1 F  fxyz       
    29      0.679208  1 F  fxxz              34      0.526019  1 F  fyyz       
    27      0.463056  1 F  fxxx              36     -0.429556  1 F  fzzz       
    35     -0.247360  1 F  fyzz              30      0.167151  1 F  fxyy       
     9      0.100320  1 F  px                33      0.063378  1 F  fyyy       
 
 Vector   20  Occ=0.000000D+00  E= 6.827730D+00
              MO Center=  3.1D-17, -8.1D-17,  1.2D-17, r^2= 3.3D-01
   Bfn.  Coefficient  Atom+Function         Bfn.  Coefficient  Atom+Function  
  ----- ------------  ---------------      ----- ------------  ---------------
    34      1.688217  1 F  fyyz              35     -1.546077  1 F  fyzz       
    32      0.856340  1 F  fxzz              36     -0.578218  1 F  fzzz       
    28      0.511443  1 F  fxxy              30     -0.257926  1 F  fxyy       
    33      0.214567  1 F  fyyy              27     -0.154526  1 F  fxxx       
    10      0.097047  1 F  py                29     -0.065793  1 F  fxxz       
 
 Vector   21  Occ=0.000000D+00  E= 6.831445D+00
              MO Center=  2.8D-17,  1.5D-16, -3.0D-16, r^2= 3.3D-01
   Bfn.  Coefficient  Atom+Function         Bfn.  Coefficient  Atom+Function  
  ----- ------------  ---------------      ----- ------------  ---------------
    31      2.243410  1 F  fxyz              29     -1.340623  1 F  fxxz       
    30     -0.949012  1 F  fxyy              35      0.932795  1 F  fyzz       
    34      0.762491  1 F  fyyz              32      0.514579  1 F  fxzz       
    33     -0.354844  1 F  fyyy              36      0.192696  1 F  fzzz       
    27      0.144797  1 F  fxxx              28      0.131664  1 F  fxxy       
 
 Vector   22  Occ=0.000000D+00  E= 6.831446D+00
              MO Center=  1.1D-16,  3.7D-19,  1.1D-16, r^2= 3.3D-01
   Bfn.  Coefficient  Atom+Function         Bfn.  Coefficient  Atom+Function  
  ----- ------------  ---------------      ----- ------------  ---------------
    31      2.078084  1 F  fxyz              29      1.158452  1 F  fxxz       
    34     -1.071003  1 F  fyyz              32      1.063910  1 F  fxzz       
    28     -0.684584  1 F  fxxy              30     -0.629803  1 F  fxyy       
    35     -0.538749  1 F  fyzz              33      0.407810  1 F  fyyy       
    27     -0.144676  1 F  fxxx              36     -0.029107  1 F  fzzz       
 
 Vector   23  Occ=0.000000D+00  E= 6.833840D+00
              MO Center= -1.2D-16, -1.7D-16, -4.0D-17, r^2= 3.3D-01
   Bfn.  Coefficient  Atom+Function         Bfn.  Coefficient  Atom+Function  
  ----- ------------  ---------------      ----- ------------  ---------------
    35      1.624500  1 F  fyzz              29      1.268287  1 F  fxxz       
    36     -0.760563  1 F  fzzz              34      0.675052  1 F  fyyz       
    32      0.564036  1 F  fxzz              31     -0.467095  1 F  fxyz       
    28     -0.413838  1 F  fxxy              33     -0.366790  1 F  fyyy       
    27     -0.149687  1 F  fxxx              11      0.081161  1 F  pz         
 
 Vector   24  Occ=0.000000D+00  E= 6.855184D+00
              MO Center= -1.3D-16,  1.1D-17, -1.1D-17, r^2= 3.3D-01
   Bfn.  Coefficient  Atom+Function         Bfn.  Coefficient  Atom+Function  
  ----- ------------  ---------------      ----- ------------  ---------------
    30      1.813641  1 F  fxyy              28     -1.240233  1 F  fxxy       
    31      0.903407  1 F  fxyz              27     -0.630368  1 F  fxxx       
    29     -0.618637  1 F  fxxz              34      0.536137  1 F  fyyz       
    33      0.338050  1 F  fyyy              35      0.226079  1 F  fyzz       
    32      0.077455  1 F  fxzz              36      0.027496  1 F  fzzz       
 
 Vector   25  Occ=0.000000D+00  E= 6.855184D+00
              MO Center=  2.2D-16, -1.2D-16, -1.4D-17, r^2= 3.3D-01
   Bfn.  Coefficient  Atom+Function         Bfn.  Coefficient  Atom+Function  
  ----- ------------  ---------------      ----- ------------  ---------------
    28      1.853599  1 F  fxxy              31      1.152935  1 F  fxyz       
    30      1.123986  1 F  fxyy              33     -0.590506  1 F  fyyy       
    27     -0.454378  1 F  fxxx              29      0.450857  1 F  fxxz       
    34     -0.451133  1 F  fyyz              32      0.239156  1 F  fxzz       
    35     -0.082085  1 F  fyzz       
 
 Vector   26  Occ=0.000000D+00  E= 7.307177D+00
              MO Center=  1.1D-15,  3.3D-15, -1.0D-14, r^2= 4.8D-01
   Bfn.  Coefficient  Atom+Function         Bfn.  Coefficient  Atom+Function  
  ----- ------------  ---------------      ----- ------------  ---------------
    11      2.105428  1 F  pz                29     -1.765072  1 F  fxxz       
    34     -1.741562  1 F  fyyz              36     -1.684673  1 F  fzzz       
     8      0.751226  1 F  pz                10     -0.687199  1 F  py         
    28      0.576110  1 F  fxxy              33      0.574247  1 F  fyyy       
    35      0.495293  1 F  fyzz              14     -0.487652  1 F  pz         
 
 Vector   27  Occ=0.000000D+00  E= 7.315206D+00
              MO Center=  4.8D-15, -6.8D-15, -1.7D-15, r^2= 4.9D-01
   Bfn.  Coefficient  Atom+Function         Bfn.  Coefficient  Atom+Function  
  ----- ------------  ---------------      ----- ------------  ---------------
    10      1.815104  1 F  py                28     -1.501297  1 F  fxxy       
    33     -1.486345  1 F  fyyy              35     -1.410173  1 F  fyzz       
     9     -1.217154  1 F  px                27      1.003259  1 F  fxxx       
    30      1.004402  1 F  fxyy              32      0.928256  1 F  fxzz       
     7      0.641581  1 F  py                11      0.454781  1 F  pz         
 
 Vector   28  Occ=0.000000D+00  E= 7.315206D+00
              MO Center=  6.8D-15,  3.8D-15,  1.9D-15, r^2= 4.9D-01
   Bfn.  Coefficient  Atom+Function         Bfn.  Coefficient  Atom+Function  
  ----- ------------  ---------------      ----- ------------  ---------------
     9      1.855933  1 F  px                27     -1.529783  1 F  fxxx       
    30     -1.515104  1 F  fxyy              32     -1.431843  1 F  fxzz       
    10      1.101833  1 F  py                28     -0.900326  1 F  fxxy       
    33     -0.902265  1 F  fyyy              35     -0.867039  1 F  fyzz       
     6      0.656013  1 F  px                11      0.569535  1 F  pz         
 
 Vector   29  Occ=0.000000D+00  E= 8.167932D+00
              MO Center= -1.5D-16,  4.8D-16,  2.0D-16, r^2= 2.4D-01
   Bfn.  Coefficient  Atom+Function         Bfn.  Coefficient  Atom+Function  
  ----- ------------  ---------------      ----- ------------  ---------------
    16      1.370841  1 F  dxy               15     -0.710716  1 F  dxx        
    22     -0.690973  1 F  dxy               18      0.604743  1 F  dyy        
    19      0.549899  1 F  dyz               21      0.358238  1 F  dxx        
    24     -0.304820  1 F  dyy               17      0.286734  1 F  dxz        
    25     -0.277177  1 F  dyz               23     -0.144528  1 F  dxz        
 
 Vector   30  Occ=0.000000D+00  E= 8.167934D+00
              MO Center=  2.8D-16,  4.1D-17, -1.4D-17, r^2= 2.4D-01
   Bfn.  Coefficient  Atom+Function         Bfn.  Coefficient  Atom+Function  
  ----- ------------  ---------------      ----- ------------  ---------------
    16      1.312938  1 F  dxy               15      0.692086  1 F  dxx        
    18     -0.677212  1 F  dyy               22     -0.661787  1 F  dxy        
    17      0.584943  1 F  dxz               21     -0.348868  1 F  dxx        
    24      0.341327  1 F  dyy               19     -0.293815  1 F  dyz        
    23     -0.294841  1 F  dxz               25      0.148097  1 F  dyz        
 
 Vector   31  Occ=0.000000D+00  E= 8.186822D+00
              MO Center=  5.9D-16, -9.6D-18,  1.8D-16, r^2= 2.4D-01
   Bfn.  Coefficient  Atom+Function         Bfn.  Coefficient  Atom+Function  
  ----- ------------  ---------------      ----- ------------  ---------------
    17      1.696307  1 F  dxz               23     -0.852636  1 F  dxz        
    16     -0.640117  1 F  dxy               19      0.501462  1 F  dyz        
    20      0.403784  1 F  dzz               22      0.321750  1 F  dxy        
    25     -0.252056  1 F  dyz               18     -0.206845  1 F  dyy        
    26     -0.203034  1 F  dzz               15     -0.196951  1 F  dxx        
 
 Vector   32  Occ=0.000000D+00  E= 8.186825D+00
              MO Center=  1.4D-17, -1.0D-16, -3.4D-17, r^2= 2.4D-01
   Bfn.  Coefficient  Atom+Function         Bfn.  Coefficient  Atom+Function  
  ----- ------------  ---------------      ----- ------------  ---------------
    19      1.536555  1 F  dyz               17     -0.776196  1 F  dxz        
    25     -0.772338  1 F  dyz               18     -0.551440  1 F  dyy        
    20      0.469453  1 F  dzz               23      0.390149  1 F  dxz        
    24      0.277383  1 F  dyy               26     -0.235761  1 F  dzz        
    15      0.082018  1 F  dxx               16      0.044976  1 F  dxy        
 
 Vector   33  Occ=0.000000D+00  E= 8.202564D+00
              MO Center=  4.1D-17,  3.3D-18,  2.7D-16, r^2= 2.4D-01
   Bfn.  Coefficient  Atom+Function         Bfn.  Coefficient  Atom+Function  
  ----- ------------  ---------------      ----- ------------  ---------------
     4      2.991306  1 F  s                  3     -1.571918  1 F  s          
    26     -1.279790  1 F  dzz               19     -1.010197  1 F  dyz        
    20      0.929561  1 F  dzz               15     -0.598805  1 F  dxx        
    24     -0.584700  1 F  dyy               21     -0.511841  1 F  dxx        
    25      0.507588  1 F  dyz               18     -0.453802  1 F  dyy        
 
 Vector   34  Occ=0.000000D+00  E= 8.398853D+00
              MO Center= -1.4D-14, -5.9D-16,  1.0D-14, r^2= 4.9D-01
   Bfn.  Coefficient  Atom+Function         Bfn.  Coefficient  Atom+Function  
  ----- ------------  ---------------      ----- ------------  ---------------
     4     38.218629  1 F  s                  3    -19.922200  1 F  s          
    21    -10.121641  1 F  dxx               24    -10.116304  1 F  dyy        
    26    -10.065436  1 F  dzz               20     -0.702860  1 F  dzz        
    18     -0.595301  1 F  dyy               15     -0.584015  1 F  dxx        
     2      0.278480  1 F  s                  1      0.169863  1 F  s          
 
 Vector   35  Occ=0.000000D+00  E= 2.196443D+01
              MO Center= -9.1D-17, -3.4D-17, -2.6D-17, r^2= 2.2D-01
   Bfn.  Coefficient  Atom+Function         Bfn.  Coefficient  Atom+Function  
  ----- ------------  ---------------      ----- ------------  ---------------
     4     11.602864  1 F  s                 21     -3.437611  1 F  dxx        
    24     -3.437803  1 F  dyy               26     -3.439631  1 F  dzz        
    15     -3.206059  1 F  dxx               18     -3.205714  1 F  dyy        
    20     -3.202420  1 F  dzz                2     -1.946116  1 F  s          
     3      1.842759  1 F  s                  1     -0.229377  1 F  s          
 
 Vector   36  Occ=0.000000D+00  E= 9.494193D+01
              MO Center=  1.1D-17, -2.7D-19, -1.1D-17, r^2= 6.0D-02
   Bfn.  Coefficient  Atom+Function         Bfn.  Coefficient  Atom+Function  
  ----- ------------  ---------------      ----- ------------  ---------------
     3     12.639241  1 F  s                  4     -8.294131  1 F  s          
     2     -4.273751  1 F  s                 15     -2.688266  1 F  dxx        
    18     -2.688222  1 F  dyy               20     -2.687803  1 F  dzz        
     1      1.720569  1 F  s                 21      1.594510  1 F  dxx        
    24      1.594498  1 F  dyy               26      1.594383  1 F  dzz        
 

   alpha - beta orbital overlaps 
   ----------------------------- 


   alpha      1      2      3      4      5      6      7      8      9     10
    beta      1      2      5      4      3      6      9      8      7     14
 overlap   1.000  0.999  0.997  0.998  0.998  1.000  0.997  0.999  0.999  0.999


   alpha     11     12     13     14     15     16     17     18     19     20
    beta     13     12     11     10     17     16     15     18     23     20
 overlap   0.981  0.981  1.000  1.000  0.999  0.985  0.985  1.000  1.000  0.996


   alpha     21     22     23     24     25     26     27     28     29     30
    beta     19     22     21     25     24     26     28     27     33     32
 overlap   0.996  1.000  1.000  0.999  0.999  1.000  0.962  0.962  0.991  0.989


   alpha     31     32     33     34     35     36
    beta     31     30     29     34     35     36
 overlap   0.989  0.999  0.999  0.991  1.000  1.000

     --------------------------
     Expectation value of S2:  
     --------------------------
      <S2> =      0.7515 (Exact =     0.7500)
 

 Parallel integral file used       4 records with       0 large values


 Task  times  cpu:       12.7s     wall:       13.1s
 
 
                                NWChem Input Module
                                -------------------
 
 
 Summary of allocated global arrays
-----------------------------------
  No active global arrays



                         GA Statistics for process    0
                         ------------------------------

       create   destroy   get      put      acc     scatter   gather  read&inc
calls:  221      221      933      615      166        0        0       11     
number of processes/call 1.41e+00 1.44e+00 1.90e+00 0.00e+00 0.00e+00
bytes total:             5.03e+06 2.01e+06 1.72e+06 0.00e+00 0.00e+00 8.80e+01
bytes remote:            2.91e+05 1.44e+05 2.43e+05 0.00e+00 0.00e+00 0.00e+00
Max memory consumed for GA by this process: 673920 bytes
 
MA_summarize_allocated_blocks: starting scan ...
MA_summarize_allocated_blocks: scan completed: 0 heap blocks, 0 stack blocks
MA usage statistics:

	allocation statistics:
					      heap	     stack
					      ----	     -----
	current number of blocks	         0	         0
	maximum number of blocks	        21	        51
	current total bytes		         0	         0
	maximum total bytes		   1884616	  22512056
	maximum total K-bytes		      1885	     22513
	maximum total M-bytes		         2	        23
 
 
                                     CITATION
                                     --------
                Please cite the following reference when publishing
                           results obtained with NWChem:
 
                 M. Valiev, E.J. Bylaska, N. Govind, K. Kowalski,
              T.P. Straatsma, H.J.J. van Dam, D. Wang, J. Nieplocha,
                        E. Apra, T.L. Windus, W.A. de Jong
                 "NWChem: a comprehensive and scalable open-source
                  solution for large scale molecular simulations"
                      Comput. Phys. Commun. 181, 1477 (2010)
                           doi:10.1016/j.cpc.2010.04.018
 
                                      AUTHORS
                                      -------
          E. Apra, E. J. Bylaska, W. A. de Jong, N. Govind, K. Kowalski,
       T. P. Straatsma, M. Valiev, H. J. J. van Dam, D. Wang, T. L. Windus,
        J. Hammond, J. Autschbach, K. Bhaskaran-Nair, J. Brabec, K. Lopata,
    S. A. Fischer, S. Krishnamoorthy, M. Jacquelin, W. Ma, M. Klemm, O. Villa,
      Y. Chen, V. Anisimov, F. Aquino, S. Hirata, M. T. Hackler, V. Konjkov,
            D. Mejia-Rodriguez, T. Risthaus, M. Malagoli, A. Marenich,
   A. Otero-de-la-Roza, J. Mullin, P. Nichols, R. Peverati, J. Pittner, Y. Zhao,
        P.-D. Fan, A. Fonari, M. J. Williamson, R. J. Harrison, J. R. Rehr,
      M. Dupuis, D. Silverstein, D. M. A. Smith, J. Nieplocha, V. Tipparaju,
    M. Krishnan, B. E. Van Kuiken, A. Vazquez-Mayagoitia, L. Jensen, M. Swart,
      Q. Wu, T. Van Voorhis, A. A. Auer, M. Nooijen, L. D. Crosby, E. Brown,
      G. Cisneros, G. I. Fann, H. Fruchtl, J. Garza, K. Hirao, R. A. Kendall,
      J. A. Nichols, K. Tsemekhman, K. Wolinski, J. Anchell, D. E. Bernholdt,
      P. Borowski, T. Clark, D. Clerc, H. Dachsel, M. J. O. Deegan, K. Dyall,
    D. Elwood, E. Glendening, M. Gutowski, A. C. Hess, J. Jaffe, B. G. Johnson,
     J. Ju, R. Kobayashi, R. Kutteh, Z. Lin, R. Littlefield, X. Long, B. Meng,
      T. Nakajima, S. Niu, L. Pollack, M. Rosing, K. Glaesemann, G. Sandrone,
      M. Stave, H. Taylor, G. Thomas, J. H. van Lenthe, A. T. Wong, Z. Zhang.

 Total times  cpu:       12.8s     wall:       13.3s
