  NWChem w/ OpenMP: maximum threads =  1
                                         
                                         
 
 
              Northwest Computational Chemistry Package (NWChem) 6.8
              ------------------------------------------------------
 
 
                    Environmental Molecular Sciences Laboratory
                       Pacific Northwest National Laboratory
                                Richland, WA 99352
 
                              Copyright (c) 1994-2017
                       Pacific Northwest National Laboratory
                            Battelle Memorial Institute
 
             NWChem is an open-source computational chemistry package
                        distributed under the terms of the
                      Educational Community License (ECL) 2.0
             A copy of the license is included with this distribution
                              in the LICENSE.TXT file
 
                                  ACKNOWLEDGMENT
                                  --------------

            This software and its documentation were developed at the
            EMSL at Pacific Northwest National Laboratory, a multiprogram
            national laboratory, operated for the U.S. Department of Energy
            by Battelle under Contract Number DE-AC05-76RL01830. Support
            for this work was provided by the Department of Energy Office
            of Biological and Environmental Research, Office of Basic
            Energy Sciences, and the Office of Advanced Scientific Computing.


           Job information
           ---------------

    hostname        = kohn
    program         = nwchem
    date            = Wed Sep 26 21:46:41 2018

    compiled        = Wed_Sep_26_21:04:37_2018
    source          = /home/kohn/softwares/nwchem/nwchem-6.8
    nwchem branch   = 6.8
    nwchem revision = v6.8-47-gdf6c956
    ga revision     = ga-5.6.3
    use scalapack   = F
    input           = nwchem.nw
    prefix          = H.
    data base       = ./H.db
    status          = startup
    nproc           =        4
    time left       =     -1s



           Memory information
           ------------------

    heap     =   13107198 doubles =    100.0 Mbytes
    stack    =   13107195 doubles =    100.0 Mbytes
    global   =   26214400 doubles =    200.0 Mbytes (distinct from heap & stack)
    total    =   52428793 doubles =    400.0 Mbytes
    verify   = yes
    hardfail = no 


           Directory information
           ---------------------
 
  0 permanent = .
  0 scratch   = .
 
 
 
 
                                NWChem Input Module
                                -------------------
 
 

 Scaling coordinates for geometry "geometry" by  1.889725989
 (inverse scale =  0.529177249)

 
 
                             Geometry "geometry" -> ""
                             -------------------------
 
 Output coordinates in angstroms (scale by  1.889725989 to convert to a.u.)
 
  No.       Tag          Charge          X              Y              Z
 ---- ---------------- ---------- -------------- -------------- --------------
    1 H                    1.0000     0.00000000     0.00000000     0.00000000
 
      Atomic Mass 
      ----------- 
 
      H                  1.007825
 

 Effective nuclear repulsion energy (a.u.)       0.0000000000

            Nuclear Dipole moment (a.u.) 
            ----------------------------
        X                 Y               Z
 ---------------- ---------------- ----------------
     0.0000000000     0.0000000000     0.0000000000
 
 
            XYZ format geometry
            -------------------
     1
 geometry
 H                     0.00000000     0.00000000     0.00000000
 


 Summary of "ao basis" -> "" (cartesian)
 ------------------------------------------------------------------------------
       Tag                 Description            Shells   Functions and Types
 ---------------- ------------------------------  ------  ---------------------
 *                         def2-TZVPP                 on all atoms 


 
                                 NWChem DFT Module
                                 -----------------
 
 
                      Basis "ao basis" -> "ao basis" (cartesian)
                      -----
  H (Hydrogen)
  ------------
            Exponent  Coefficients 
       -------------- ---------------------------------------------------------
  1 S  3.40613410E+01  0.006025
  1 S  5.12357460E+00  0.045021
  1 S  1.16466260E+00  0.201897
 
  2 S  3.27230410E-01  1.000000
 
  3 S  1.03072410E-01  1.000000
 
  4 P  1.40700000E+00  1.000000
 
  5 P  3.88000000E-01  1.000000
 
  6 D  1.05700000E+00  1.000000
 


 Summary of "ao basis" -> "ao basis" (cartesian)
 ------------------------------------------------------------------------------
       Tag                 Description            Shells   Functions and Types
 ---------------- ------------------------------  ------  ---------------------
 H                         def2-TZVPP                6       15   3s2p1d




 Summary of "ao basis" -> "ao basis" (cartesian)
 ------------------------------------------------------------------------------
       Tag                 Description            Shells   Functions and Types
 ---------------- ------------------------------  ------  ---------------------
 H                         def2-TZVPP                6       15   3s2p1d


  Caching 1-el integrals 
 
            General Information
            -------------------
          SCF calculation type: DFT
          Wavefunction type:  spin polarized.
          No. of atoms     :     1
          No. of electrons :     1
           Alpha electrons :     1
            Beta electrons :     0
          Charge           :     0
          Spin multiplicity:     2
          Use of symmetry is: off; symmetry adaption is: off
          Maximum number of iterations: ***
          AO basis - number of functions:    15
                     number of shells:     6
          Convergence on energy requested:  1.00D-06
          Convergence on density requested:  1.00D-05
          Convergence on gradient requested:  5.00D-04
 
              XC Information
              --------------
                  TPSS metaGGA Exchange Functional  1.000          
             TPSS03 metaGGA Correlation Functional  1.000          
 
             Grid Information
             ----------------
          Grid used for XC integration:  medium    
          Radial quadrature: Mura-Knowles        
          Angular quadrature: Lebedev. 
          Tag              B.-S. Rad. Rad. Pts. Rad. Cut. Ang. Pts.
          ---              ---------- --------- --------- ---------
          H                   0.35       45           5.0       434
          Grid pruning is: on 
          Number of quadrature shells:    45
          Spatial weights used:  Erf1
 
          Convergence Information
          -----------------------
          Convergence aids based upon iterative change in 
          total energy or number of iterations. 
          Levelshifting, if invoked, occurs when the 
          HOMO/LUMO gap drops below (HL_TOL):  1.00D-02
          DIIS, if invoked, will attempt to extrapolate 
          using up to (NFOCK): 10 stored Fock matrices.

                    Damping( 0%)  Levelshifting(0.5)       DIIS
                  --------------- ------------------- ---------------
          dE  on:    start            ASAP                start   
          dE off:    2 iters        *** iters           *** iters 

 
      Screening Tolerance Information
      -------------------------------
          Density screening/tol_rho:  1.00D-10
          AO Gaussian exp screening on grid/accAOfunc:  14
          CD Gaussian exp screening on grid/accCDfunc:  20
          XC Gaussian exp screening on grid/accXCfunc:  20
          Schwarz screening/accCoul:  1.00D-08

 
      Superposition of Atomic Density Guess
      -------------------------------------
 
 Sum of atomic energies:          -0.49980920
 
      Non-variational initial energy
      ------------------------------

 Total energy =      -0.499810
 1-e energy   =      -0.499810
 2-e energy   =       0.000000
 HOMO         =      -0.499810
 LUMO         =       0.013404
 
   Time after variat. SCF:      1.0
   Time prior to 1st pass:      1.1

 #quartets = 2.310D+02 #integrals = 1.797D+03 #direct =  0.0% #cached =100.0%


 Integral file          = ./H.aoints.0
 Record size in doubles =    65536    No. of integs per rec  =    43688
 Max. records in memory =        2    Max. records in file   =  1478997
 No. of bits per label  =        8    No. of bits per value  =       64


File balance: exchanges=     0  moved=     0  time=   0.0


 Grid_pts file          = ./H.gridpts.0
 Record size in doubles =  12289        No. of grid_pts per rec  =   3070
 Max. records in memory =      3        Max. recs in file   =   7887347


           Memory utilization after 1st SCF pass: 
           Heap Space remaining (MW):       12.94            12938302
          Stack Space remaining (MW):       13.11            13106940

   convergence    iter        energy       DeltaE   RMS-Dens  Diis-err    time
 ---------------- ----- ----------------- --------- --------- ---------  ------
 d= 0,ls=0.0,diis     1     -0.4997862809 -5.00D-01  2.74D-03  3.17D-04     2.3
                                                     0.00D+00  0.00D+00
 d= 0,ls=0.0,diis     2     -0.4998972355 -1.11D-04  9.08D-05  4.59D-06     3.0
                                                     0.00D+00  0.00D+00
 d= 0,ls=0.0,diis     3     -0.4998984290 -1.19D-06  2.62D-05  1.44D-08     3.5
                                                     0.00D+00  0.00D+00
 d= 0,ls=0.0,diis     4     -0.4998984420 -1.29D-08  8.90D-07  5.59D-11     4.3
                                                     0.00D+00  0.00D+00


         Total DFT energy =       -0.499898441959
      One electron energy =       -0.499690232505
           Coulomb energy =        0.311644664621
          Exchange energy =       -0.311852874075
       Correlation energy =        0.000000000000
 Nuclear repulsion energy =        0.000000000000

 Numeric. integr. density =        0.999999952612

     Total iterative time =      3.2s


 
                    DFT Final Alpha Molecular Orbital Analysis
                    ------------------------------------------
 
 Vector    1  Occ=1.000000D+00  E=-2.846065D-01
              MO Center=  3.5D-14,  3.5D-14,  3.5D-14, r^2= 8.5D-01
   Bfn.  Coefficient  Atom+Function         Bfn.  Coefficient  Atom+Function  
  ----- ------------  ---------------      ----- ------------  ---------------
     2      0.466482  1 H  s                  3      0.406284  1 H  s          
     1      0.248075  1 H  s          
 
 Vector    2  Occ=0.000000D+00  E= 2.083840D-01
              MO Center= -1.5D-12, -1.5D-12, -1.5D-12, r^2= 3.1D+00
   Bfn.  Coefficient  Atom+Function         Bfn.  Coefficient  Atom+Function  
  ----- ------------  ---------------      ----- ------------  ---------------
     2      1.717250  1 H  s                  3     -1.672437  1 H  s          
    10     -0.118497  1 H  dxx               13     -0.118497  1 H  dyy        
    15     -0.118497  1 H  dzz        
 
 Vector    3  Occ=0.000000D+00  E= 5.470949D-01
              MO Center= -2.6D-11, -2.5D-11, -2.8D-11, r^2= 9.5D-01
   Bfn.  Coefficient  Atom+Function         Bfn.  Coefficient  Atom+Function  
  ----- ------------  ---------------      ----- ------------  ---------------
     9      0.644430  1 H  pz                 7      0.598436  1 H  px         
     8      0.569714  1 H  py                 6     -0.049906  1 H  pz         
     4     -0.046345  1 H  px                 5     -0.044120  1 H  py         
 
 Vector    4  Occ=0.000000D+00  E= 5.470949D-01
              MO Center= -9.0D-13, -1.3D-12, -1.2D-12, r^2= 9.5D-01
   Bfn.  Coefficient  Atom+Function         Bfn.  Coefficient  Atom+Function  
  ----- ------------  ---------------      ----- ------------  ---------------
     7      0.818179  1 H  px                 8     -0.619270  1 H  py         
     9     -0.212314  1 H  pz                 4     -0.063362  1 H  px         
     5      0.047958  1 H  py         
 
 Vector    5  Occ=0.000000D+00  E= 5.470949D-01
              MO Center= -1.7D-12, -2.5D-12,  5.3D-13, r^2= 9.5D-01
   Bfn.  Coefficient  Atom+Function         Bfn.  Coefficient  Atom+Function  
  ----- ------------  ---------------      ----- ------------  ---------------
     9      0.798513  1 H  pz                 8     -0.624437  1 H  py         
     7     -0.265418  1 H  px                 6     -0.061839  1 H  pz         
     5      0.048358  1 H  py         
 
 Vector    6  Occ=0.000000D+00  E= 1.506678D+00
              MO Center=  9.4D-11,  9.4D-11,  9.4D-11, r^2= 1.6D+00
   Bfn.  Coefficient  Atom+Function         Bfn.  Coefficient  Atom+Function  
  ----- ------------  ---------------      ----- ------------  ---------------
     2      3.704325  1 H  s                  1     -1.553070  1 H  s          
     3     -1.237175  1 H  s                 10     -0.721889  1 H  dxx        
    13     -0.721889  1 H  dyy               15     -0.721889  1 H  dzz        
 
 Vector    7  Occ=0.000000D+00  E= 3.191553D+00
              MO Center= -1.9D-11, -2.0D-11, -1.8D-11, r^2= 4.6D-01
   Bfn.  Coefficient  Atom+Function         Bfn.  Coefficient  Atom+Function  
  ----- ------------  ---------------      ----- ------------  ---------------
    11      1.096912  1 H  dxy               14      0.991685  1 H  dyz        
    12      0.898492  1 H  dxz               15     -0.044897  1 H  dzz        
 
 Vector    8  Occ=0.000000D+00  E= 3.191553D+00
              MO Center= -1.9D-11, -1.1D-11, -7.5D-12, r^2= 4.6D-01
   Bfn.  Coefficient  Atom+Function         Bfn.  Coefficient  Atom+Function  
  ----- ------------  ---------------      ----- ------------  ---------------
    11      1.031292  1 H  dxy               12     -0.992406  1 H  dxz        
    15     -0.486325  1 H  dzz               13      0.435585  1 H  dyy        
    14     -0.306473  1 H  dyz               10      0.050740  1 H  dxx        
 
 Vector    9  Occ=0.000000D+00  E= 3.191553D+00
              MO Center= -1.3D-11, -1.5D-11, -1.5D-11, r^2= 4.6D-01
   Bfn.  Coefficient  Atom+Function         Bfn.  Coefficient  Atom+Function  
  ----- ------------  ---------------      ----- ------------  ---------------
    14      0.862860  1 H  dyz               10     -0.783191  1 H  dxx        
    12     -0.516574  1 H  dxz               13      0.499882  1 H  dyy        
    11     -0.318679  1 H  dxy               15      0.283309  1 H  dzz        
 
 Vector   10  Occ=0.000000D+00  E= 3.191553D+00
              MO Center=  4.3D-12, -5.8D-12, -2.6D-12, r^2= 4.6D-01
   Bfn.  Coefficient  Atom+Function         Bfn.  Coefficient  Atom+Function  
  ----- ------------  ---------------      ----- ------------  ---------------
    12      0.908974  1 H  dxz               13      0.747907  1 H  dyy        
    15     -0.553691  1 H  dzz               14     -0.457689  1 H  dyz        
    11     -0.396194  1 H  dxy               10     -0.194216  1 H  dxx        
 
 Vector   11  Occ=0.000000D+00  E= 3.191553D+00
              MO Center= -6.4D-13,  3.1D-12, -4.7D-12, r^2= 4.6D-01
   Bfn.  Coefficient  Atom+Function         Bfn.  Coefficient  Atom+Function  
  ----- ------------  ---------------      ----- ------------  ---------------
    14      0.984189  1 H  dyz               11     -0.688980  1 H  dxy        
    15     -0.612074  1 H  dzz               10      0.588001  1 H  dxx        
    12     -0.338765  1 H  dxz        
 
 Vector   12  Occ=0.000000D+00  E= 3.645020D+00
              MO Center= -4.6D-11, -4.6D-11, -4.6D-11, r^2= 4.3D-01
   Bfn.  Coefficient  Atom+Function         Bfn.  Coefficient  Atom+Function  
  ----- ------------  ---------------      ----- ------------  ---------------
     4      0.731109  1 H  px                 5      0.732212  1 H  py         
     6      0.728570  1 H  pz                 7     -0.412606  1 H  px         
     8     -0.413229  1 H  py                 9     -0.411173  1 H  pz         
 
 Vector   13  Occ=0.000000D+00  E= 3.645020D+00
              MO Center=  1.5D-11,  1.6D-11,  1.5D-11, r^2= 4.3D-01
   Bfn.  Coefficient  Atom+Function         Bfn.  Coefficient  Atom+Function  
  ----- ------------  ---------------      ----- ------------  ---------------
     6      0.996985  1 H  pz                 5     -0.736051  1 H  py         
     9     -0.562655  1 H  pz                 8      0.415395  1 H  py         
     4     -0.256361  1 H  px                 7      0.144679  1 H  px         
 
 Vector   14  Occ=0.000000D+00  E= 3.645020D+00
              MO Center=  1.5D-11,  1.5D-11,  1.5D-11, r^2= 4.3D-01
   Bfn.  Coefficient  Atom+Function         Bfn.  Coefficient  Atom+Function  
  ----- ------------  ---------------      ----- ------------  ---------------
     4      1.000614  1 H  px                 5     -0.723578  1 H  py         
     7     -0.564703  1 H  px                 8      0.408356  1 H  py         
     6     -0.276907  1 H  pz                 9      0.156274  1 H  pz         
 
 Vector   15  Occ=0.000000D+00  E= 4.460025D+00
              MO Center= -1.1D-12, -1.1D-12, -1.1D-12, r^2= 6.5D-01
   Bfn.  Coefficient  Atom+Function         Bfn.  Coefficient  Atom+Function  
  ----- ------------  ---------------      ----- ------------  ---------------
     2      2.779814  1 H  s                 10     -1.271953  1 H  dxx        
    13     -1.271953  1 H  dyy               15     -1.271953  1 H  dzz        
     3     -0.634541  1 H  s                  1      0.377675  1 H  s          
 
 
                     DFT Final Beta Molecular Orbital Analysis
                     -----------------------------------------
 
 Vector    1  Occ=0.000000D+00  E=-4.998099D-01
              MO Center=  4.3D-19,  1.4D-19,  5.9D-20, r^2= 8.4D-01
   Bfn.  Coefficient  Atom+Function         Bfn.  Coefficient  Atom+Function  
  ----- ------------  ---------------      ----- ------------  ---------------
     2      0.502004  1 H  s                  3      0.385865  1 H  s          
     1      0.237050  1 H  s          
 
 Vector    2  Occ=0.000000D+00  E= 1.340415D-02
              MO Center=  8.9D-17,  2.8D-17,  1.4D-16, r^2= 3.1D+00
   Bfn.  Coefficient  Atom+Function         Bfn.  Coefficient  Atom+Function  
  ----- ------------  ---------------      ----- ------------  ---------------
     2      1.651466  1 H  s                  3     -1.654768  1 H  s          
    10     -0.105586  1 H  dxx               13     -0.105586  1 H  dyy        
    15     -0.105586  1 H  dzz                1      0.045940  1 H  s          
 
 Vector    3  Occ=0.000000D+00  E= 2.984570D-01
              MO Center=  1.5D-17, -1.2D-16, -2.9D-16, r^2= 9.4D-01
   Bfn.  Coefficient  Atom+Function         Bfn.  Coefficient  Atom+Function  
  ----- ------------  ---------------      ----- ------------  ---------------
     9      0.870980  1 H  pz                 8      0.528913  1 H  py         
     7      0.215841  1 H  px                 6     -0.058658  1 H  pz         
     5     -0.035621  1 H  py         
 
 Vector    4  Occ=0.000000D+00  E= 2.984570D-01
              MO Center=  9.5D-17, -1.0D-16,  9.0D-17, r^2= 9.4D-01
   Bfn.  Coefficient  Atom+Function         Bfn.  Coefficient  Atom+Function  
  ----- ------------  ---------------      ----- ------------  ---------------
     8      0.778124  1 H  py                 7     -0.613845  1 H  px         
     9     -0.320406  1 H  pz                 5     -0.052405  1 H  py         
     4      0.041341  1 H  px         
 
 Vector    5  Occ=0.000000D+00  E= 2.984570D-01
              MO Center=  5.5D-17, -6.9D-17,  1.2D-17, r^2= 9.4D-01
   Bfn.  Coefficient  Atom+Function         Bfn.  Coefficient  Atom+Function  
  ----- ------------  ---------------      ----- ------------  ---------------
     7      0.813357  1 H  px                 9     -0.472944  1 H  pz         
     8      0.446897  1 H  py                 4     -0.054778  1 H  px         
     6      0.031852  1 H  pz                 5     -0.030097  1 H  py         
 
 Vector    6  Occ=0.000000D+00  E= 1.252372D+00
              MO Center= -3.2D-16, -4.3D-17, -1.0D-16, r^2= 1.6D+00
   Bfn.  Coefficient  Atom+Function         Bfn.  Coefficient  Atom+Function  
  ----- ------------  ---------------      ----- ------------  ---------------
     2      3.683051  1 H  s                  1     -1.560021  1 H  s          
     3     -1.256116  1 H  s                 10     -0.703400  1 H  dxx        
    13     -0.703400  1 H  dyy               15     -0.703400  1 H  dzz        
 
 Vector    7  Occ=0.000000D+00  E= 2.824504D+00
              MO Center= -5.5D-16,  5.0D-16,  1.5D-16, r^2= 4.6D-01
   Bfn.  Coefficient  Atom+Function         Bfn.  Coefficient  Atom+Function  
  ----- ------------  ---------------      ----- ------------  ---------------
    12      1.077424  1 H  dxz               14     -1.077476  1 H  dyz        
    11      0.473209  1 H  dxy               13      0.386195  1 H  dyy        
    10     -0.234433  1 H  dxx               15     -0.151763  1 H  dzz        
 
 Vector    8  Occ=0.000000D+00  E= 2.824504D+00
              MO Center=  1.3D-15,  6.2D-16, -2.6D-16, r^2= 4.6D-01
   Bfn.  Coefficient  Atom+Function         Bfn.  Coefficient  Atom+Function  
  ----- ------------  ---------------      ----- ------------  ---------------
    12      1.185476  1 H  dxz               11     -0.876831  1 H  dxy        
    14      0.871529  1 H  dyz               10     -0.145973  1 H  dxx        
    15      0.097102  1 H  dzz               13      0.048871  1 H  dyy        
 
 Vector    9  Occ=0.000000D+00  E= 2.824504D+00
              MO Center= -3.2D-16, -1.2D-16, -4.8D-16, r^2= 4.6D-01
   Bfn.  Coefficient  Atom+Function         Bfn.  Coefficient  Atom+Function  
  ----- ------------  ---------------      ----- ------------  ---------------
    11      1.052908  1 H  dxy               14      0.660344  1 H  dyz        
    10     -0.631345  1 H  dxx               15      0.569635  1 H  dzz        
    13      0.061710  1 H  dyy               12      0.039426  1 H  dxz        
 
 Vector   10  Occ=0.000000D+00  E= 2.824504D+00
              MO Center= -6.0D-17, -1.8D-16,  2.9D-16, r^2= 4.6D-01
   Bfn.  Coefficient  Atom+Function         Bfn.  Coefficient  Atom+Function  
  ----- ------------  ---------------      ----- ------------  ---------------
    11      0.901258  1 H  dxy               14      0.741748  1 H  dyz        
    15     -0.646174  1 H  dzz               10      0.574730  1 H  dxx        
    12      0.362802  1 H  dxz               13      0.071444  1 H  dyy        
 
 Vector   11  Occ=0.000000D+00  E= 2.824504D+00
              MO Center= -5.2D-17,  3.7D-16, -1.3D-17, r^2= 4.6D-01
   Bfn.  Coefficient  Atom+Function         Bfn.  Coefficient  Atom+Function  
  ----- ------------  ---------------      ----- ------------  ---------------
    13      0.916271  1 H  dyy               12     -0.548293  1 H  dxz        
    15     -0.474884  1 H  dzz               10     -0.441387  1 H  dxx        
    14      0.305347  1 H  dyz               11     -0.293869  1 H  dxy        
 
 Vector   12  Occ=0.000000D+00  E= 3.199249D+00
              MO Center=  1.9D-16, -9.2D-16,  2.4D-16, r^2= 4.3D-01
   Bfn.  Coefficient  Atom+Function         Bfn.  Coefficient  Atom+Function  
  ----- ------------  ---------------      ----- ------------  ---------------
     6      1.257997  1 H  pz                 9     -0.718609  1 H  pz         
     5      0.142370  1 H  py                 8     -0.081326  1 H  py         
 
 Vector   13  Occ=0.000000D+00  E= 3.199249D+00
              MO Center= -3.8D-16, -2.5D-16,  6.4D-16, r^2= 4.3D-01
   Bfn.  Coefficient  Atom+Function         Bfn.  Coefficient  Atom+Function  
  ----- ------------  ---------------      ----- ------------  ---------------
     5      1.251092  1 H  py                 8     -0.714665  1 H  py         
     6     -0.143431  1 H  pz                 4     -0.131649  1 H  px         
     9      0.081933  1 H  pz                 7      0.075202  1 H  px         
 
 Vector   14  Occ=0.000000D+00  E= 3.199249D+00
              MO Center= -2.6D-16,  7.2D-17,  2.2D-16, r^2= 4.3D-01
   Bfn.  Coefficient  Atom+Function         Bfn.  Coefficient  Atom+Function  
  ----- ------------  ---------------      ----- ------------  ---------------
     4      1.259164  1 H  px                 7     -0.719276  1 H  px         
     5      0.132796  1 H  py                 8     -0.075857  1 H  py         
 
 Vector   15  Occ=0.000000D+00  E= 4.031493D+00
              MO Center= -3.4D-17,  3.4D-17,  3.4D-17, r^2= 6.7D-01
   Bfn.  Coefficient  Atom+Function         Bfn.  Coefficient  Atom+Function  
  ----- ------------  ---------------      ----- ------------  ---------------
     2      2.841080  1 H  s                 10     -1.283406  1 H  dxx        
    13     -1.283406  1 H  dyy               15     -1.283406  1 H  dzz        
     3     -0.656035  1 H  s                  1      0.353254  1 H  s          
 

   alpha - beta orbital overlaps 
   ----------------------------- 


   alpha      1      2      3      4      5      6      7      8      9     10
    beta      1      2      3      4      5      6     10      8     11      7
 overlap   1.000  1.000  0.909  0.839  0.799  1.000  0.713  0.805  0.660  0.707


   alpha     11     12     13     14     15
    beta      7     14     12     14     15
 overlap   0.608  0.636  0.720  0.726  1.000

     --------------------------
     Expectation value of S2:  
     --------------------------
      <S2> =      0.7500 (Exact =     0.7500)
 

 Parallel integral file used       4 records with       0 large values


 Task  times  cpu:        6.1s     wall:        6.2s
 
 
                                NWChem Input Module
                                -------------------
 
 
 Summary of allocated global arrays
-----------------------------------
  No active global arrays



                         GA Statistics for process    0
                         ------------------------------

       create   destroy   get      put      acc     scatter   gather  read&inc
calls:  176      176      524      266      105        0        0        8     
number of processes/call 1.11e+00 1.10e+00 1.46e+00 0.00e+00 0.00e+00
bytes total:             6.08e+05 2.43e+05 1.89e+05 0.00e+00 0.00e+00 6.40e+01
bytes remote:            2.69e+04 1.33e+04 2.11e+04 0.00e+00 0.00e+00 0.00e+00
Max memory consumed for GA by this process: 117000 bytes
 
MA_summarize_allocated_blocks: starting scan ...
MA_summarize_allocated_blocks: scan completed: 0 heap blocks, 0 stack blocks
MA usage statistics:

	allocation statistics:
					      heap	     stack
					      ----	     -----
	current number of blocks	         0	         0
	maximum number of blocks	        21	        51
	current total bytes		         0	         0
	maximum total bytes		   1351032	  22510648
	maximum total K-bytes		      1352	     22511
	maximum total M-bytes		         2	        23
 
 
                                     CITATION
                                     --------
                Please cite the following reference when publishing
                           results obtained with NWChem:
 
                 M. Valiev, E.J. Bylaska, N. Govind, K. Kowalski,
              T.P. Straatsma, H.J.J. van Dam, D. Wang, J. Nieplocha,
                        E. Apra, T.L. Windus, W.A. de Jong
                 "NWChem: a comprehensive and scalable open-source
                  solution for large scale molecular simulations"
                      Comput. Phys. Commun. 181, 1477 (2010)
                           doi:10.1016/j.cpc.2010.04.018
 
                                      AUTHORS
                                      -------
          E. Apra, E. J. Bylaska, W. A. de Jong, N. Govind, K. Kowalski,
       T. P. Straatsma, M. Valiev, H. J. J. van Dam, D. Wang, T. L. Windus,
        J. Hammond, J. Autschbach, K. Bhaskaran-Nair, J. Brabec, K. Lopata,
    S. A. Fischer, S. Krishnamoorthy, M. Jacquelin, W. Ma, M. Klemm, O. Villa,
      Y. Chen, V. Anisimov, F. Aquino, S. Hirata, M. T. Hackler, V. Konjkov,
            D. Mejia-Rodriguez, T. Risthaus, M. Malagoli, A. Marenich,
   A. Otero-de-la-Roza, J. Mullin, P. Nichols, R. Peverati, J. Pittner, Y. Zhao,
        P.-D. Fan, A. Fonari, M. J. Williamson, R. J. Harrison, J. R. Rehr,
      M. Dupuis, D. Silverstein, D. M. A. Smith, J. Nieplocha, V. Tipparaju,
    M. Krishnan, B. E. Van Kuiken, A. Vazquez-Mayagoitia, L. Jensen, M. Swart,
      Q. Wu, T. Van Voorhis, A. A. Auer, M. Nooijen, L. D. Crosby, E. Brown,
      G. Cisneros, G. I. Fann, H. Fruchtl, J. Garza, K. Hirao, R. A. Kendall,
      J. A. Nichols, K. Tsemekhman, K. Wolinski, J. Anchell, D. E. Bernholdt,
      P. Borowski, T. Clark, D. Clerc, H. Dachsel, M. J. O. Deegan, K. Dyall,
    D. Elwood, E. Glendening, M. Gutowski, A. C. Hess, J. Jaffe, B. G. Johnson,
     J. Ju, R. Kobayashi, R. Kutteh, Z. Lin, R. Littlefield, X. Long, B. Meng,
      T. Nakajima, S. Niu, L. Pollack, M. Rosing, K. Glaesemann, G. Sandrone,
      M. Stave, H. Taylor, G. Thomas, J. H. van Lenthe, A. T. Wong, Z. Zhang.

 Total times  cpu:        6.1s     wall:        6.3s
