  NWChem w/ OpenMP: maximum threads =  1
                                         
                                         
 
 
              Northwest Computational Chemistry Package (NWChem) 6.8
              ------------------------------------------------------
 
 
                    Environmental Molecular Sciences Laboratory
                       Pacific Northwest National Laboratory
                                Richland, WA 99352
 
                              Copyright (c) 1994-2017
                       Pacific Northwest National Laboratory
                            Battelle Memorial Institute
 
             NWChem is an open-source computational chemistry package
                        distributed under the terms of the
                      Educational Community License (ECL) 2.0
             A copy of the license is included with this distribution
                              in the LICENSE.TXT file
 
                                  ACKNOWLEDGMENT
                                  --------------

            This software and its documentation were developed at the
            EMSL at Pacific Northwest National Laboratory, a multiprogram
            national laboratory, operated for the U.S. Department of Energy
            by Battelle under Contract Number DE-AC05-76RL01830. Support
            for this work was provided by the Department of Energy Office
            of Biological and Environmental Research, Office of Basic
            Energy Sciences, and the Office of Advanced Scientific Computing.


           Job information
           ---------------

    hostname        = kohn
    program         = nwchem
    date            = Wed Sep 26 21:48:08 2018

    compiled        = Wed_Sep_26_21:04:37_2018
    source          = /home/kohn/softwares/nwchem/nwchem-6.8
    nwchem branch   = 6.8
    nwchem revision = v6.8-47-gdf6c956
    ga revision     = ga-5.6.3
    use scalapack   = F
    input           = nwchem.nw
    prefix          = Mn.
    data base       = ./Mn.db
    status          = startup
    nproc           =        4
    time left       =     -1s



           Memory information
           ------------------

    heap     =   13107198 doubles =    100.0 Mbytes
    stack    =   13107195 doubles =    100.0 Mbytes
    global   =   26214400 doubles =    200.0 Mbytes (distinct from heap & stack)
    total    =   52428793 doubles =    400.0 Mbytes
    verify   = yes
    hardfail = no 


           Directory information
           ---------------------
 
  0 permanent = .
  0 scratch   = .
 
 
 
 
                                NWChem Input Module
                                -------------------
 
 

 Scaling coordinates for geometry "geometry" by  1.889725989
 (inverse scale =  0.529177249)

 
 
                             Geometry "geometry" -> ""
                             -------------------------
 
 Output coordinates in angstroms (scale by  1.889725989 to convert to a.u.)
 
  No.       Tag          Charge          X              Y              Z
 ---- ---------------- ---------- -------------- -------------- --------------
    1 Mn                  25.0000     0.00000000     0.00000000     0.00000000
 
      Atomic Mass 
      ----------- 
 
      Mn                54.938100
 

 Effective nuclear repulsion energy (a.u.)       0.0000000000

            Nuclear Dipole moment (a.u.) 
            ----------------------------
        X                 Y               Z
 ---------------- ---------------- ----------------
     0.0000000000     0.0000000000     0.0000000000
 
 
            XYZ format geometry
            -------------------
     1
 geometry
 Mn                    0.00000000     0.00000000     0.00000000
 


 Summary of "ao basis" -> "" (cartesian)
 ------------------------------------------------------------------------------
       Tag                 Description            Shells   Functions and Types
 ---------------- ------------------------------  ------  ---------------------
 *                         def2-TZVPP                 on all atoms 


 
                                 NWChem DFT Module
                                 -----------------
 
 
                      Basis "ao basis" -> "ao basis" (cartesian)
                      -----
  Mn (Manganese)
  --------------
            Exponent  Coefficients 
       -------------- ---------------------------------------------------------
  1 S  2.77185002E+05  0.000228
  1 S  4.15507699E+04  0.001771
  1 S  9.45597002E+03  0.009208
  1 S  2.67652065E+03  0.037416
  1 S  8.71466875E+02  0.121649
  1 S  3.12983064E+02  0.288244
  1 S  1.21444541E+02  0.410416
  1 S  4.79225988E+01  0.213724
 
  2 S  3.03667232E+02 -0.024590
  2 S  9.38814032E+01 -0.116026
  2 S  1.48794212E+01  0.551121
  2 S  6.28652007E+00  0.537076
 
  3 S  9.48585913E+00 -0.228893
  3 S  1.56987062E+00  0.711962
 
  4 S  6.59032136E-01  1.000000
 
  5 S  1.06862924E-01  1.000000
 
  6 S  3.92674354E-02  1.000000
 
  7 P  1.44479782E+03  0.002399
  7 P  3.42065512E+02  0.019369
  7 P  1.09584009E+02  0.090236
  7 P  4.07479882E+01  0.257455
  7 P  1.61886266E+01  0.412724
  7 P  6.54845060E+00  0.240877
 
  8 P  2.53570864E+01 -0.028707
  8 P  3.48301688E+00  0.552081
  8 P  1.38588009E+00  0.972269
 
  9 P  5.25550949E-01  1.000000
 
 10 P  1.99300000E-01  1.000000
 
 11 P  7.55700000E-02  1.000000
 
 12 D  5.65631891E+01  0.011543
 12 D  1.62787347E+01  0.070300
 12 D  5.69642739E+00  0.224508
 12 D  2.14111479E+00  0.397031
 
 13 D  7.82918019E-01  1.000000
 
 14 D  2.59523112E-01  1.000000
 
 15 D  8.60000000E-02  1.000000
 
 16 F  2.97500000E+00  1.000000
 
 17 F  7.20000000E-01  1.000000
 
 18 G  1.75500000E+00  1.000000
 


 Summary of "ao basis" -> "ao basis" (cartesian)
 ------------------------------------------------------------------------------
       Tag                 Description            Shells   Functions and Types
 ---------------- ------------------------------  ------  ---------------------
 Mn                        def2-TZVPP               18       80   6s5p4d2f1g




 Summary of "ao basis" -> "ao basis" (cartesian)
 ------------------------------------------------------------------------------
       Tag                 Description            Shells   Functions and Types
 ---------------- ------------------------------  ------  ---------------------
 Mn                        def2-TZVPP               18       80   6s5p4d2f1g


  Caching 1-el integrals 
 
            General Information
            -------------------
          SCF calculation type: DFT
          Wavefunction type:  spin polarized.
          No. of atoms     :     1
          No. of electrons :    25
           Alpha electrons :    15
            Beta electrons :    10
          Charge           :     0
          Spin multiplicity:     6
          Use of symmetry is: off; symmetry adaption is: off
          Maximum number of iterations: ***
          AO basis - number of functions:    80
                     number of shells:    18
          Convergence on energy requested:  1.00D-06
          Convergence on density requested:  1.00D-05
          Convergence on gradient requested:  5.00D-04
 
              XC Information
              --------------
                  TPSS metaGGA Exchange Functional  1.000          
             TPSS03 metaGGA Correlation Functional  1.000          
 
             Grid Information
             ----------------
          Grid used for XC integration:  medium    
          Radial quadrature: Mura-Knowles        
          Angular quadrature: Lebedev. 
          Tag              B.-S. Rad. Rad. Pts. Rad. Cut. Ang. Pts.
          ---              ---------- --------- --------- ---------
          Mn                  1.40      112           8.0       590
          Grid pruning is: on 
          Number of quadrature shells:   112
          Spatial weights used:  Erf1
 
          Convergence Information
          -----------------------
          Convergence aids based upon iterative change in 
          total energy or number of iterations. 
          Levelshifting, if invoked, occurs when the 
          HOMO/LUMO gap drops below (HL_TOL):  1.00D-02
          DIIS, if invoked, will attempt to extrapolate 
          using up to (NFOCK): 10 stored Fock matrices.

                    Damping( 0%)  Levelshifting(0.5)       DIIS
                  --------------- ------------------- ---------------
          dE  on:    start            ASAP                start   
          dE off:    2 iters        *** iters           *** iters 

 
      Screening Tolerance Information
      -------------------------------
          Density screening/tol_rho:  1.00D-10
          AO Gaussian exp screening on grid/accAOfunc:  14
          CD Gaussian exp screening on grid/accCDfunc:  20
          XC Gaussian exp screening on grid/accXCfunc:  20
          Schwarz screening/accCoul:  1.00D-08

 
      Superposition of Atomic Density Guess
      -------------------------------------
 
 Sum of atomic energies:       -1149.62703660
 
      Non-variational initial energy
      ------------------------------

 Total energy =   -1148.620315
 1-e energy   =   -1584.516129
 2-e energy   =     435.895815
 HOMO         =      -0.175840
 LUMO         =      -0.175840
 
   Time after variat. SCF:      2.6
   Time prior to 1st pass:      2.6

 Integral file          = ./Mn.aoints.0
 Record size in doubles =    65536    No. of integs per rec  =    43688
 Max. records in memory =       43    Max. records in file   =  1478997
 No. of bits per label  =        8    No. of bits per value  =       64


 #quartets = 1.471D+04 #integrals = 8.311D+05 #direct =  0.0% #cached =100.0%


File balance: exchanges=     0  moved=     0  time=   0.0


 Grid_pts file          = ./Mn.gridpts.0
 Record size in doubles =  12289        No. of grid_pts per rec  =   3070
 Max. records in memory =      7        Max. recs in file   =   7887347


           Memory utilization after 1st SCF pass: 
           Heap Space remaining (MW):       10.20            10196518
          Stack Space remaining (MW):       13.11            13106460

   convergence    iter        energy       DeltaE   RMS-Dens  Diis-err    time
 ---------------- ----- ----------------- --------- --------- ---------  ------
 d= 0,ls=0.0,diis     1  -1150.9061600487 -1.15D+03  1.51D-02  7.40D-01     5.2
                                                     1.55D-02  2.14D-01
 d= 0,ls=0.5,diis     2  -1150.4074710442  4.99D-01  6.54D-03  3.40D+00     7.4
                                                     3.34D-03  1.73D+00
 d= 0,ls=0.5,diis     3  -1150.8049527090 -3.97D-01  4.71D-03  7.40D-01    15.1
                                                     1.45D-03  3.20D-01
 d= 0,ls=0.5,diis     4  -1150.9379527150 -1.33D-01  2.67D-03  9.78D-02    20.8
                                                     7.42D-04  3.46D-02
 d= 0,ls=0.5,diis     5  -1150.9629411129 -2.50D-02  1.33D-03  1.14D-02    25.1
                                                     3.72D-04  3.14D-03
  Resetting Diis
 d= 0,ls=0.5,diis     6  -1150.9668196329 -3.88D-03  9.66D-04  3.52D-03    31.7
                                                     2.13D-04  1.08D-03
 d= 0,ls=0.5,diis     7  -1150.9679269039 -1.11D-03  8.99D-04  1.57D-03    35.1
                                                     2.89D-04  5.69D-04
 d= 0,ls=0.5,diis     8  -1150.9681734010 -2.46D-04  5.06D-04  3.21D-03    39.7
                                                     1.68D-04  1.78D-03
 d= 0,ls=0.5,diis     9  -1150.9684794582 -3.06D-04  3.82D-04  9.86D-04    45.1
                                                     7.38D-05  4.54D-04
 d= 0,ls=0.5,diis    10  -1150.9686328821 -1.53D-04  3.09D-04  1.68D-04    51.7
                                                     5.43D-05  7.02D-05
 d= 0,ls=0.5,diis    11  -1150.9686748475 -4.20D-05  2.03D-04  2.47D-05    56.6
                                                     5.30D-05  1.33D-05
 d= 0,ls=0.5,diis    12  -1150.9686926594 -1.78D-05  1.21D-04  5.51D-06    60.3
                                                     5.73D-05  7.86D-06
 d= 0,ls=0.5,diis    13  -1150.9687082983 -1.56D-05  7.79D-05  1.86D-06    64.7
                                                     6.24D-05  8.02D-06
 d= 0,ls=0.5,diis    14  -1150.9687248243 -1.65D-05  5.16D-05  2.11D-06    71.1
                                                     6.83D-05  9.54D-06
 d= 0,ls=0.5,diis    15  -1150.9687438177 -1.90D-05  4.59D-05  3.16D-06    81.6
                                                     7.20D-05  1.16D-05
 d= 0,ls=0.5,diis    16  -1150.9687629495 -1.91D-05  2.94D-05  9.04D-06    89.6
                                                     7.59D-05  1.47D-05
 d= 0,ls=0.5,diis    17  -1150.9687847644 -2.18D-05  1.74D-05  1.49D-05    98.0
                                                     8.11D-05  1.80D-05
 d= 0,ls=0.5,diis    18  -1150.9688104334 -2.57D-05  1.71D-05  2.01D-05   104.2
                                                     8.28D-05  2.15D-05
 d= 0,ls=0.5,diis    19  -1150.9688404073 -3.00D-05  1.11D-05  2.60D-05   110.9
                                                     8.85D-05  2.60D-05
 d= 0,ls=0.5,diis    20  -1150.9688748071 -3.44D-05  8.23D-06  3.60D-05   117.3
                                                     9.67D-05  3.22D-05
 d= 0,ls=0.5,diis    21  -1150.9689153287 -4.05D-05  7.63D-06  4.72D-05   124.3
                                                     1.04D-04  3.93D-05
 d= 0,ls=0.5,diis    22  -1150.9689624391 -4.71D-05  5.25D-06  6.08D-05   128.1
                                                     1.13D-04  4.79D-05
 d= 0,ls=0.5,diis    23  -1150.9690176144 -5.52D-05  4.48D-06  7.65D-05   135.3
                                                     1.24D-04  5.77D-05
 d= 0,ls=0.5,diis    24  -1150.9690821541 -6.45D-05  1.06D-05  9.59D-05   141.1
                                                     1.35D-04  6.94D-05
 d= 0,ls=0.5,diis    25  -1150.9691614267 -7.93D-05  1.06D-05  1.16D-04   146.7
                                                     1.45D-04  8.41D-05
 d= 0,ls=0.5,diis    26  -1150.9692472119 -8.58D-05  8.45D-06  1.60D-04   151.7
                                                     1.46D-04  1.06D-04
 d= 0,ls=0.5,diis    27  -1150.9693462603 -9.90D-05  3.81D-06  2.10D-04   158.3
                                                     1.66D-04  1.30D-04
 d= 0,ls=0.5,diis    28  -1150.9694663293 -1.20D-04  5.63D-06  2.49D-04   164.5
                                                     1.75D-04  1.51D-04
 d= 0,ls=0.5,diis    29  -1150.9696057708 -1.39D-04  1.98D-06  2.94D-04   171.0
                                                     1.90D-04  1.76D-04
 d= 0,ls=0.5,diis    30  -1150.9697642056 -1.58D-04  6.79D-06  3.71D-04   175.0
                                                     2.09D-04  2.12D-04
 d= 0,ls=0.5,diis    31  -1150.9699519901 -1.88D-04  1.01D-05  4.48D-04   181.1
                                                     2.38D-04  2.49D-04
 d= 0,ls=0.5,diis    32  -1150.9701714532 -2.19D-04  1.11D-05  5.37D-04   186.2
                                                     2.50D-04  2.91D-04
 d= 0,ls=0.5,diis    33  -1150.9704242208 -2.53D-04  9.59D-06  6.55D-04   190.0
                                                     2.89D-04  3.43D-04
 d= 0,ls=0.5,diis    34  -1150.9706976207 -2.73D-04  1.68D-05  8.97D-04   195.9
                                                     2.95D-04  4.39D-04
 d= 0,ls=0.5,diis    35  -1150.9709909081 -2.93D-04  1.21D-05  1.28D-03   200.0
                                                     3.20D-04  5.80D-04
 d= 0,ls=0.5,diis    36  -1150.9713167598 -3.26D-04  9.18D-06  1.76D-03   210.1
                                                     3.28D-04  7.50D-04
 d= 0,ls=0.5,diis    37  -1150.9716768825 -3.60D-04  1.57D-05  2.36D-03   218.0
                                                     3.42D-04  9.56D-04
 d= 0,ls=0.5,diis    38  -1150.9720455621 -3.69D-04  2.53D-05  3.23D-03   225.1
                                                     3.63D-04  1.25D-03
 d= 0,ls=0.5,diis    39  -1150.9724027314 -3.57D-04  4.68D-05  4.46D-03   227.4
                                                     3.45D-04  1.66D-03
 d= 0,ls=0.5,diis    40  -1150.9726863644 -2.84D-04  7.82D-05  6.43D-03   235.2
                                                     4.24D-04  2.31D-03
 d= 0,ls=0.5,diis    41  -1150.9728060324 -1.20D-04  5.25D-05  9.52D-03   240.3
                                                     4.74D-04  3.35D-03
 d= 0,ls=0.5,diis    42  -1150.9729686788 -1.63D-04  5.80D-05  1.26D-02   246.0
                                                     5.10D-04  4.37D-03
 d= 0,ls=0.5,diis    43  -1150.9731010004 -1.32D-04  2.81D-05  1.66D-02   252.0
                                                     5.18D-04  5.71D-03
 d= 0,ls=0.5,diis    44  -1150.9732654619 -1.64D-04  1.73D-05  2.08D-02   257.5
                                                     5.75D-04  7.08D-03
 d= 0,ls=0.5,diis    45  -1150.9733920842 -1.27D-04  1.52D-05  2.56D-02   264.1
                                                     5.10D-04  8.67D-03
 d= 0,ls=0.5,diis    46  -1150.9734582662 -6.62D-05  1.65D-05  3.11D-02   271.2
                                                     6.50D-04  1.05D-02
 d= 0,ls=0.5,diis    47  -1150.9733218299  1.36D-04  2.76D-05  3.80D-02   277.4
                                                     5.09D-04  1.28D-02
 d= 0,ls=0.5,diis    48  -1150.9731490078  1.73D-04  3.41D-04  4.52D-02   281.6
                                                     5.90D-04  1.51D-02
 d= 0,ls=0.5,diis    49  -1150.9753326468 -2.18D-03  2.24D-04  4.01D-02   287.9
                                                     7.63D-04  1.31D-02
 d= 0,ls=0.5,diis    50  -1150.9762102992 -8.78D-04  1.70D-04  4.29D-02   293.7
                                                     7.49D-04  1.40D-02
 d= 0,ls=0.5,diis    51  -1150.9766567078 -4.46D-04  2.81D-04  4.80D-02   299.4
                                                     6.56D-04  1.56D-02
 d= 0,ls=0.5,diis    52  -1150.9782836077 -1.63D-03  3.25D-04  4.59D-02   305.2
                                                     5.98D-04  1.47D-02
 d= 0,ls=0.5,diis    53  -1150.9801147023 -1.83D-03  4.20D-04  4.28D-02   309.6
                                                     7.67D-04  1.35D-02
 d= 0,ls=0.5,diis    54  -1150.9825879743 -2.47D-03  8.62D-04  3.55D-02   313.5
                                                     5.35D-04  1.09D-02
 d= 0,ls=0.5,diis    55  -1150.9876611070 -5.07D-03  1.07D-03  1.37D-02   319.9
                                                     4.78D-04  3.78D-03
 d= 0,ls=0.5,diis    56  -1150.9911614367 -3.50D-03  1.09D-03  1.11D-03   326.7
                                                     5.70D-04  3.22D-04
 d= 0,ls=0.5,diis    57  -1150.9916743847 -5.13D-04  4.33D-04  3.91D-03   331.6
                                                     3.52D-04  2.19D-03
 d= 0,ls=0.5,diis    58  -1150.9922275745 -5.53D-04  3.12D-04  3.29D-03   335.6
                                                     3.54D-04  1.85D-03
 d= 0,ls=0.5,diis    59  -1150.9926932902 -4.66D-04  2.70D-04  3.33D-03   342.6
                                                     3.30D-04  1.82D-03
 d= 0,ls=0.5,diis    60  -1150.9930236708 -3.30D-04  1.92D-04  3.94D-03   347.2
                                                     2.85D-04  2.00D-03
 d= 0,ls=0.5,diis    61  -1150.9934100422 -3.86D-04  1.64D-04  3.87D-03   351.6
                                                     2.73D-04  1.93D-03
 d= 0,ls=0.5,diis    62  -1150.9937154537 -3.05D-04  2.61D-04  3.99D-03   357.5
                                                     3.79D-04  1.93D-03
 d= 0,ls=0.5,diis    63  -1150.9935653585  1.50D-04  1.02D-04  6.60D-03   364.5
                                                     2.44D-04  2.91D-03
 d= 0,ls=0.5,diis    64  -1150.9942351067 -6.70D-04  6.92D-05  4.20D-03   370.5
                                                     2.60D-04  1.91D-03
 d= 0,ls=0.5,diis    65  -1150.9945961092 -3.61D-04  1.20D-04  3.61D-03   377.0
                                                     3.60D-04  1.66D-03
 d= 0,ls=0.5,diis    66  -1150.9947537826 -1.58D-04  5.29D-05  4.08D-03   385.0
                                                     2.04D-04  1.82D-03
 d= 0,ls=0.5,diis    67  -1150.9952234065 -4.70D-04  2.28D-04  2.52D-03   394.1
                                                     4.76D-04  1.17D-03
 d= 0,ls=0.5,diis    68  -1150.9950329255  1.90D-04  1.20D-04  4.81D-03   398.9
                                                     2.79D-04  2.05D-03
 d= 0,ls=0.5,diis    69  -1150.9951264836 -9.36D-05  6.84D-05  5.14D-03   403.3
                                                     1.93D-04  2.12D-03
 d= 0,ls=0.5,diis    70  -1150.9953327182 -2.06D-04  4.66D-05  4.72D-03   412.5
                                                     1.71D-04  1.92D-03
 d= 0,ls=0.5,diis    71  -1150.9955535153 -2.21D-04  3.66D-05  4.19D-03   418.9
                                                     1.72D-04  1.70D-03
 d= 0,ls=0.5,diis    72  -1150.9957712488 -2.18D-04  2.14D-05  3.66D-03   429.1
                                                     1.63D-04  1.48D-03
 d= 0,ls=0.5,diis    73  -1150.9960103396 -2.39D-04  1.05D-04  2.97D-03   434.4
                                                     2.03D-04  1.21D-03
 d= 0,ls=0.5,diis    74  -1150.9960015302  8.81D-06  5.01D-05  3.68D-03   438.1
                                                     1.76D-04  1.49D-03
 d= 0,ls=0.5,diis    75  -1150.9961292639 -1.28D-04  2.91D-05  3.47D-03   443.7
                                                     1.60D-04  1.39D-03
 d= 0,ls=0.5,diis    76  -1150.9962895313 -1.60D-04  2.52D-05  3.05D-03   450.9
                                                     1.54D-04  1.21D-03
 d= 0,ls=0.5,diis    77  -1150.9964312656 -1.42D-04  2.93D-05  2.71D-03   455.3
                                                     1.46D-04  1.08D-03
 d= 0,ls=0.5,diis    78  -1150.9965492370 -1.18D-04  2.15D-05  2.47D-03   459.1
                                                     1.52D-04  9.86D-04
 d= 0,ls=0.5,diis    79  -1150.9966672819 -1.18D-04  2.94D-05  2.20D-03   463.1
                                                     1.39D-04  8.73D-04
 d= 0,ls=0.5,diis    80  -1150.9967561122 -8.88D-05  1.92D-05  2.06D-03   467.8
                                                     1.35D-04  8.13D-04
 d= 0,ls=0.5,diis    81  -1150.9968543618 -9.82D-05  2.62D-05  1.82D-03   473.8
                                                     1.31D-04  7.19D-04
 d= 0,ls=0.5,diis    82  -1150.9969275939 -7.32D-05  3.80D-05  1.71D-03   478.7
                                                     1.33D-04  6.72D-04
 d= 0,ls=0.5,diis    83  -1150.9969741776 -4.66D-05  1.72D-05  1.72D-03   487.8
                                                     1.23D-04  6.71D-04
 d= 0,ls=0.5,diis    84  -1150.9970527338 -7.86D-05  4.69D-05  1.51D-03   491.9
                                                     1.30D-04  5.87D-04
 d= 0,ls=0.5,diis    85  -1150.9970687837 -1.60D-05  2.76D-05  1.64D-03   497.5
                                                     1.30D-04  6.31D-04
 d= 0,ls=0.5,diis    86  -1150.9971185561 -4.98D-05  1.78D-05  1.55D-03   503.1
                                                     1.13D-04  5.86D-04
 d= 0,ls=0.5,diis    87  -1150.9971734475 -5.49D-05  1.33D-05  1.42D-03   511.6
                                                     9.50D-05  5.32D-04
 d= 0,ls=0.5,diis    88  -1150.9972535507 -8.01D-05  4.15D-05  1.13D-03   515.6
                                                     1.08D-04  4.22D-04
 d= 0,ls=0.5,diis    89  -1150.9972622175 -8.67D-06  1.11D-05  1.25D-03   521.1
                                                     9.57D-05  4.68D-04
 d= 0,ls=0.5,diis    90  -1150.9973172910 -5.51D-05  5.17D-05  1.07D-03   526.3
                                                     1.22D-04  4.01D-04
 d= 0,ls=0.5,diis    91  -1150.9973061492  1.11D-05  1.96D-05  1.28D-03   531.9
                                                     1.00D-04  4.78D-04
 d= 0,ls=0.5,diis    92  -1150.9973425923 -3.64D-05  1.48D-05  1.19D-03   538.1
                                                     9.27D-05  4.38D-04
 d= 0,ls=0.5,diis    93  -1150.9973777033 -3.51D-05  1.73D-05  1.10D-03   549.9
                                                     9.01D-05  4.04D-04
 d= 0,ls=0.5,diis    94  -1150.9974050389 -2.73D-05  1.23D-05  1.06D-03   554.1
                                                     8.65D-05  3.86D-04
 d= 0,ls=0.5,diis    95  -1150.9974366674 -3.16D-05  2.04D-05  9.74D-04   560.6
                                                     8.96D-05  3.55D-04
 d= 0,ls=0.5,diis    96  -1150.9974534024 -1.67D-05  2.24D-05  9.71D-04   566.5
                                                     8.57D-05  3.54D-04
 d= 0,ls=0.5,diis    97  -1150.9974688920 -1.55D-05  6.97D-05  9.66D-04   576.0
                                                     1.24D-04  3.52D-04
 d= 0,ls=0.5,diis    98  -1150.9974176436  5.12D-05  3.65D-05  1.34D-03   583.0
                                                     8.18D-05  4.89D-04
 d= 0,ls=0.5,diis    99  -1150.9975004046 -8.28D-05  2.86D-05  9.20D-04   587.6
                                                     6.93D-05  3.32D-04
 d= 0,ls=0.5,diis   100  -1150.9975609344 -6.05D-05  3.93D-05  6.58D-04   599.2
                                                     7.57D-05  2.36D-04
 d= 0,ls=0.5,diis   101  -1150.9976211526 -6.02D-05  1.95D-05  3.92D-04   604.7
                                                     6.20D-05  1.43D-04
 d= 0,ls=0.5,diis   102  -1150.9976526134 -3.15D-05  9.23D-06  2.82D-04   611.3
                                                     5.78D-05  1.05D-04
 d= 0,ls=0.5,diis   103  -1150.9976719175 -1.93D-05  5.00D-06  2.26D-04   620.2
                                                     5.55D-05  8.52D-05
 d= 0,ls=0.5,diis   104  -1150.9976850260 -1.31D-05  3.39D-06  1.94D-04   625.1
                                                     5.07D-05  7.36D-05
 d= 0,ls=0.5,diis   105  -1150.9976974069 -1.24D-05  1.27D-05  1.61D-04   631.3
                                                     5.56D-05  6.13D-05
 d= 0,ls=0.5,diis   106  -1150.9977020166 -4.61D-06  2.39D-06  1.69D-04   637.8
                                                     4.72D-05  6.43D-05
 d= 0,ls=0.5,diis   107  -1150.9977125057 -1.05D-05  1.28D-05  1.39D-04   645.1
                                                     4.15D-05  5.26D-05
 d= 0,ls=0.5,diis   108  -1150.9977261530 -1.36D-05  6.30D-06  8.83D-05   649.2
                                                     3.86D-05  3.38D-05
 d= 0,ls=0.5,diis   109  -1150.9977350385 -8.89D-06  2.19D-06  6.34D-05   655.4
                                                     3.76D-05  2.49D-05
 d= 0,ls=0.5,diis   110  -1150.9977411676 -6.13D-06  4.85D-06  5.11D-05   661.1
                                                     3.37D-05  2.05D-05
 d= 0,ls=0.5,diis   111  -1150.9977475132 -6.35D-06  4.44D-06  3.46D-05   672.8
                                                     3.12D-05  1.43D-05
 d= 0,ls=0.5,diis   112  -1150.9977526968 -5.18D-06  4.12D-06  2.27D-05   677.6
                                                     3.24D-05  9.93D-06
 d= 0,ls=0.5,diis   113  -1150.9977559142 -3.22D-06  7.41D-06  2.07D-05   684.5
                                                     3.34D-05  9.21D-06
 d= 0,ls=0.5,diis   114  -1150.9977583049 -2.39D-06  1.25D-05  2.22D-05   690.4
                                                     3.68D-05  9.71D-06
 d= 0,ls=0.5,diis   115  -1150.9977596619 -1.36D-06  2.40D-05  2.91D-05   697.3
                                                     4.66D-05  1.23D-05
 d= 0,ls=0.5,diis   116  -1150.9977580818  1.58D-06  1.81D-05  5.31D-05   703.3
                                                     4.26D-05  2.12D-05
 d= 0,ls=0.5,diis   117  -1150.9977576831  3.99D-07  2.21D-05  6.87D-05   711.5
                                                     4.56D-05  2.65D-05
 d= 0,ls=0.5,diis   118  -1150.9977553478  2.34D-06  1.04D-05  9.54D-05   717.1
                                                     3.67D-05  3.60D-05
 d= 0,ls=0.5,diis   119  -1150.9977577708 -2.42D-06  1.01D-05  9.34D-05   721.3
                                                     3.59D-05  3.46D-05
 d= 0,ls=0.5,diis   120  -1150.9977594877 -1.72D-06  1.44D-05  9.61D-05   725.2
                                                     3.81D-05  3.54D-05
 d= 0,ls=0.5,diis   121  -1150.9977591961  2.92D-07  2.89D-05  1.10D-04   731.3
                                                     3.94D-05  4.06D-05
 d= 0,ls=0.5,diis   122  -1150.9977731652 -1.40D-05  9.13D-06  4.26D-05   740.5
                                                     2.59D-05  1.57D-05
 d= 0,ls=0.5,diis   123  -1150.9977779987 -4.83D-06  5.99D-06  2.76D-05   747.9
                                                     2.46D-05  1.06D-05
 d= 0,ls=0.5,diis   124  -1150.9977814133 -3.41D-06  2.54D-05  1.88D-05   753.8
                                                     4.38D-05  7.63D-06
 d= 0,ls=0.5,diis   125  -1150.9977786929  2.72D-06  1.01D-05  4.46D-05   758.4
                                                     3.28D-05  1.74D-05
 d= 0,ls=0.5,diis   126  -1150.9977794398 -7.47D-07  1.34D-05  4.82D-05   762.4
                                                     3.53D-05  1.84D-05
 d= 0,ls=0.5,diis   127  -1150.9977788537  5.86D-07  4.81D-06  5.96D-05   768.3
                                                     2.66D-05  2.24D-05
 d= 0,ls=0.5,diis   128  -1150.9977824876 -3.63D-06  2.95D-06  4.63D-05   774.4
                                                     2.45D-05  1.73D-05
 d= 0,ls=0.5,diis   129  -1150.9977855703 -3.08D-06  1.91D-05  3.67D-05   779.3
                                                     3.65D-05  1.38D-05
 d= 0,ls=0.5,diis   130  -1150.9977831780  2.39D-06  7.97D-06  5.82D-05   784.9
                                                     2.98D-05  2.19D-05
 d= 0,ls=0.5,diis   131  -1150.9977840967 -9.19D-07  1.56D-05  5.92D-05   790.3
                                                     3.44D-05  2.19D-05
 d= 0,ls=0.5,diis   132  -1150.9977823577  1.74D-06  4.86D-06  7.57D-05   800.1
                                                     2.84D-05  2.80D-05
 d= 0,ls=0.5,diis   133  -1150.9977848703 -2.51D-06  3.09D-06  6.73D-05   809.8
                                                     2.65D-05  2.46D-05
 d= 0,ls=0.5,diis   134  -1150.9977874641 -2.59D-06  2.92D-06  5.93D-05   818.9
                                                     2.43D-05  2.16D-05
 d= 0,ls=0.5,diis   135  -1150.9977905799 -3.12D-06  9.06D-06  4.82D-05   824.8
                                                     2.82D-05  1.76D-05
 d= 0,ls=0.5,diis   136  -1150.9977903067  2.73D-07  5.22D-06  5.57D-05   832.5
                                                     2.61D-05  2.04D-05
 d= 0,ls=0.5,diis   137  -1150.9977912470 -9.40D-07  2.54D-06  5.54D-05   839.7
                                                     2.38D-05  2.01D-05
 d= 0,ls=0.5,diis   138  -1150.9977929629 -1.72D-06  5.89D-06  5.06D-05   846.2
                                                     2.58D-05  1.83D-05
 d= 0,ls=0.5,diis   139  -1150.9977937209 -7.58D-07  3.37D-06  5.10D-05   852.9
                                                     2.20D-05  1.85D-05
 d= 0,ls=0.5,diis   140  -1150.9977964001 -2.68D-06  3.44D-06  4.04D-05   867.2
                                                     2.24D-05  1.46D-05
 d= 0,ls=0.5,diis   141  -1150.9977972865 -8.86D-07  1.52D-06  3.99D-05   872.9
                                                     2.09D-05  1.45D-05
 d= 0,ls=0.5,diis   142  -1150.9977987139 -1.43D-06  7.27D-06  3.58D-05   877.7
                                                     2.34D-05  1.30D-05
 d= 0,ls=0.5,diis   143  -1150.9977985505  1.63D-07  1.14D-05  4.04D-05   885.2
                                                     2.73D-05  1.47D-05
 d= 0,ls=0.5,diis   144  -1150.9977972034  1.35D-06  5.59D-06  5.09D-05   890.8
                                                     2.02D-05  1.85D-05
 d= 0,ls=0.5,diis   145  -1150.9977999871 -2.78D-06  2.31D-06  3.80D-05   895.0
                                                     1.85D-05  1.36D-05
 d= 0,ls=0.5,diis   146  -1150.9978017421 -1.75D-06  2.34D-06  3.15D-05   902.2
                                                     1.74D-05  1.13D-05
 d= 0,ls=0.5,diis   147  -1150.9978033581 -1.62D-06  1.49D-06  2.56D-05   908.5
                                                     1.71D-05  9.23D-06
 d= 0,ls=0.5,diis   148  -1150.9978043487 -9.91D-07  9.78D-07  2.28D-05   913.7
                                                     1.64D-05  8.28D-06
 d= 0,ls=0.5,diis   149  -1150.9978052283 -8.80D-07  1.35D-06  2.03D-05   919.6
                                                     1.52D-05  7.39D-06
 d= 0,ls=0.5,diis   150  -1150.9978062071 -9.79D-07  9.81D-07  1.70D-05   925.5
                                                     1.44D-05  6.18D-06
 d= 0,ls=0.5,diis   151  -1150.9978069896 -7.83D-07  1.14D-06  1.46D-05   930.6
                                                     1.42D-05  5.32D-06
 d= 0,ls=0.5,diis   152  -1150.9978075119 -5.22D-07  9.87D-07  1.34D-05   936.7
                                                     1.29D-05  4.92D-06
 d= 0,ls=0.5,diis   153  -1150.9978082177 -7.06D-07  1.60D-06  1.11D-05   940.7
                                                     1.18D-05  4.06D-06
 d= 0,ls=0.5,diis   154  -1150.9978089195 -7.02D-07  9.17D-07  8.71D-06   950.8
                                                     1.12D-05  3.19D-06
 d= 0,ls=0.5,diis   155  -1150.9978094500 -5.31D-07  2.36D-06  7.15D-06   958.3
                                                     9.87D-06  2.64D-06


         Total DFT energy =    -1150.997810048877
      One electron energy =    -1585.001690174427
           Coulomb energy =      486.062582535394
          Exchange energy =      -51.010587081140
       Correlation energy =       -1.048115328704
 Nuclear repulsion energy =        0.000000000000

 Numeric. integr. density =       25.000000020013

     Total iterative time =    957.5s


 
                    DFT Final Alpha Molecular Orbital Analysis
                    ------------------------------------------
 
 Vector    1  Occ=1.000000D+00  E=-2.347171D+02
              MO Center= -5.3D-11, -2.9D-10,  9.4D-11, r^2= 1.4D-03
   Bfn.  Coefficient  Atom+Function         Bfn.  Coefficient  Atom+Function  
  ----- ------------  ---------------      ----- ------------  ---------------
     1      0.997292  1 Mn s                  4      0.030614  1 Mn s          
 
 Vector    2  Occ=1.000000D+00  E=-2.702206D+01
              MO Center= -7.6D-08, -4.2D-07,  1.4D-07, r^2= 2.6D-02
   Bfn.  Coefficient  Atom+Function         Bfn.  Coefficient  Atom+Function  
  ----- ------------  ---------------      ----- ------------  ---------------
     2      1.026110  1 Mn s                  1     -0.311756  1 Mn s          
 
 Vector    3  Occ=1.000000D+00  E=-2.310700D+01
              MO Center= -4.4D-09, -2.3D-08, -1.3D-07, r^2= 2.1D-02
   Bfn.  Coefficient  Atom+Function         Bfn.  Coefficient  Atom+Function  
  ----- ------------  ---------------      ----- ------------  ---------------
     9      0.988938  1 Mn pz                15     -0.044604  1 Mn pz         
    12      0.036586  1 Mn pz         
 
 Vector    4  Occ=1.000000D+00  E=-2.310693D+01
              MO Center=  6.7D-08, -2.3D-08,  8.0D-09, r^2= 2.1D-02
   Bfn.  Coefficient  Atom+Function         Bfn.  Coefficient  Atom+Function  
  ----- ------------  ---------------      ----- ------------  ---------------
     7      0.988940  1 Mn px                13     -0.044596  1 Mn px         
    10      0.036575  1 Mn px         
 
 Vector    5  Occ=1.000000D+00  E=-2.310675D+01
              MO Center= -3.8D-09,  3.9D-07,  7.1D-09, r^2= 2.1D-02
   Bfn.  Coefficient  Atom+Function         Bfn.  Coefficient  Atom+Function  
  ----- ------------  ---------------      ----- ------------  ---------------
     8      0.988890  1 Mn py                14     -0.044783  1 Mn py         
    11      0.036791  1 Mn py         
 
 Vector    6  Occ=1.000000D+00  E=-3.181367D+00
              MO Center= -9.4D-07, -4.6D-06,  1.0D-06, r^2= 2.4D-01
   Bfn.  Coefficient  Atom+Function         Bfn.  Coefficient  Atom+Function  
  ----- ------------  ---------------      ----- ------------  ---------------
     3      0.589791  1 Mn s                  2     -0.464825  1 Mn s          
     4      0.448041  1 Mn s                  1      0.117058  1 Mn s          
    25      0.030740  1 Mn dyy               22      0.030364  1 Mn dxx        
    27      0.030419  1 Mn dzz                5     -0.029257  1 Mn s          
 
 Vector    7  Occ=1.000000D+00  E=-2.064636D+00
              MO Center= -4.1D-07, -2.5D-06, -4.2D-07, r^2= 2.7D-01
   Bfn.  Coefficient  Atom+Function         Bfn.  Coefficient  Atom+Function  
  ----- ------------  ---------------      ----- ------------  ---------------
    12      0.888215  1 Mn pz                 9     -0.377672  1 Mn pz         
    15      0.234746  1 Mn pz         
 
 Vector    8  Occ=1.000000D+00  E=-2.064510D+00
              MO Center=  3.0D-07, -2.5D-06,  4.2D-07, r^2= 2.7D-01
   Bfn.  Coefficient  Atom+Function         Bfn.  Coefficient  Atom+Function  
  ----- ------------  ---------------      ----- ------------  ---------------
    10      0.888165  1 Mn px                 7     -0.377658  1 Mn px         
    13      0.234840  1 Mn px         
 
 Vector    9  Occ=1.000000D+00  E=-2.062050D+00
              MO Center= -3.8D-07,  2.2D-07,  3.9D-07, r^2= 2.7D-01
   Bfn.  Coefficient  Atom+Function         Bfn.  Coefficient  Atom+Function  
  ----- ------------  ---------------      ----- ------------  ---------------
    11      0.890576  1 Mn py                 8     -0.378266  1 Mn py         
    14      0.230173  1 Mn py         
 
 Vector   10  Occ=1.000000D+00  E=-3.035857D-01
              MO Center= -6.9D-06, -3.4D-06,  7.3D-06, r^2= 5.3D-01
   Bfn.  Coefficient  Atom+Function         Bfn.  Coefficient  Atom+Function  
  ----- ------------  ---------------      ----- ------------  ---------------
    24      1.034541  1 Mn dxz               30      0.704484  1 Mn dxz        
    36      0.424524  1 Mn dxz               42      0.085628  1 Mn dxz        
 
 Vector   11  Occ=1.000000D+00  E=-3.035856D-01
              MO Center= -6.8D-06, -3.4D-06,  7.4D-06, r^2= 5.3D-01
   Bfn.  Coefficient  Atom+Function         Bfn.  Coefficient  Atom+Function  
  ----- ------------  ---------------      ----- ------------  ---------------
    27     -0.519266  1 Mn dzz               22      0.515253  1 Mn dxx        
    33     -0.353535  1 Mn dzz               28      0.350934  1 Mn dxx        
    39     -0.212977  1 Mn dzz               34      0.211537  1 Mn dxx        
    45     -0.042952  1 Mn dzz               40      0.042674  1 Mn dxx        
 
 Vector   12  Occ=1.000000D+00  E=-3.009309D-01
              MO Center= -5.0D-07, -5.4D-05,  8.0D-06, r^2= 5.3D-01
   Bfn.  Coefficient  Atom+Function         Bfn.  Coefficient  Atom+Function  
  ----- ------------  ---------------      ----- ------------  ---------------
    26      1.038974  1 Mn dyz               32      0.703390  1 Mn dyz        
    38      0.420068  1 Mn dyz               44      0.084655  1 Mn dyz        
 
 Vector   13  Occ=1.000000D+00  E=-3.009237D-01
              MO Center= -7.4D-06, -5.3D-05,  4.8D-07, r^2= 5.3D-01
   Bfn.  Coefficient  Atom+Function         Bfn.  Coefficient  Atom+Function  
  ----- ------------  ---------------      ----- ------------  ---------------
    23      1.038871  1 Mn dxy               29      0.703410  1 Mn dxy        
    35      0.420179  1 Mn dxy               41      0.084688  1 Mn dxy        
 
 Vector   14  Occ=1.000000D+00  E=-2.983583D-01
              MO Center= -3.7D-06, -6.2D-05,  3.8D-06, r^2= 5.3D-01
   Bfn.  Coefficient  Atom+Function         Bfn.  Coefficient  Atom+Function  
  ----- ------------  ---------------      ----- ------------  ---------------
    25      0.599980  1 Mn dyy               31      0.401747  1 Mn dyy        
    22     -0.302892  1 Mn dxx               27     -0.296141  1 Mn dzz        
    37      0.236410  1 Mn dyy               28     -0.208823  1 Mn dxx        
    33     -0.204165  1 Mn dzz               34     -0.128290  1 Mn dxx        
    39     -0.125406  1 Mn dzz               43      0.047977  1 Mn dyy        
 
 Vector   15  Occ=1.000000D+00  E=-1.986160D-01
              MO Center= -1.7D-04, -1.2D-03,  1.8D-04, r^2= 3.0D+00
   Bfn.  Coefficient  Atom+Function         Bfn.  Coefficient  Atom+Function  
  ----- ------------  ---------------      ----- ------------  ---------------
     5      0.633438  1 Mn s                  4     -0.320353  1 Mn s          
     6      0.319353  1 Mn s                  3     -0.190846  1 Mn s          
     2      0.123161  1 Mn s                 37      0.058997  1 Mn dyy        
    31      0.055792  1 Mn dyy               34      0.053085  1 Mn dxx        
    39      0.053233  1 Mn dzz                1     -0.031127  1 Mn s          
 
 Vector   16  Occ=0.000000D+00  E=-4.923942D-02
              MO Center=  1.4D-04, -3.8D-04,  5.3D-05, r^2= 4.2D+00
   Bfn.  Coefficient  Atom+Function         Bfn.  Coefficient  Atom+Function  
  ----- ------------  ---------------      ----- ------------  ---------------
    19      0.895268  1 Mn px                10     -0.226867  1 Mn px         
    16      0.146198  1 Mn px                 7      0.080873  1 Mn px         
    13     -0.075986  1 Mn px                56      0.034440  1 Mn fxxx       
    61      0.034379  1 Mn fxzz              59      0.030524  1 Mn fxyy       
 
 Vector   17  Occ=0.000000D+00  E=-4.914702D-02
              MO Center= -4.3D-05, -3.8D-04, -1.5D-04, r^2= 4.2D+00
   Bfn.  Coefficient  Atom+Function         Bfn.  Coefficient  Atom+Function  
  ----- ------------  ---------------      ----- ------------  ---------------
    21      0.895441  1 Mn pz                12     -0.226823  1 Mn pz         
    18      0.145942  1 Mn pz                 9      0.080855  1 Mn pz         
    15     -0.075925  1 Mn pz                58      0.034481  1 Mn fxxz       
    65      0.034420  1 Mn fzzz              63      0.030559  1 Mn fyyz       
 
 Vector   18  Occ=0.000000D+00  E=-4.256929D-02
              MO Center= -4.3D-05,  9.2D-04,  5.3D-05, r^2= 4.3D+00
   Bfn.  Coefficient  Atom+Function         Bfn.  Coefficient  Atom+Function  
  ----- ------------  ---------------      ----- ------------  ---------------
    20      0.907753  1 Mn py                11     -0.223570  1 Mn py         
    17      0.128076  1 Mn py                 8      0.079724  1 Mn py         
    14     -0.073967  1 Mn py                57      0.037955  1 Mn fxxy       
    64      0.037888  1 Mn fyzz              62      0.033749  1 Mn fyyy       
 
 Vector   19  Occ=0.000000D+00  E= 3.163473D-02
              MO Center= -4.4D-05, -3.7D-04,  5.7D-05, r^2= 1.4D+01
   Bfn.  Coefficient  Atom+Function         Bfn.  Coefficient  Atom+Function  
  ----- ------------  ---------------      ----- ------------  ---------------
     6      4.893545  1 Mn s                 43     -1.525193  1 Mn dyy        
    40     -1.516311  1 Mn dxx               45     -1.516483  1 Mn dzz        
    34     -0.859808  1 Mn dxx               39     -0.859722  1 Mn dzz        
    37     -0.853825  1 Mn dyy                4     -0.650604  1 Mn s          
     5      0.551007  1 Mn s                 31     -0.217038  1 Mn dyy        
 
 Vector   20  Occ=0.000000D+00  E= 1.374495D-01
              MO Center=  6.2D-05, -4.4D-07, -7.6D-05, r^2= 5.9D+00
   Bfn.  Coefficient  Atom+Function         Bfn.  Coefficient  Atom+Function  
  ----- ------------  ---------------      ----- ------------  ---------------
    40      0.922471  1 Mn dxx               45     -0.915853  1 Mn dzz        
    22     -0.155027  1 Mn dxx               27      0.154109  1 Mn dzz        
    34     -0.127102  1 Mn dxx               39      0.126847  1 Mn dzz        
    28     -0.033065  1 Mn dxx               33      0.032928  1 Mn dzz        
 
 Vector   21  Occ=0.000000D+00  E= 1.374496D-01
              MO Center=  6.1D-05, -4.6D-07, -7.6D-05, r^2= 5.9D+00
   Bfn.  Coefficient  Atom+Function         Bfn.  Coefficient  Atom+Function  
  ----- ------------  ---------------      ----- ------------  ---------------
    42      1.838349  1 Mn dxz               24     -0.309140  1 Mn dxz        
    36     -0.253952  1 Mn dxz               30     -0.065994  1 Mn dxz        
    68     -0.040230  1 Mn gxxxz             73     -0.040043  1 Mn gxyyz      
    75     -0.040236  1 Mn gxzzz      
 
 Vector   22  Occ=0.000000D+00  E= 1.403941D-01
              MO Center=  6.4D-05,  4.9D-04,  8.1D-08, r^2= 5.9D+00
   Bfn.  Coefficient  Atom+Function         Bfn.  Coefficient  Atom+Function  
  ----- ------------  ---------------      ----- ------------  ---------------
    41      1.841148  1 Mn dxy               23     -0.306673  1 Mn dxy        
    35     -0.258525  1 Mn dxy               29     -0.060625  1 Mn dxy        
    67     -0.041347  1 Mn gxxxy             74     -0.041350  1 Mn gxyzz      
    72     -0.040997  1 Mn gxyyy      
 
 Vector   23  Occ=0.000000D+00  E= 1.404329D-01
              MO Center= -6.0D-08,  4.9D-04, -7.9D-05, r^2= 5.9D+00
   Bfn.  Coefficient  Atom+Function         Bfn.  Coefficient  Atom+Function  
  ----- ------------  ---------------      ----- ------------  ---------------
    44      1.841187  1 Mn dyz               26     -0.306617  1 Mn dyz        
    38     -0.258574  1 Mn dyz               32     -0.060522  1 Mn dyz        
    70     -0.041363  1 Mn gxxyz             79     -0.041366  1 Mn gyzzz      
    77     -0.041010  1 Mn gyyyz      
 
 Vector   24  Occ=0.000000D+00  E= 1.414795D-01
              MO Center=  1.8D-05,  7.1D-04, -2.4D-05, r^2= 5.9D+00
   Bfn.  Coefficient  Atom+Function         Bfn.  Coefficient  Atom+Function  
  ----- ------------  ---------------      ----- ------------  ---------------
    43      1.035927  1 Mn dyy               45     -0.564639  1 Mn dzz        
    40     -0.555152  1 Mn dxx               25     -0.177128  1 Mn dyy        
    37     -0.163227  1 Mn dyy               27      0.088703  1 Mn dzz        
    22      0.087146  1 Mn dxx                6      0.064118  1 Mn s          
    39      0.064282  1 Mn dzz               34      0.062978  1 Mn dxx        
 
 Vector   25  Occ=0.000000D+00  E= 2.594288D-01
              MO Center= -3.3D-05, -3.2D-04,  3.8D-05, r^2= 1.1D+01
   Bfn.  Coefficient  Atom+Function         Bfn.  Coefficient  Atom+Function  
  ----- ------------  ---------------      ----- ------------  ---------------
     5      7.896882  1 Mn s                  6      6.631096  1 Mn s          
    40     -3.719073  1 Mn dxx               43     -3.727500  1 Mn dyy        
    45     -3.719218  1 Mn dzz                4     -2.846975  1 Mn s          
    34     -2.481794  1 Mn dxx               37     -2.488060  1 Mn dyy        
    39     -2.481867  1 Mn dzz               28     -0.555973  1 Mn dxx        
 
 Vector   26  Occ=0.000000D+00  E= 3.229888D-01
              MO Center=  1.5D-05, -1.8D-04,  3.4D-05, r^2= 4.8D+00
   Bfn.  Coefficient  Atom+Function         Bfn.  Coefficient  Atom+Function  
  ----- ------------  ---------------      ----- ------------  ---------------
    16      2.022519  1 Mn px                19     -1.422742  1 Mn px         
    10     -0.385157  1 Mn px                59     -0.266858  1 Mn fxyy       
    56     -0.260271  1 Mn fxxx              61     -0.260373  1 Mn fxzz       
     7      0.115718  1 Mn px                46     -0.032646  1 Mn fxxx       
    49     -0.032551  1 Mn fxyy              51     -0.032653  1 Mn fxzz       
 
 Vector   27  Occ=0.000000D+00  E= 3.230810D-01
              MO Center= -2.6D-05, -1.8D-04, -1.2D-05, r^2= 4.8D+00
   Bfn.  Coefficient  Atom+Function         Bfn.  Coefficient  Atom+Function  
  ----- ------------  ---------------      ----- ------------  ---------------
    18      2.022538  1 Mn pz                21     -1.422639  1 Mn pz         
    12     -0.385187  1 Mn pz                63     -0.266882  1 Mn fyyz       
    58     -0.260283  1 Mn fxxz              65     -0.260385  1 Mn fzzz       
     9      0.115721  1 Mn pz                48     -0.032652  1 Mn fxxz       
    53     -0.032553  1 Mn fyyz              55     -0.032658  1 Mn fzzz       
 
 Vector   28  Occ=0.000000D+00  E= 3.295938D-01
              MO Center= -2.9D-05,  1.7D-04,  3.9D-05, r^2= 4.7D+00
   Bfn.  Coefficient  Atom+Function         Bfn.  Coefficient  Atom+Function  
  ----- ------------  ---------------      ----- ------------  ---------------
    17      2.025833  1 Mn py                20     -1.415716  1 Mn py         
    11     -0.386803  1 Mn py                62     -0.268073  1 Mn fyyy       
    57     -0.260833  1 Mn fxxy              64     -0.260947  1 Mn fyzz       
     8      0.115947  1 Mn py                47     -0.033157  1 Mn fxxy       
    54     -0.033160  1 Mn fyzz              52     -0.032889  1 Mn fyyy       
 
 Vector   29  Occ=0.000000D+00  E= 7.268558D-01
              MO Center=  1.2D-05, -7.2D-06, -1.5D-05, r^2= 3.0D+00
   Bfn.  Coefficient  Atom+Function         Bfn.  Coefficient  Atom+Function  
  ----- ------------  ---------------      ----- ------------  ---------------
    34      1.299641  1 Mn dxx               39     -1.291622  1 Mn dzz        
    40     -0.665545  1 Mn dxx               45      0.664175  1 Mn dzz        
    28     -0.573520  1 Mn dxx               33      0.571294  1 Mn dzz        
    22     -0.307540  1 Mn dxx               27      0.306192  1 Mn dzz        
    66      0.143834  1 Mn gxxxx             78     -0.143668  1 Mn gyyzz      
 
 Vector   30  Occ=0.000000D+00  E= 7.268558D-01
              MO Center=  1.2D-05, -7.2D-06, -1.5D-05, r^2= 3.0D+00
   Bfn.  Coefficient  Atom+Function         Bfn.  Coefficient  Atom+Function  
  ----- ------------  ---------------      ----- ------------  ---------------
    36      2.591282  1 Mn dxz               42     -1.329730  1 Mn dxz        
    30     -1.144822  1 Mn dxz               24     -0.613737  1 Mn dxz        
    68      0.287106  1 Mn gxxxz             73      0.286528  1 Mn gxyyz      
    75      0.287081  1 Mn gxzzz      
 
 Vector   31  Occ=0.000000D+00  E= 7.315468D-01
              MO Center=  1.3D-05,  9.9D-05,  1.2D-06, r^2= 3.0D+00
   Bfn.  Coefficient  Atom+Function         Bfn.  Coefficient  Atom+Function  
  ----- ------------  ---------------      ----- ------------  ---------------
    35      2.591717  1 Mn dxy               41     -1.326180  1 Mn dxy        
    29     -1.143090  1 Mn dxy               23     -0.612283  1 Mn dxy        
    67      0.287871  1 Mn gxxxy             72      0.287508  1 Mn gxyyy      
    74      0.287851  1 Mn gxyzz      
 
 Vector   32  Occ=0.000000D+00  E= 7.316185D-01
              MO Center= -9.9D-07,  9.9D-05, -1.7D-05, r^2= 3.0D+00
   Bfn.  Coefficient  Atom+Function         Bfn.  Coefficient  Atom+Function  
  ----- ------------  ---------------      ----- ------------  ---------------
    38      2.591721  1 Mn dyz               44     -1.326129  1 Mn dyz        
    32     -1.143016  1 Mn dyz               26     -0.612247  1 Mn dyz        
    70      0.287881  1 Mn gxxyz             77      0.287522  1 Mn gyyyz      
    79      0.287861  1 Mn gyzzz      
 
 Vector   33  Occ=0.000000D+00  E= 7.339511D-01
              MO Center=  2.5D-06,  1.6D-04, -3.2D-06, r^2= 3.0D+00
   Bfn.  Coefficient  Atom+Function         Bfn.  Coefficient  Atom+Function  
  ----- ------------  ---------------      ----- ------------  ---------------
    37      1.282406  1 Mn dyy               39     -0.966250  1 Mn dzz        
    34     -0.956174  1 Mn dxx               43     -0.914242  1 Mn dyy        
     5      0.705085  1 Mn s                 31     -0.705973  1 Mn dyy        
    25     -0.357929  1 Mn dyy               33      0.286087  1 Mn dzz        
    28      0.281699  1 Mn dxx               45      0.234413  1 Mn dzz        
 
 Vector   34  Occ=0.000000D+00  E= 7.553080D-01
              MO Center= -3.8D-06, -3.3D-05,  4.0D-06, r^2= 8.3D+00
   Bfn.  Coefficient  Atom+Function         Bfn.  Coefficient  Atom+Function  
  ----- ------------  ---------------      ----- ------------  ---------------
     5     23.189144  1 Mn s                 37     -7.123478  1 Mn dyy        
    34     -7.057346  1 Mn dxx               39     -7.057402  1 Mn dzz        
     4     -6.338528  1 Mn s                  6      5.947236  1 Mn s          
    40     -4.843582  1 Mn dxx               45     -4.843525  1 Mn dzz        
    43     -4.807928  1 Mn dyy               28     -1.640708  1 Mn dxx        
 
 Vector   35  Occ=0.000000D+00  E= 1.661540D+00
              MO Center= -1.1D-06, -1.1D-05,  1.1D-06, r^2= 2.0D+00
   Bfn.  Coefficient  Atom+Function         Bfn.  Coefficient  Atom+Function  
  ----- ------------  ---------------      ----- ------------  ---------------
    16      2.122358  1 Mn px                56     -1.666053  1 Mn fxxx       
    61     -1.665250  1 Mn fxzz              59     -1.613069  1 Mn fxyy       
    19     -0.753623  1 Mn px                10      0.594041  1 Mn px         
    13      0.468566  1 Mn px                 7     -0.247845  1 Mn px         
    46     -0.164281  1 Mn fxxx              51     -0.164232  1 Mn fxzz       
 
 Vector   36  Occ=0.000000D+00  E= 1.661635D+00
              MO Center= -1.5D-06, -1.1D-05, -1.5D-06, r^2= 2.0D+00
   Bfn.  Coefficient  Atom+Function         Bfn.  Coefficient  Atom+Function  
  ----- ------------  ---------------      ----- ------------  ---------------
    18      2.122355  1 Mn pz                58     -1.666281  1 Mn fxxz       
    65     -1.665476  1 Mn fzzz              63     -1.613178  1 Mn fyyz       
    21     -0.753612  1 Mn pz                12      0.594076  1 Mn pz         
    15      0.468342  1 Mn pz                 9     -0.247843  1 Mn pz         
    48     -0.164291  1 Mn fxxz              55     -0.164242  1 Mn fzzz       
 
 Vector   37  Occ=0.000000D+00  E= 1.670184D+00
              MO Center= -1.9D-06, -2.1D-05,  1.6D-06, r^2= 2.0D+00
   Bfn.  Coefficient  Atom+Function         Bfn.  Coefficient  Atom+Function  
  ----- ------------  ---------------      ----- ------------  ---------------
    17      2.120096  1 Mn py                57     -1.688186  1 Mn fxxy       
    64     -1.687244  1 Mn fyzz              62     -1.628148  1 Mn fyyy       
    20     -0.751859  1 Mn py                11      0.595105  1 Mn py         
    14      0.463040  1 Mn py                 8     -0.247751  1 Mn py         
    47     -0.165167  1 Mn fxxy              54     -0.165118  1 Mn fyzz       
 
 Vector   38  Occ=0.000000D+00  E= 1.862115D+00
              MO Center=  1.8D-06, -4.5D-07, -2.6D-06, r^2= 8.6D-01
   Bfn.  Coefficient  Atom+Function         Bfn.  Coefficient  Atom+Function  
  ----- ------------  ---------------      ----- ------------  ---------------
    58      2.332280  1 Mn fxxz              65     -0.776328  1 Mn fzzz       
    48      0.108447  1 Mn fxxz              55     -0.036136  1 Mn fzzz       
 
 Vector   39  Occ=0.000000D+00  E= 1.862115D+00
              MO Center=  1.8D-06, -4.5D-07, -2.6D-06, r^2= 8.6D-01
   Bfn.  Coefficient  Atom+Function         Bfn.  Coefficient  Atom+Function  
  ----- ------------  ---------------      ----- ------------  ---------------
    61      2.330623  1 Mn fxzz              56     -0.777985  1 Mn fxxx       
    51      0.108427  1 Mn fxzz              46     -0.036156  1 Mn fxxx       
 
 Vector   40  Occ=0.000000D+00  E= 1.867968D+00
              MO Center=  1.2D-06,  8.9D-06, -1.7D-06, r^2= 8.6D-01
   Bfn.  Coefficient  Atom+Function         Bfn.  Coefficient  Atom+Function  
  ----- ------------  ---------------      ----- ------------  ---------------
    57      1.917281  1 Mn fxxy              64     -1.889415  1 Mn fyzz       
    47      0.089744  1 Mn fxxy              54     -0.088542  1 Mn fyzz       
 
 Vector   41  Occ=0.000000D+00  E= 1.867968D+00
              MO Center=  1.2D-06,  8.9D-06, -1.8D-06, r^2= 8.6D-01
   Bfn.  Coefficient  Atom+Function         Bfn.  Coefficient  Atom+Function  
  ----- ------------  ---------------      ----- ------------  ---------------
    60      3.806886  1 Mn fxyz              50      0.178295  1 Mn fxyz       
 
 Vector   42  Occ=0.000000D+00  E= 1.872330D+00
              MO Center=  1.6D-06,  1.5D-05, -1.3D-07, r^2= 8.6D-01
   Bfn.  Coefficient  Atom+Function         Bfn.  Coefficient  Atom+Function  
  ----- ------------  ---------------      ----- ------------  ---------------
    59      2.435593  1 Mn fxyy              61     -0.578396  1 Mn fxzz       
    56     -0.571722  1 Mn fxxx              49      0.115981  1 Mn fxyy       
    16     -0.032679  1 Mn px                51     -0.025565  1 Mn fxzz       
    46     -0.025241  1 Mn fxxx       
 
 Vector   43  Occ=0.000000D+00  E= 1.872435D+00
              MO Center=  4.9D-08,  1.5D-05, -2.3D-06, r^2= 8.6D-01
   Bfn.  Coefficient  Atom+Function         Bfn.  Coefficient  Atom+Function  
  ----- ------------  ---------------      ----- ------------  ---------------
    63      2.435451  1 Mn fyyz              65     -0.575184  1 Mn fzzz       
    58     -0.568553  1 Mn fxxz              53      0.115991  1 Mn fyyz       
    18     -0.032506  1 Mn pz                55     -0.025423  1 Mn fzzz       
    48     -0.025102  1 Mn fxxz       
 
 Vector   44  Occ=0.000000D+00  E= 1.874050D+00
              MO Center=  6.8D-07,  1.7D-05, -1.1D-06, r^2= 8.6D-01
   Bfn.  Coefficient  Atom+Function         Bfn.  Coefficient  Atom+Function  
  ----- ------------  ---------------      ----- ------------  ---------------
    64      1.453214  1 Mn fyzz              57      1.415198  1 Mn fxxy       
    62     -1.022116  1 Mn fyyy              54      0.066103  1 Mn fyzz       
    47      0.064296  1 Mn fxxy              52     -0.050254  1 Mn fyyy       
    17      0.045328  1 Mn py         
 
 Vector   45  Occ=0.000000D+00  E= 1.922832D+00
              MO Center=  4.9D-06,  4.9D-05, -3.8D-06, r^2= 2.6D+00
   Bfn.  Coefficient  Atom+Function         Bfn.  Coefficient  Atom+Function  
  ----- ------------  ---------------      ----- ------------  ---------------
     5     13.808964  1 Mn s                 34     -4.852454  1 Mn dxx        
    37     -4.844044  1 Mn dyy               39     -4.852418  1 Mn dzz        
     4     -4.051717  1 Mn s                  6      2.179636  1 Mn s          
    40     -2.124798  1 Mn dxx               43     -2.127253  1 Mn dyy        
    45     -2.124804  1 Mn dzz                3     -0.686434  1 Mn s          
 
 Vector   46  Occ=0.000000D+00  E= 2.606727D+00
              MO Center=  2.0D-06,  5.7D-07, -1.3D-06, r^2= 1.3D+00
   Bfn.  Coefficient  Atom+Function         Bfn.  Coefficient  Atom+Function  
  ----- ------------  ---------------      ----- ------------  ---------------
    30      4.419067  1 Mn dxz               36     -1.999215  1 Mn dxz        
    24     -1.444804  1 Mn dxz               68     -1.427538  1 Mn gxxxz      
    73     -1.431821  1 Mn gxyyz             75     -1.427607  1 Mn gxzzz      
    42      0.634124  1 Mn dxz        
 
 Vector   47  Occ=0.000000D+00  E= 2.606727D+00
              MO Center=  2.0D-06,  5.7D-07, -1.3D-06, r^2= 1.3D+00
   Bfn.  Coefficient  Atom+Function         Bfn.  Coefficient  Atom+Function  
  ----- ------------  ---------------      ----- ------------  ---------------
    28      2.212331  1 Mn dxx               33     -2.206725  1 Mn dzz        
    34     -1.000673  1 Mn dxx               39      0.998537  1 Mn dzz        
    22     -0.723325  1 Mn dxx               27      0.721476  1 Mn dzz        
    66     -0.714708  1 Mn gxxxx             69     -0.715015  1 Mn gxxyy      
    78      0.716802  1 Mn gyyzz             80      0.712861  1 Mn gzzzz      
 
 Vector   48  Occ=0.000000D+00  E= 2.611971D+00
              MO Center=  2.6D-06,  1.9D-05,  1.8D-07, r^2= 1.3D+00
   Bfn.  Coefficient  Atom+Function         Bfn.  Coefficient  Atom+Function  
  ----- ------------  ---------------      ----- ------------  ---------------
    29      4.417653  1 Mn dxy               35     -1.998780  1 Mn dxy        
    23     -1.443724  1 Mn dxy               67     -1.424119  1 Mn gxxxy      
    72     -1.428615  1 Mn gxyyy             74     -1.424191  1 Mn gxyzz      
    41      0.633580  1 Mn dxy        
 
 Vector   49  Occ=0.000000D+00  E= 2.612036D+00
              MO Center=  1.1D-07,  1.9D-05, -2.1D-06, r^2= 1.3D+00
   Bfn.  Coefficient  Atom+Function         Bfn.  Coefficient  Atom+Function  
  ----- ------------  ---------------      ----- ------------  ---------------
    32      4.417614  1 Mn dyz               38     -1.998783  1 Mn dyz        
    26     -1.443699  1 Mn dyz               70     -1.424039  1 Mn gxxyz      
    77     -1.428540  1 Mn gyyyz             79     -1.424111  1 Mn gyzzz      
    44      0.633576  1 Mn dyz        
 
 Vector   50  Occ=0.000000D+00  E= 2.614894D+00
              MO Center=  6.0D-07,  3.2D-05, -1.4D-07, r^2= 1.3D+00
   Bfn.  Coefficient  Atom+Function         Bfn.  Coefficient  Atom+Function  
  ----- ------------  ---------------      ----- ------------  ---------------
    31      2.554736  1 Mn dyy               33     -1.275617  1 Mn dzz        
    28     -1.265851  1 Mn dxx               37     -1.176638  1 Mn dyy        
    25     -0.832996  1 Mn dyy               71      0.821419  1 Mn gxxzz      
    76     -0.824506  1 Mn gyyyy             39      0.556146  1 Mn dzz        
    34      0.551708  1 Mn dxx               27      0.418631  1 Mn dzz        
 
 Vector   51  Occ=0.000000D+00  E= 5.752656D+00
              MO Center= -4.8D-06, -3.0D-06,  2.4D-07, r^2= 7.8D-01
   Bfn.  Coefficient  Atom+Function         Bfn.  Coefficient  Atom+Function  
  ----- ------------  ---------------      ----- ------------  ---------------
    13     11.658065  1 Mn px                56     -6.497393  1 Mn fxxx       
    59     -6.496010  1 Mn fxyy              61     -6.497373  1 Mn fxzz       
    10     -2.887757  1 Mn px                49     -0.749868  1 Mn fxyy       
    46     -0.746049  1 Mn fxxx              51     -0.746136  1 Mn fxzz       
    16      0.651452  1 Mn px                 7      0.312577  1 Mn px         
 
 Vector   52  Occ=0.000000D+00  E= 5.752673D+00
              MO Center= -5.6D-07, -3.0D-06,  6.5D-07, r^2= 7.8D-01
   Bfn.  Coefficient  Atom+Function         Bfn.  Coefficient  Atom+Function  
  ----- ------------  ---------------      ----- ------------  ---------------
    15     11.658038  1 Mn pz                58     -6.497408  1 Mn fxxz       
    63     -6.496022  1 Mn fyyz              65     -6.497387  1 Mn fzzz       
    12     -2.887762  1 Mn pz                53     -0.749806  1 Mn fyyz       
    48     -0.745992  1 Mn fxxz              55     -0.746078  1 Mn fzzz       
    18      0.651470  1 Mn pz                 9      0.312576  1 Mn pz         
 
 Vector   53  Occ=0.000000D+00  E= 5.759512D+00
              MO Center= -6.2D-07, -2.6D-05,  3.3D-07, r^2= 7.8D-01
   Bfn.  Coefficient  Atom+Function         Bfn.  Coefficient  Atom+Function  
  ----- ------------  ---------------      ----- ------------  ---------------
    14     11.656869  1 Mn py                57     -6.497789  1 Mn fxxy       
    62     -6.496308  1 Mn fyyy              64     -6.497766  1 Mn fyzz       
    11     -2.888028  1 Mn py                47     -0.743669  1 Mn fxxy       
    52     -0.747290  1 Mn fyyy              54     -0.743751  1 Mn fyzz       
    17      0.651590  1 Mn py                 8      0.312526  1 Mn py         
 
 Vector   54  Occ=0.000000D+00  E= 5.928240D+00
              MO Center=  4.2D-06,  2.3D-05, -4.5D-07, r^2= 8.9D-01
   Bfn.  Coefficient  Atom+Function         Bfn.  Coefficient  Atom+Function  
  ----- ------------  ---------------      ----- ------------  ---------------
     5      5.325964  1 Mn s                 71     -2.446891  1 Mn gxxzz      
    69     -2.428810  1 Mn gxxyy             78     -2.428691  1 Mn gyyzz      
    34     -2.053774  1 Mn dxx               37     -2.048278  1 Mn dyy        
    39     -2.053776  1 Mn dzz                4     -1.405473  1 Mn s          
    28      1.349921  1 Mn dxx               33      1.349903  1 Mn dzz        
 
 Vector   55  Occ=0.000000D+00  E= 6.849966D+00
              MO Center=  5.4D-07,  8.3D-08, -3.3D-07, r^2= 7.5D-01
   Bfn.  Coefficient  Atom+Function         Bfn.  Coefficient  Atom+Function  
  ----- ------------  ---------------      ----- ------------  ---------------
    30      5.206315  1 Mn dxz               68     -4.325689  1 Mn gxxxz      
    75     -4.325216  1 Mn gxzzz             73     -3.954854  1 Mn gxyyz      
    36     -1.308276  1 Mn dxz               24      1.081717  1 Mn dxz        
    42      0.370243  1 Mn dxz        
 
 Vector   56  Occ=0.000000D+00  E= 6.849966D+00
              MO Center=  5.3D-07,  8.3D-08, -3.4D-07, r^2= 7.5D-01
   Bfn.  Coefficient  Atom+Function         Bfn.  Coefficient  Atom+Function  
  ----- ------------  ---------------      ----- ------------  ---------------
    28      2.601881  1 Mn dxx               33     -2.604433  1 Mn dzz        
    66     -2.161662  1 Mn gxxxx             80      2.163787  1 Mn gzzzz      
    69     -1.979190  1 Mn gxxyy             78      1.975674  1 Mn gyyzz      
    34     -0.653798  1 Mn dxx               39      0.654478  1 Mn dzz        
    22      0.540598  1 Mn dxx               27     -0.541118  1 Mn dzz        
 
 Vector   57  Occ=0.000000D+00  E= 6.854078D+00
              MO Center=  6.0D-07,  2.6D-06, -9.2D-08, r^2= 7.5D-01
   Bfn.  Coefficient  Atom+Function         Bfn.  Coefficient  Atom+Function  
  ----- ------------  ---------------      ----- ------------  ---------------
    29      5.192523  1 Mn dxy               67     -4.477129  1 Mn gxxxy      
    74     -4.473544  1 Mn gxyzz             72     -3.972280  1 Mn gxyyy      
    35     -1.304730  1 Mn dxy               23      1.077226  1 Mn dxy        
    41      0.369156  1 Mn dxy        
 
 Vector   58  Occ=0.000000D+00  E= 6.854111D+00
              MO Center= -8.5D-09,  2.6D-06, -4.3D-07, r^2= 7.5D-01
   Bfn.  Coefficient  Atom+Function         Bfn.  Coefficient  Atom+Function  
  ----- ------------  ---------------      ----- ------------  ---------------
    32      5.192499  1 Mn dyz               70     -4.479281  1 Mn gxxyz      
    79     -4.475658  1 Mn gyzzz             77     -3.971737  1 Mn gyyyz      
    38     -1.304725  1 Mn dyz               26      1.077182  1 Mn dyz        
    44      0.369153  1 Mn dyz        
 
 Vector   59  Occ=0.000000D+00  E= 6.856836D+00
              MO Center=  1.1D-07,  4.3D-06, -1.0D-07, r^2= 7.5D-01
   Bfn.  Coefficient  Atom+Function         Bfn.  Coefficient  Atom+Function  
  ----- ------------  ---------------      ----- ------------  ---------------
    31      2.998679  1 Mn dyy               71      2.526764  1 Mn gxxzz      
    76     -2.345016  1 Mn gyyyy             69     -1.584845  1 Mn gxxyy      
    78     -1.585473  1 Mn gyyzz             28     -1.489272  1 Mn dxx        
    33     -1.485033  1 Mn dzz               66      1.265356  1 Mn gxxxx      
    80      1.261382  1 Mn gzzzz             37     -0.761519  1 Mn dyy        
 
 Vector   60  Occ=0.000000D+00  E= 6.872609D+00
              MO Center=  7.0D-09, -4.1D-12,  8.2D-08, r^2= 4.4D-01
   Bfn.  Coefficient  Atom+Function         Bfn.  Coefficient  Atom+Function  
  ----- ------------  ---------------      ----- ------------  ---------------
    71      4.437049  1 Mn gxxzz             66     -0.738859  1 Mn gxxxx      
    80     -0.740168  1 Mn gzzzz      
 
 Vector   61  Occ=0.000000D+00  E= 6.872609D+00
              MO Center=  7.0D-09, -4.1D-12,  8.2D-08, r^2= 4.4D-01
   Bfn.  Coefficient  Atom+Function         Bfn.  Coefficient  Atom+Function  
  ----- ------------  ---------------      ----- ------------  ---------------
    68      2.956729  1 Mn gxxxz             75     -2.959347  1 Mn gxzzz      
 
 Vector   62  Occ=0.000000D+00  E= 6.875692D+00
              MO Center=  3.6D-08,  1.9D-07,  1.8D-08, r^2= 4.4D-01
   Bfn.  Coefficient  Atom+Function         Bfn.  Coefficient  Atom+Function  
  ----- ------------  ---------------      ----- ------------  ---------------
    74      6.275996  1 Mn gxyzz             67     -2.090602  1 Mn gxxxy      
 
 Vector   63  Occ=0.000000D+00  E= 6.875692D+00
              MO Center=  3.6D-08,  1.9D-07,  1.8D-08, r^2= 4.4D-01
   Bfn.  Coefficient  Atom+Function         Bfn.  Coefficient  Atom+Function  
  ----- ------------  ---------------      ----- ------------  ---------------
    70      6.273907  1 Mn gxxyz             79     -2.092691  1 Mn gyzzz      
 
 Vector   64  Occ=0.000000D+00  E= 6.878925D+00
              MO Center=  3.6D-08,  7.0D-07,  7.5D-09, r^2= 4.4D-01
   Bfn.  Coefficient  Atom+Function         Bfn.  Coefficient  Atom+Function  
  ----- ------------  ---------------      ----- ------------  ---------------
    73      6.902460  1 Mn gxyyz             68     -0.918154  1 Mn gxxxz      
    75     -0.911831  1 Mn gxzzz             30     -0.244304  1 Mn dxz        
    36      0.061242  1 Mn dxz               24     -0.051825  1 Mn dxz        
 
 Vector   65  Occ=0.000000D+00  E= 6.878925D+00
              MO Center=  3.5D-08,  7.0D-07,  6.0D-09, r^2= 4.4D-01
   Bfn.  Coefficient  Atom+Function         Bfn.  Coefficient  Atom+Function  
  ----- ------------  ---------------      ----- ------------  ---------------
    69      3.466193  1 Mn gxxyy             78     -3.436152  1 Mn gyyzz      
    66     -0.459092  1 Mn gxxxx             80      0.455897  1 Mn gzzzz      
    28     -0.123639  1 Mn dxx               33      0.120649  1 Mn dzz        
    34      0.030967  1 Mn dxx               39     -0.030271  1 Mn dzz        
    22     -0.026221  1 Mn dxx               27      0.025601  1 Mn dzz        
 
 Vector   66  Occ=0.000000D+00  E= 6.881361D+00
              MO Center=  5.8D-08,  1.1D-06,  9.8D-09, r^2= 4.4D-01
   Bfn.  Coefficient  Atom+Function         Bfn.  Coefficient  Atom+Function  
  ----- ------------  ---------------      ----- ------------  ---------------
    72      3.537569  1 Mn gxyyy             67     -1.972510  1 Mn gxxxy      
    74     -1.976151  1 Mn gxyzz             29     -0.470944  1 Mn dxy        
    35      0.118090  1 Mn dxy               23     -0.099160  1 Mn dxy        
    41     -0.033402  1 Mn dxy        
 
 Vector   67  Occ=0.000000D+00  E= 6.881398D+00
              MO Center=  2.8D-09,  1.1D-06,  1.0D-08, r^2= 4.4D-01
   Bfn.  Coefficient  Atom+Function         Bfn.  Coefficient  Atom+Function  
  ----- ------------  ---------------      ----- ------------  ---------------
    77      3.538208  1 Mn gyyyz             70     -1.969885  1 Mn gxxyz      
    79     -1.973639  1 Mn gyzzz             32     -0.471793  1 Mn dyz        
    38      0.118304  1 Mn dyz               26     -0.099316  1 Mn dyz        
    44     -0.033462  1 Mn dyz        
 
 Vector   68  Occ=0.000000D+00  E= 6.882322D+00
              MO Center=  2.7D-08,  1.3D-06,  1.4D-08, r^2= 4.4D-01
   Bfn.  Coefficient  Atom+Function         Bfn.  Coefficient  Atom+Function  
  ----- ------------  ---------------      ----- ------------  ---------------
    78      2.855128  1 Mn gyyzz             69      2.816367  1 Mn gxxyy      
    76     -1.278109  1 Mn gyyyy             71     -0.463997  1 Mn gxxzz      
    31      0.345362  1 Mn dyy               80     -0.234178  1 Mn gzzzz      
    66     -0.229834  1 Mn gxxxx             33     -0.171646  1 Mn dzz        
    28     -0.169441  1 Mn dxx               37     -0.088124  1 Mn dyy        
 
 Vector   69  Occ=0.000000D+00  E= 7.651440D+00
              MO Center=  1.9D-07,  8.8D-07, -1.4D-07, r^2= 2.9D-01
   Bfn.  Coefficient  Atom+Function         Bfn.  Coefficient  Atom+Function  
  ----- ------------  ---------------      ----- ------------  ---------------
    54     -2.107671  1 Mn fyzz              47      2.022368  1 Mn fxxy       
    64      0.823846  1 Mn fyzz              57     -0.790743  1 Mn fxxy       
    52      0.028388  1 Mn fyyy       
 
 Vector   70  Occ=0.000000D+00  E= 7.651441D+00
              MO Center=  1.9D-07,  8.8D-07, -1.3D-07, r^2= 2.9D-01
   Bfn.  Coefficient  Atom+Function         Bfn.  Coefficient  Atom+Function  
  ----- ------------  ---------------      ----- ------------  ---------------
    50      4.131506  1 Mn fxyz              60     -1.615162  1 Mn fxyz       
 
 Vector   71  Occ=0.000000D+00  E= 7.651838D+00
              MO Center=  2.6D-07,  2.6D-07, -1.8D-07, r^2= 2.9D-01
   Bfn.  Coefficient  Atom+Function         Bfn.  Coefficient  Atom+Function  
  ----- ------------  ---------------      ----- ------------  ---------------
    48      2.498280  1 Mn fxxz              58     -0.976175  1 Mn fxxz       
    55     -0.871749  1 Mn fzzz              65      0.340369  1 Mn fzzz       
    53      0.116791  1 Mn fyyz              63     -0.045885  1 Mn fyyz       
 
 Vector   72  Occ=0.000000D+00  E= 7.651839D+00
              MO Center=  2.6D-07,  2.6D-07, -1.8D-07, r^2= 2.9D-01
   Bfn.  Coefficient  Atom+Function         Bfn.  Coefficient  Atom+Function  
  ----- ------------  ---------------      ----- ------------  ---------------
    51      2.555232  1 Mn fxzz              61     -0.998061  1 Mn fxzz       
    46     -0.815209  1 Mn fxxx              56      0.318644  1 Mn fxxx       
    49     -0.109443  1 Mn fxyy              59      0.042992  1 Mn fxyy       
 
 Vector   73  Occ=0.000000D+00  E= 7.652936D+00
              MO Center=  5.4D-08,  1.4D-06, -1.4D-07, r^2= 2.9D-01
   Bfn.  Coefficient  Atom+Function         Bfn.  Coefficient  Atom+Function  
  ----- ------------  ---------------      ----- ------------  ---------------
    53      2.609342  1 Mn fyyz              63     -1.028457  1 Mn fyyz       
    48     -0.766734  1 Mn fxxz              55     -0.615908  1 Mn fzzz       
    58      0.291709  1 Mn fxxz              65      0.232799  1 Mn fzzz       
 
 Vector   74  Occ=0.000000D+00  E= 7.653014D+00
              MO Center=  2.3D-07,  1.4D-06, -4.3D-08, r^2= 2.9D-01
   Bfn.  Coefficient  Atom+Function         Bfn.  Coefficient  Atom+Function  
  ----- ------------  ---------------      ----- ------------  ---------------
    49      2.609660  1 Mn fxyy              59     -1.028640  1 Mn fxyy       
    46     -0.689030  1 Mn fxxx              51     -0.547694  1 Mn fxzz       
    56      0.261272  1 Mn fxxx              61      0.206070  1 Mn fxzz       
 
 Vector   75  Occ=0.000000D+00  E= 7.653784D+00
              MO Center=  1.2D-07,  1.6D-06, -7.6D-08, r^2= 2.9D-01
   Bfn.  Coefficient  Atom+Function         Bfn.  Coefficient  Atom+Function  
  ----- ------------  ---------------      ----- ------------  ---------------
    47      1.656047  1 Mn fxxy              54      1.545990  1 Mn fyzz       
    52     -1.064891  1 Mn fyyy              57     -0.637655  1 Mn fxxy       
    64     -0.594654  1 Mn fyzz              62      0.426416  1 Mn fyyy       
 
 Vector   76  Occ=0.000000D+00  E= 1.607897D+01
              MO Center= -9.0D-09, -5.3D-08,  4.7D-08, r^2= 3.2D-01
   Bfn.  Coefficient  Atom+Function         Bfn.  Coefficient  Atom+Function  
  ----- ------------  ---------------      ----- ------------  ---------------
    15      4.685831  1 Mn pz                12      3.481247  1 Mn pz         
    48     -3.175950  1 Mn fxxz              53     -3.176102  1 Mn fyyz       
    55     -3.175942  1 Mn fzzz              58     -2.836375  1 Mn fxxz       
    63     -2.836158  1 Mn fyyz              65     -2.836375  1 Mn fzzz       
     9     -0.815602  1 Mn pz                18      0.364132  1 Mn pz         
 
 Vector   77  Occ=0.000000D+00  E= 1.607906D+01
              MO Center= -1.7D-08, -5.3D-08,  2.1D-08, r^2= 3.2D-01
   Bfn.  Coefficient  Atom+Function         Bfn.  Coefficient  Atom+Function  
  ----- ------------  ---------------      ----- ------------  ---------------
    13      4.685733  1 Mn px                10      3.481270  1 Mn px         
    46     -3.175942  1 Mn fxxx              49     -3.176089  1 Mn fxyy       
    51     -3.175933  1 Mn fxzz              56     -2.836323  1 Mn fxxx       
    59     -2.836107  1 Mn fxyy              61     -2.836323  1 Mn fxzz       
     7     -0.815603  1 Mn px                16      0.364130  1 Mn px         
 
 Vector   78  Occ=0.000000D+00  E= 1.608166D+01
              MO Center= -6.4D-09, -1.5D-08,  1.7D-08, r^2= 3.2D-01
   Bfn.  Coefficient  Atom+Function         Bfn.  Coefficient  Atom+Function  
  ----- ------------  ---------------      ----- ------------  ---------------
    14      4.689507  1 Mn py                11      3.480262  1 Mn py         
    47     -3.175976  1 Mn fxxy              52     -3.176342  1 Mn fyyy       
    54     -3.175972  1 Mn fyzz              57     -2.838388  1 Mn fxxy       
    62     -2.838097  1 Mn fyyy              64     -2.838386  1 Mn fyzz       
     8     -0.815500  1 Mn py                17      0.364109  1 Mn py         
 
 Vector   79  Occ=0.000000D+00  E= 5.244085D+01
              MO Center= -1.1D-09, -8.1D-09,  1.4D-09, r^2= 1.3D-01
   Bfn.  Coefficient  Atom+Function         Bfn.  Coefficient  Atom+Function  
  ----- ------------  ---------------      ----- ------------  ---------------
     3     32.406870  1 Mn s                 22    -18.136655  1 Mn dxx        
    25    -18.136669  1 Mn dyy               27    -18.136656  1 Mn dzz        
     4      8.524994  1 Mn s                  2      6.100603  1 Mn s          
    28     -2.083744  1 Mn dxx               31     -2.083663  1 Mn dyy        
    33     -2.083743  1 Mn dzz                5     -1.439113  1 Mn s          
 
 Vector   80  Occ=0.000000D+00  E= 1.028371D+02
              MO Center=  7.1D-09,  3.4D-08, -5.5D-09, r^2= 2.8D-01
   Bfn.  Coefficient  Atom+Function         Bfn.  Coefficient  Atom+Function  
  ----- ------------  ---------------      ----- ------------  ---------------
     4     90.660381  1 Mn s                  3    -43.285814  1 Mn s          
    28    -14.811622  1 Mn dxx               31    -14.811535  1 Mn dyy        
    33    -14.811619  1 Mn dzz                2    -13.790740  1 Mn s          
    69    -12.162298  1 Mn gxxyy             71    -12.162205  1 Mn gxxzz      
    78    -12.162301  1 Mn gyyzz             66     -6.081101  1 Mn gxxxx      
 
 
                     DFT Final Beta Molecular Orbital Analysis
                     -----------------------------------------
 
 Vector    1  Occ=1.000000D+00  E=-2.347174D+02
              MO Center= -2.8D-11, -4.2D-11,  5.7D-11, r^2= 1.4D-03
   Bfn.  Coefficient  Atom+Function         Bfn.  Coefficient  Atom+Function  
  ----- ------------  ---------------      ----- ------------  ---------------
     1      0.997292  1 Mn s                  4      0.030715  1 Mn s          
 
 Vector    2  Occ=1.000000D+00  E=-2.695110D+01
              MO Center= -5.4D-08, -2.7D-07,  1.1D-07, r^2= 2.6D-02
   Bfn.  Coefficient  Atom+Function         Bfn.  Coefficient  Atom+Function  
  ----- ------------  ---------------      ----- ------------  ---------------
     2      1.024878  1 Mn s                  1     -0.312714  1 Mn s          
 
[...]
    34     -2.023179  1 Mn dxx               37     -2.016130  1 Mn dyy        
    39     -2.023022  1 Mn dzz               28      1.337944  1 Mn dxx        
    33      1.337168  1 Mn dzz                4     -1.315387  1 Mn s          
 
 Vector   55  Occ=0.000000D+00  E= 6.999908D+00
              MO Center=  3.7D-06, -1.5D-06, -4.4D-06, r^2= 7.4D-01
   Bfn.  Coefficient  Atom+Function         Bfn.  Coefficient  Atom+Function  
  ----- ------------  ---------------      ----- ------------  ---------------
    28      2.600963  1 Mn dxx               33     -2.567039  1 Mn dzz        
    66     -2.163851  1 Mn gxxxx             80      2.135173  1 Mn gzzzz      
    78      2.033577  1 Mn gyyzz             69     -1.998839  1 Mn gxxyy      
    34     -0.648304  1 Mn dxx               39      0.641097  1 Mn dzz        
    22      0.552069  1 Mn dxx               27     -0.545144  1 Mn dzz        
 
 Vector   56  Occ=0.000000D+00  E= 6.999910D+00
              MO Center=  3.7D-06, -1.5D-06, -4.5D-06, r^2= 7.4D-01
   Bfn.  Coefficient  Atom+Function         Bfn.  Coefficient  Atom+Function  
  ----- ------------  ---------------      ----- ------------  ---------------
    30      5.168356  1 Mn dxz               68     -4.299581  1 Mn gxxxz      
    75     -4.299060  1 Mn gxzzz             73     -4.032681  1 Mn gxyyz      
    36     -1.289489  1 Mn dxz               24      1.097287  1 Mn dxz        
    42      0.364045  1 Mn dxz        
 
 Vector   57  Occ=0.000000D+00  E= 7.008879D+00
              MO Center=  4.1D-06,  2.7D-05,  1.9D-07, r^2= 7.4D-01
   Bfn.  Coefficient  Atom+Function         Bfn.  Coefficient  Atom+Function  
  ----- ------------  ---------------      ----- ------------  ---------------
    29      5.161694  1 Mn dxy               67     -4.438787  1 Mn gxxxy      
    74     -4.436572  1 Mn gxyzz             72     -4.005161  1 Mn gxyyy      
    35     -1.289592  1 Mn dxy               23      1.092866  1 Mn dxy        
    41      0.364116  1 Mn dxy        
 
 Vector   58  Occ=0.000000D+00  E= 7.008993D+00
              MO Center= -2.2D-07,  2.7D-05, -5.0D-06, r^2= 7.4D-01
   Bfn.  Coefficient  Atom+Function         Bfn.  Coefficient  Atom+Function  
  ----- ------------  ---------------      ----- ------------  ---------------
    32      5.161676  1 Mn dyz               70     -4.440797  1 Mn gxxyz      
    79     -4.438596  1 Mn gyzzz             77     -4.003727  1 Mn gyyyz      
    38     -1.289642  1 Mn dyz               26      1.092791  1 Mn dyz        
    44      0.364130  1 Mn dyz        
 
 Vector   59  Occ=0.000000D+00  E= 7.009781D+00
              MO Center=  8.1D-07,  4.2D-05, -1.1D-06, r^2= 7.4D-01
   Bfn.  Coefficient  Atom+Function         Bfn.  Coefficient  Atom+Function  
  ----- ------------  ---------------      ----- ------------  ---------------
    31      2.990672  1 Mn dyy               71      2.499115  1 Mn gxxzz      
    76     -2.368349  1 Mn gyyyy             69     -1.559098  1 Mn gxxyy      
    33     -1.503716  1 Mn dzz               78     -1.511207  1 Mn gyyzz      
    28     -1.443193  1 Mn dxx               80      1.274637  1 Mn gzzzz      
    66      1.224458  1 Mn gxxxx             37     -0.768877  1 Mn dyy        
 
 Vector   60  Occ=0.000000D+00  E= 7.033390D+00
              MO Center=  8.5D-09, -2.3D-11,  9.3D-08, r^2= 4.4D-01
   Bfn.  Coefficient  Atom+Function         Bfn.  Coefficient  Atom+Function  
  ----- ------------  ---------------      ----- ------------  ---------------
    71      4.437034  1 Mn gxxzz             66     -0.740946  1 Mn gxxxx      
    80     -0.738067  1 Mn gzzzz      
 
 Vector   61  Occ=0.000000D+00  E= 7.033390D+00
              MO Center=  8.5D-09, -2.3D-11,  9.3D-08, r^2= 4.4D-01
   Bfn.  Coefficient  Atom+Function         Bfn.  Coefficient  Atom+Function  
  ----- ------------  ---------------      ----- ------------  ---------------
    68      2.960902  1 Mn gxxxz             75     -2.955145  1 Mn gxzzz      
 
 Vector   62  Occ=0.000000D+00  E= 7.037115D+00
              MO Center= -2.0D-08,  1.7D-07,  1.1D-07, r^2= 4.4D-01
   Bfn.  Coefficient  Atom+Function         Bfn.  Coefficient  Atom+Function  
  ----- ------------  ---------------      ----- ------------  ---------------
    74      6.266030  1 Mn gxyzz             67     -2.100468  1 Mn gxxxy      
 
 Vector   63  Occ=0.000000D+00  E= 7.037115D+00
              MO Center= -2.0D-08,  1.7D-07,  1.1D-07, r^2= 4.4D-01
   Bfn.  Coefficient  Atom+Function         Bfn.  Coefficient  Atom+Function  
  ----- ------------  ---------------      ----- ------------  ---------------
    70      6.283201  1 Mn gxxyz             79     -2.083307  1 Mn gyzzz      
 
 Vector   64  Occ=0.000000D+00  E= 7.038912D+00
              MO Center= -1.5D-09, -3.8D-07,  6.6D-08, r^2= 4.4D-01
   Bfn.  Coefficient  Atom+Function         Bfn.  Coefficient  Atom+Function  
  ----- ------------  ---------------      ----- ------------  ---------------
    73      6.849319  1 Mn gxyyz             75     -0.982240  1 Mn gxzzz      
    68     -0.962423  1 Mn gxxxz             30     -0.175266  1 Mn dxz        
    36      0.043411  1 Mn dxz               24     -0.037116  1 Mn dxz        
 
 Vector   65  Occ=0.000000D+00  E= 7.038912D+00
              MO Center=  1.0D-10, -3.8D-07,  6.8D-08, r^2= 4.4D-01
   Bfn.  Coefficient  Atom+Function         Bfn.  Coefficient  Atom+Function  
  ----- ------------  ---------------      ----- ------------  ---------------
    69      3.446828  1 Mn gxxyy             78     -3.402257  1 Mn gyyzz      
    66     -0.485600  1 Mn gxxxx             80      0.486725  1 Mn gzzzz      
    28     -0.088845  1 Mn dxx               33      0.086387  1 Mn dzz        
 
 Vector   66  Occ=0.000000D+00  E= 7.039816D+00
              MO Center=  8.4D-08, -8.4D-07, -1.7D-08, r^2= 4.4D-01
   Bfn.  Coefficient  Atom+Function         Bfn.  Coefficient  Atom+Function  
  ----- ------------  ---------------      ----- ------------  ---------------
    72      3.486322  1 Mn gxyyy             74     -2.061595  1 Mn gxyzz      
    67     -2.020302  1 Mn gxxxy             29     -0.404883  1 Mn dxy        
    35      0.100618  1 Mn dxy               23     -0.085383  1 Mn dxy        
    41     -0.028393  1 Mn dxy        
 
 Vector   67  Occ=0.000000D+00  E= 7.039827D+00
              MO Center=  2.3D-08, -8.5D-07, -8.5D-09, r^2= 4.4D-01
   Bfn.  Coefficient  Atom+Function         Bfn.  Coefficient  Atom+Function  
  ----- ------------  ---------------      ----- ------------  ---------------
    77      3.488037  1 Mn gyyyz             79     -2.038519  1 Mn gyzzz      
    70     -1.999375  1 Mn gxxyz             32     -0.407104  1 Mn dyz        
    38      0.101178  1 Mn dyz               26     -0.085848  1 Mn dyz        
    44     -0.028551  1 Mn dyz        
 
 Vector   68  Occ=0.000000D+00  E= 7.040135D+00
              MO Center=  6.1D-08, -8.5D-07, -2.6D-08, r^2= 4.4D-01
   Bfn.  Coefficient  Atom+Function         Bfn.  Coefficient  Atom+Function  
  ----- ------------  ---------------      ----- ------------  ---------------
    78      2.892865  1 Mn gyyzz             69      2.837659  1 Mn gxxyy      
    76     -1.231743  1 Mn gyyyy             71     -0.515856  1 Mn gxxzz      
    31      0.286858  1 Mn dyy               80     -0.261073  1 Mn gzzzz      
    66     -0.254980  1 Mn gxxxx             33     -0.141538  1 Mn dzz        
    28     -0.138297  1 Mn dxx               37     -0.074419  1 Mn dyy        
 
 Vector   69  Occ=0.000000D+00  E= 7.887844D+00
              MO Center=  6.9D-07,  1.2D-07, -7.0D-07, r^2= 2.8D-01
   Bfn.  Coefficient  Atom+Function         Bfn.  Coefficient  Atom+Function  
  ----- ------------  ---------------      ----- ------------  ---------------
    51      2.525498  1 Mn fxzz              61     -0.974115  1 Mn fxzz       
    46     -0.848527  1 Mn fxxx              56      0.327135  1 Mn fxxx       
 
 Vector   70  Occ=0.000000D+00  E= 7.887844D+00
              MO Center=  6.9D-07,  1.2D-07, -7.0D-07, r^2= 2.8D-01
   Bfn.  Coefficient  Atom+Function         Bfn.  Coefficient  Atom+Function  
  ----- ------------  ---------------      ----- ------------  ---------------
    48      2.535478  1 Mn fxxz              58     -0.977737  1 Mn fxxz       
    55     -0.838551  1 Mn fzzz              65      0.323513  1 Mn fzzz       
 
 Vector   71  Occ=0.000000D+00  E= 7.892455D+00
              MO Center=  4.5D-07,  4.6D-06, -1.9D-07, r^2= 2.8D-01
   Bfn.  Coefficient  Atom+Function         Bfn.  Coefficient  Atom+Function  
  ----- ------------  ---------------      ----- ------------  ---------------
    47      2.025587  1 Mn fxxy              54      1.094275  1 Mn fyzz       
    52     -1.038950  1 Mn fyyy              57     -0.779132  1 Mn fxxy       
    64     -0.420028  1 Mn fyzz              62      0.402117  1 Mn fyyy       
 
 Vector   72  Occ=0.000000D+00  E= 7.892549D+00
              MO Center=  3.9D-07,  3.4D-06, -3.8D-07, r^2= 2.8D-01
   Bfn.  Coefficient  Atom+Function         Bfn.  Coefficient  Atom+Function  
  ----- ------------  ---------------      ----- ------------  ---------------
    50      4.132455  1 Mn fxyz              60     -1.593419  1 Mn fxyz       
 
 Vector   73  Occ=0.000000D+00  E= 7.892554D+00
              MO Center=  2.6D-07,  3.4D-06, -5.1D-07, r^2= 2.8D-01
   Bfn.  Coefficient  Atom+Function         Bfn.  Coefficient  Atom+Function  
  ----- ------------  ---------------      ----- ------------  ---------------
    54      2.373906  1 Mn fyzz              47     -1.652239  1 Mn fxxy       
    64     -0.914934  1 Mn fyzz              57      0.637492  1 Mn fxxy       
    52     -0.240330  1 Mn fyyy              62      0.092986  1 Mn fyyy       
 
 Vector   74  Occ=0.000000D+00  E= 7.892771D+00
              MO Center=  5.6D-07,  4.1D-06, -1.3D-07, r^2= 2.8D-01
   Bfn.  Coefficient  Atom+Function         Bfn.  Coefficient  Atom+Function  
  ----- ------------  ---------------      ----- ------------  ---------------
    49      2.612847  1 Mn fxyy              59     -1.010231  1 Mn fxyy       
    51     -0.673458  1 Mn fxzz              46     -0.647604  1 Mn fxxx       
    61      0.256477  1 Mn fxzz              56      0.246502  1 Mn fxxx       
 
 Vector   75  Occ=0.000000D+00  E= 7.892778D+00
              MO Center=  1.1D-07,  4.1D-06, -5.6D-07, r^2= 2.8D-01
   Bfn.  Coefficient  Atom+Function         Bfn.  Coefficient  Atom+Function  
  ----- ------------  ---------------      ----- ------------  ---------------
    53      2.612858  1 Mn fyyz              63     -1.010135  1 Mn fyyz       
    55     -0.660439  1 Mn fzzz              48     -0.634917  1 Mn fxxz       
    65      0.251552  1 Mn fzzz              58      0.241705  1 Mn fxxz       
 
 Vector   76  Occ=0.000000D+00  E= 1.626311D+01
              MO Center=  7.2D-08,  2.1D-07, -3.3D-08, r^2= 3.2D-01
   Bfn.  Coefficient  Atom+Function         Bfn.  Coefficient  Atom+Function  
  ----- ------------  ---------------      ----- ------------  ---------------
    13      4.641677  1 Mn px                10      3.490897  1 Mn px         
    46     -3.173038  1 Mn fxxx              49     -3.173460  1 Mn fxyy       
    51     -3.173038  1 Mn fxzz              56     -2.811764  1 Mn fxxx       
    59     -2.811713  1 Mn fxyy              61     -2.811771  1 Mn fxzz       
     7     -0.815287  1 Mn px                16      0.361407  1 Mn px         
 
 Vector   77  Occ=0.000000D+00  E= 1.626313D+01
              MO Center=  3.1D-08,  2.1D-07, -7.3D-08, r^2= 3.2D-01
   Bfn.  Coefficient  Atom+Function         Bfn.  Coefficient  Atom+Function  
  ----- ------------  ---------------      ----- ------------  ---------------
    15      4.641794  1 Mn pz                12      3.490871  1 Mn pz         
    48     -3.173047  1 Mn fxxz              53     -3.173470  1 Mn fyyz       
    55     -3.173046  1 Mn fzzz              58     -2.811838  1 Mn fxxz       
    63     -2.811783  1 Mn fyyz              65     -2.811845  1 Mn fzzz       
     9     -0.815285  1 Mn pz                18      0.361431  1 Mn pz         
 
 Vector   78  Occ=0.000000D+00  E= 1.626732D+01
              MO Center=  3.7D-08,  5.6D-07, -4.2D-08, r^2= 3.2D-01
   Bfn.  Coefficient  Atom+Function         Bfn.  Coefficient  Atom+Function  
  ----- ------------  ---------------      ----- ------------  ---------------
    14      4.646804  1 Mn py                11      3.489581  1 Mn py         
    47     -3.173227  1 Mn fxxy              52     -3.173650  1 Mn fyyy       
    54     -3.173228  1 Mn fyzz              57     -2.814977  1 Mn fxxy       
    62     -2.814811  1 Mn fyyy              64     -2.814980  1 Mn fyzz       
     8     -0.815155  1 Mn py                17      0.362297  1 Mn py         
 
 Vector   79  Occ=0.000000D+00  E= 5.252592D+01
              MO Center=  4.4D-09,  3.3D-08, -6.0D-09, r^2= 1.3D-01
   Bfn.  Coefficient  Atom+Function         Bfn.  Coefficient  Atom+Function  
  ----- ------------  ---------------      ----- ------------  ---------------
     3     32.379406  1 Mn s                 22    -18.137277  1 Mn dxx        
    25    -18.137208  1 Mn dyy               27    -18.137276  1 Mn dzz        
     4      8.583282  1 Mn s                  2      6.090613  1 Mn s          
    28     -2.092708  1 Mn dxx               31     -2.092664  1 Mn dyy        
    33     -2.092711  1 Mn dzz                5     -1.437171  1 Mn s          
 
 Vector   80  Occ=0.000000D+00  E= 1.030794D+02
              MO Center=  1.5D-08,  1.4D-07, -1.6D-08, r^2= 2.8D-01
   Bfn.  Coefficient  Atom+Function         Bfn.  Coefficient  Atom+Function  
  ----- ------------  ---------------      ----- ------------  ---------------
     4     90.655535  1 Mn s                  3    -43.306141  1 Mn s          
    28    -14.811245  1 Mn dxx               31    -14.810860  1 Mn dyy        
    33    -14.811237  1 Mn dzz                2    -13.794455  1 Mn s          
    69    -12.161034  1 Mn gxxyy             71    -12.160789  1 Mn gxxzz      
    78    -12.161039  1 Mn gyyzz             66     -6.080392  1 Mn gxxxx      
 

   alpha - beta orbital overlaps 
   ----------------------------- 


   alpha      1      2      3      4      5      6      7      8      9     10
    beta      1      2      4      5      3      6      8      7      9     13
 overlap   1.000  1.000  1.000  1.000  1.000  1.000  1.000  1.000  1.000  0.994


   alpha     11     12     13     14     15     16     17     18     19     20
    beta     12     14     15     11     10     18     17     16     19     24
 overlap   0.994  0.992  0.992  0.973  0.974  0.997  0.997  0.998  0.992  0.994


   alpha     21     22     23     24     25     26     27     28     29     30
    beta     23     22     21     20     25     28     27     26     34     33
 overlap   0.994  0.992  0.992  0.992  0.993  0.996  0.996  0.998  0.998  0.998


   alpha     31     32     33     34     35     36     37     38     39     40
    beta     32     31     30     29     35     36     37     41     42     43
 overlap   0.998  0.998  0.984  0.983  0.999  0.999  0.999  1.000  0.999  1.000


   alpha     41     42     43     44     45     46     47     48     49     50
    beta     44     40     39     38     45     47     46     49     50     48
 overlap   1.000  0.999  1.000  1.000  0.999  1.000  1.000  1.000  1.000  1.000


   alpha     51     52     53     54     55     56     57     58     59     60
    beta     51     52     53     54     56     55     57     58     59     60
 overlap   1.000  1.000  1.000  1.000  1.000  1.000  1.000  1.000  1.000  1.000


   alpha     61     62     63     64     65     66     67     68     69     70
    beta     61     62     63     64     65     66     67     68     73     72
 overlap   1.000  1.000  1.000  1.000  1.000  1.000  1.000  1.000  0.980  1.000


   alpha     71     72     73     74     75     76     77     78     79     80
    beta     70     69     75     74     71     77     76     78     79     80
 overlap   0.999  0.999  0.999  0.999  0.980  1.000  1.000  1.000  1.000  1.000


     --------------------------
     Expectation value of S2:  
     --------------------------
      <S2> =      8.7647 (Exact =     8.7500)
 

 Parallel integral file used      21 records with       0 large values


 Task  times  cpu:      490.7s     wall:      977.0s
 
 
                                NWChem Input Module
                                -------------------
 
 
 Summary of allocated global arrays
-----------------------------------
  No active global arrays



                         GA Statistics for process    0
                         ------------------------------

       create   destroy   get      put      acc     scatter   gather  read&inc
calls: 3547     3547     3.08e+04 2.38e+04 4685        0        0       55     
number of processes/call 1.04e+00 1.01e+00 1.41e+00 0.00e+00 0.00e+00
bytes total:             5.86e+08 2.20e+08 2.40e+08 0.00e+00 0.00e+00 4.40e+02
bytes remote:            1.50e+07 4.31e+06 2.43e+07 0.00e+00 0.00e+00 0.00e+00
Max memory consumed for GA by this process: 3328000 bytes
 
MA_summarize_allocated_blocks: starting scan ...
MA_summarize_allocated_blocks: scan completed: 0 heap blocks, 0 stack blocks
MA usage statistics:

	allocation statistics:
					      heap	     stack
					      ----	     -----
	current number of blocks	         0	         0
	maximum number of blocks	        21	        51
	current total bytes		         0	         0
	maximum total bytes		  23284792	  29277432
	maximum total K-bytes		     23285	     29278
	maximum total M-bytes		        24	        30
 
 
                                     CITATION
                                     --------
                Please cite the following reference when publishing
                           results obtained with NWChem:
 
                 M. Valiev, E.J. Bylaska, N. Govind, K. Kowalski,
              T.P. Straatsma, H.J.J. van Dam, D. Wang, J. Nieplocha,
                        E. Apra, T.L. Windus, W.A. de Jong
                 "NWChem: a comprehensive and scalable open-source
                  solution for large scale molecular simulations"
                      Comput. Phys. Commun. 181, 1477 (2010)
                           doi:10.1016/j.cpc.2010.04.018
 
                                      AUTHORS
                                      -------
          E. Apra, E. J. Bylaska, W. A. de Jong, N. Govind, K. Kowalski,
       T. P. Straatsma, M. Valiev, H. J. J. van Dam, D. Wang, T. L. Windus,
        J. Hammond, J. Autschbach, K. Bhaskaran-Nair, J. Brabec, K. Lopata,
    S. A. Fischer, S. Krishnamoorthy, M. Jacquelin, W. Ma, M. Klemm, O. Villa,
      Y. Chen, V. Anisimov, F. Aquino, S. Hirata, M. T. Hackler, V. Konjkov,
            D. Mejia-Rodriguez, T. Risthaus, M. Malagoli, A. Marenich,
   A. Otero-de-la-Roza, J. Mullin, P. Nichols, R. Peverati, J. Pittner, Y. Zhao,
        P.-D. Fan, A. Fonari, M. J. Williamson, R. J. Harrison, J. R. Rehr,
      M. Dupuis, D. Silverstein, D. M. A. Smith, J. Nieplocha, V. Tipparaju,
    M. Krishnan, B. E. Van Kuiken, A. Vazquez-Mayagoitia, L. Jensen, M. Swart,
      Q. Wu, T. Van Voorhis, A. A. Auer, M. Nooijen, L. D. Crosby, E. Brown,
      G. Cisneros, G. I. Fann, H. Fruchtl, J. Garza, K. Hirao, R. A. Kendall,
      J. A. Nichols, K. Tsemekhman, K. Wolinski, J. Anchell, D. E. Bernholdt,
      P. Borowski, T. Clark, D. Clerc, H. Dachsel, M. J. O. Deegan, K. Dyall,
    D. Elwood, E. Glendening, M. Gutowski, A. C. Hess, J. Jaffe, B. G. Johnson,
     J. Ju, R. Kobayashi, R. Kutteh, Z. Lin, R. Littlefield, X. Long, B. Meng,
      T. Nakajima, S. Niu, L. Pollack, M. Rosing, K. Glaesemann, G. Sandrone,
      M. Stave, H. Taylor, G. Thomas, J. H. van Lenthe, A. T. Wong, Z. Zhang.

 Total times  cpu:      490.7s     wall:      977.1s
