  NWChem w/ OpenMP: maximum threads =  1
                                         
                                         
 
 
              Northwest Computational Chemistry Package (NWChem) 6.8
              ------------------------------------------------------
 
 
                    Environmental Molecular Sciences Laboratory
                       Pacific Northwest National Laboratory
                                Richland, WA 99352
 
                              Copyright (c) 1994-2017
                       Pacific Northwest National Laboratory
                            Battelle Memorial Institute
 
             NWChem is an open-source computational chemistry package
                        distributed under the terms of the
                      Educational Community License (ECL) 2.0
             A copy of the license is included with this distribution
                              in the LICENSE.TXT file
 
                                  ACKNOWLEDGMENT
                                  --------------

            This software and its documentation were developed at the
            EMSL at Pacific Northwest National Laboratory, a multiprogram
            national laboratory, operated for the U.S. Department of Energy
            by Battelle under Contract Number DE-AC05-76RL01830. Support
            for this work was provided by the Department of Energy Office
            of Biological and Environmental Research, Office of Basic
            Energy Sciences, and the Office of Advanced Scientific Computing.


           Job information
           ---------------

    hostname        = kohn
    program         = nwchem
    date            = Wed Sep 26 21:47:00 2018

    compiled        = Wed_Sep_26_21:04:37_2018
    source          = /home/kohn/softwares/nwchem/nwchem-6.8
    nwchem branch   = 6.8
    nwchem revision = v6.8-47-gdf6c956
    ga revision     = ga-5.6.3
    use scalapack   = F
    input           = nwchem.nw
    prefix          = O.
    data base       = ./O.db
    status          = startup
    nproc           =        4
    time left       =     -1s



           Memory information
           ------------------

    heap     =   13107200 doubles =    100.0 Mbytes
    stack    =   13107197 doubles =    100.0 Mbytes
    global   =   26214400 doubles =    200.0 Mbytes (distinct from heap & stack)
    total    =   52428797 doubles =    400.0 Mbytes
    verify   = yes
    hardfail = no 


           Directory information
           ---------------------
 
  0 permanent = .
  0 scratch   = .
 
 
 
 
                                NWChem Input Module
                                -------------------
 
 

 Scaling coordinates for geometry "geometry" by  1.889725989
 (inverse scale =  0.529177249)

 
 
                             Geometry "geometry" -> ""
                             -------------------------
 
 Output coordinates in angstroms (scale by  1.889725989 to convert to a.u.)
 
  No.       Tag          Charge          X              Y              Z
 ---- ---------------- ---------- -------------- -------------- --------------
    1 O                    8.0000     0.00000000     0.00000000     0.00000000
 
      Atomic Mass 
      ----------- 
 
      O                 15.994910
 

 Effective nuclear repulsion energy (a.u.)       0.0000000000

            Nuclear Dipole moment (a.u.) 
            ----------------------------
        X                 Y               Z
 ---------------- ---------------- ----------------
     0.0000000000     0.0000000000     0.0000000000
 
 
            XYZ format geometry
            -------------------
     1
 geometry
 O                     0.00000000     0.00000000     0.00000000
 


 Summary of "ao basis" -> "" (cartesian)
 ------------------------------------------------------------------------------
       Tag                 Description            Shells   Functions and Types
 ---------------- ------------------------------  ------  ---------------------
 *                         def2-TZVPP                 on all atoms 


 
                                 NWChem DFT Module
                                 -----------------
 
 
                      Basis "ao basis" -> "ao basis" (cartesian)
                      -----
  O (Oxygen)
  ----------
            Exponent  Coefficients 
       -------------- ---------------------------------------------------------
  1 S  2.70323826E+04  0.000217
  1 S  4.05238714E+03  0.001684
  1 S  9.22327227E+02  0.008740
  1 S  2.61240710E+02  0.035240
  1 S  8.53546414E+01  0.111535
  1 S  3.10350352E+01  0.255890
 
  2 S  1.22608607E+01  0.397687
  2 S  4.99870760E+00  0.246278
 
  3 S  1.17031082E+00  1.000000
 
  4 S  4.64747410E-01  1.000000
 
  5 S  1.85045364E-01  1.000000
 
  6 P  6.32749548E+01  0.006069
  6 P  1.46270494E+01  0.041913
  6 P  4.45012235E+00  0.161538
  6 P  1.52757996E+00  0.357070
 
  7 P  5.29351179E-01  1.000000
 
  8 P  1.74784213E-01  1.000000
 
  9 D  2.31400000E+00  1.000000
 
 10 D  6.45000000E-01  1.000000
 
 11 F  1.42800000E+00  1.000000
 


 Summary of "ao basis" -> "ao basis" (cartesian)
 ------------------------------------------------------------------------------
       Tag                 Description            Shells   Functions and Types
 ---------------- ------------------------------  ------  ---------------------
 O                         def2-TZVPP               11       36   5s3p2d1f




 Summary of "ao basis" -> "ao basis" (cartesian)
 ------------------------------------------------------------------------------
       Tag                 Description            Shells   Functions and Types
 ---------------- ------------------------------  ------  ---------------------
 O                         def2-TZVPP               11       36   5s3p2d1f


  Caching 1-el integrals 
 
            General Information
            -------------------
          SCF calculation type: DFT
          Wavefunction type:  spin polarized.
          No. of atoms     :     1
          No. of electrons :     8
           Alpha electrons :     5
            Beta electrons :     3
          Charge           :     0
          Spin multiplicity:     3
          Use of symmetry is: off; symmetry adaption is: off
          Maximum number of iterations: ***
          AO basis - number of functions:    36
                     number of shells:    11
          Convergence on energy requested:  1.00D-06
          Convergence on density requested:  1.00D-05
          Convergence on gradient requested:  5.00D-04
 
              XC Information
              --------------
                  TPSS metaGGA Exchange Functional  1.000          
             TPSS03 metaGGA Correlation Functional  1.000          
 
             Grid Information
             ----------------
          Grid used for XC integration:  medium    
          Radial quadrature: Mura-Knowles        
          Angular quadrature: Lebedev. 
          Tag              B.-S. Rad. Rad. Pts. Rad. Cut. Ang. Pts.
          ---              ---------- --------- --------- ---------
          O                   0.60       49           4.0       434
          Grid pruning is: on 
          Number of quadrature shells:    49
          Spatial weights used:  Erf1
 
          Convergence Information
          -----------------------
          Convergence aids based upon iterative change in 
          total energy or number of iterations. 
          Levelshifting, if invoked, occurs when the 
          HOMO/LUMO gap drops below (HL_TOL):  1.00D-02
          DIIS, if invoked, will attempt to extrapolate 
          using up to (NFOCK): 10 stored Fock matrices.

                    Damping( 0%)  Levelshifting(0.5)       DIIS
                  --------------- ------------------- ---------------
          dE  on:    start            ASAP                start   
          dE off:    2 iters        *** iters           *** iters 

 
      Screening Tolerance Information
      -------------------------------
          Density screening/tol_rho:  1.00D-10
          AO Gaussian exp screening on grid/accAOfunc:  14
          CD Gaussian exp screening on grid/accCDfunc:  20
          XC Gaussian exp screening on grid/accXCfunc:  20
          Schwarz screening/accCoul:  1.00D-08

 
      Superposition of Atomic Density Guess
      -------------------------------------
 
 Sum of atomic energies:         -74.78430725
 
      Non-variational initial energy
      ------------------------------

 Total energy =     -74.282230
 1-e energy   =    -103.235260
 2-e energy   =      28.953029
 HOMO         =      -0.375170
 LUMO         =      -0.375170
 
   Time after variat. SCF:      1.6
   Time prior to 1st pass:      1.6

 #quartets = 2.211D+03 #integrals = 4.157D+04 #direct =  0.0% #cached =100.0%


 Integral file          = ./O.aoints.0
 Record size in doubles =    65536    No. of integs per rec  =    43688
 Max. records in memory =        3    Max. records in file   =  1478997
 No. of bits per label  =        8    No. of bits per value  =       64


File balance: exchanges=     0  moved=     0  time=   0.0


 Grid_pts file          = ./O.gridpts.0
 Record size in doubles =  12289        No. of grid_pts per rec  =   3070
 Max. records in memory =      3        Max. recs in file   =   7887347


           Memory utilization after 1st SCF pass: 
           Heap Space remaining (MW):       12.87            12871624
          Stack Space remaining (MW):       13.11            13106788

   convergence    iter        energy       DeltaE   RMS-Dens  Diis-err    time
 ---------------- ----- ----------------- --------- --------- ---------  ------
 d= 0,ls=0.0,diis     1    -75.0775547839 -7.51D+01  7.58D-03  1.55D-01     2.8
                                                     2.79D-03  4.87D-02
 d= 0,ls=0.0,diis     2    -75.0874896203 -9.93D-03  3.68D-03  6.72D-02     3.5
                                                     3.13D-03  4.19D-02
 d= 0,ls=0.0,diis     3    -75.1045930509 -1.71D-02  7.00D-04  2.66D-03     4.4
                                                     4.13D-04  8.94D-04
 d= 0,ls=0.0,diis     4    -75.1052055515 -6.13D-04  1.02D-05  9.84D-07     4.9
                                                     3.60D-05  5.25D-06
 d= 0,ls=0.0,diis     5    -75.1052069476 -1.40D-06  4.91D-06  8.07D-08     6.0
                                                     2.16D-06  5.25D-09
 d= 0,ls=0.0,diis     6    -75.1052069702 -2.26D-08  4.21D-07  4.21D-10     6.8
                                                     7.92D-07  1.11D-09


         Total DFT energy =      -75.105206970193
      One electron energy =     -103.235065900093
           Coulomb energy =       36.618454849660
          Exchange energy =       -8.251528229073
       Correlation energy =       -0.237067690687
 Nuclear repulsion energy =        0.000000000000

 Numeric. integr. density =        7.999999865009

     Total iterative time =      5.3s


 
                    DFT Final Alpha Molecular Orbital Analysis
                    ------------------------------------------
 
 Vector    1  Occ=1.000000D+00  E=-1.902957D+01
              MO Center=  2.5D-18,  2.2D-18, -6.7D-18, r^2= 1.5D-02
   Bfn.  Coefficient  Atom+Function         Bfn.  Coefficient  Atom+Function  
  ----- ------------  ---------------      ----- ------------  ---------------
     2      0.637196  1 O  s                  1      0.435360  1 O  s          
     4     -0.097357  1 O  s                  3      0.081003  1 O  s          
 
 Vector    2  Occ=1.000000D+00  E=-9.448891D-01
              MO Center=  4.1D-16, -1.6D-15, -7.7D-16, r^2= 4.3D-01
   Bfn.  Coefficient  Atom+Function         Bfn.  Coefficient  Atom+Function  
  ----- ------------  ---------------      ----- ------------  ---------------
     3      0.450437  1 O  s                  4      0.429410  1 O  s          
     2     -0.262147  1 O  s                  5      0.190298  1 O  s          
     1     -0.111606  1 O  s                 21      0.037620  1 O  dxx        
    24      0.037508  1 O  dyy        
 
 Vector    3  Occ=1.000000D+00  E=-4.024725D-01
              MO Center=  5.8D-17,  2.6D-15,  3.5D-16, r^2= 5.3D-01
   Bfn.  Coefficient  Atom+Function         Bfn.  Coefficient  Atom+Function  
  ----- ------------  ---------------      ----- ------------  ---------------
     7      0.524964  1 O  py                10      0.437608  1 O  py         
    13      0.236634  1 O  py                 8      0.036827  1 O  pz         
    11      0.030699  1 O  pz         
 
 Vector    4  Occ=1.000000D+00  E=-4.024725D-01
              MO Center= -7.5D-16, -5.9D-17,  1.7D-16, r^2= 5.3D-01
   Bfn.  Coefficient  Atom+Function         Bfn.  Coefficient  Atom+Function  
  ----- ------------  ---------------      ----- ------------  ---------------
     6      0.526242  1 O  px                 9      0.438673  1 O  px         
    12      0.237210  1 O  px         
 
 Vector    5  Occ=1.000000D+00  E=-3.223656D-01
              MO Center=  2.7D-17, -1.9D-16,  1.1D-15, r^2= 5.8D-01
   Bfn.  Coefficient  Atom+Function         Bfn.  Coefficient  Atom+Function  
  ----- ------------  ---------------      ----- ------------  ---------------
     8      0.508960  1 O  pz                11      0.423303  1 O  pz         
    14      0.279532  1 O  pz                 7     -0.035735  1 O  py         
    10     -0.029721  1 O  py         
 
 Vector    6  Occ=0.000000D+00  E= 2.739898D-01
              MO Center= -7.2D-15, -1.2D-14,  2.8D-15, r^2= 2.2D+00
   Bfn.  Coefficient  Atom+Function         Bfn.  Coefficient  Atom+Function  
  ----- ------------  ---------------      ----- ------------  ---------------
     5      2.114000  1 O  s                  3     -1.357534  1 O  s          
     4      1.003146  1 O  s                 21     -0.808111  1 O  dxx        
    24     -0.808111  1 O  dyy               26     -0.808215  1 O  dzz        
     2      0.118864  1 O  s                  1      0.057012  1 O  s          
    15     -0.052938  1 O  dxx               18     -0.052899  1 O  dyy        
 
 Vector    7  Occ=0.000000D+00  E= 3.437616D-01
              MO Center= -1.4D-16,  1.1D-14,  7.9D-16, r^2= 2.5D+00
   Bfn.  Coefficient  Atom+Function         Bfn.  Coefficient  Atom+Function  
  ----- ------------  ---------------      ----- ------------  ---------------
    13      1.335270  1 O  py                10     -0.929719  1 O  py         
     7     -0.268147  1 O  py                35      0.155774  1 O  fyzz       
    28      0.148018  1 O  fxxy              33      0.148056  1 O  fyyy       
    14      0.093892  1 O  pz                11     -0.065375  1 O  pz         
 
 Vector    8  Occ=0.000000D+00  E= 3.437616D-01
              MO Center=  7.6D-15, -1.4D-18,  1.4D-16, r^2= 2.5D+00
   Bfn.  Coefficient  Atom+Function         Bfn.  Coefficient  Atom+Function  
  ----- ------------  ---------------      ----- ------------  ---------------
    12      1.338536  1 O  px                 9     -0.931994  1 O  px         
     6     -0.268803  1 O  px                32      0.156232  1 O  fxzz       
    27      0.148380  1 O  fxxx              30      0.148418  1 O  fxyy       
 
 Vector    9  Occ=0.000000D+00  E= 3.702514D-01
              MO Center=  3.3D-17,  1.8D-16, -3.4D-15, r^2= 2.4D+00
   Bfn.  Coefficient  Atom+Function         Bfn.  Coefficient  Atom+Function  
  ----- ------------  ---------------      ----- ------------  ---------------
    14      1.336537  1 O  pz                11     -0.976459  1 O  pz         
     8     -0.276186  1 O  pz                36      0.161961  1 O  fzzz       
    29      0.153070  1 O  fxxz              34      0.153201  1 O  fyyz       
    13     -0.093839  1 O  py                10      0.068558  1 O  py         
 
 Vector   10  Occ=0.000000D+00  E= 1.321344D+00
              MO Center=  9.3D-16,  7.5D-17,  1.3D-17, r^2= 7.6D-01
   Bfn.  Coefficient  Atom+Function         Bfn.  Coefficient  Atom+Function  
  ----- ------------  ---------------      ----- ------------  ---------------
    21      0.862999  1 O  dxx               24     -0.858771  1 O  dyy        
    25     -0.121082  1 O  dyz               22      0.072605  1 O  dxy        
 
 Vector   11  Occ=0.000000D+00  E= 1.321344D+00
              MO Center= -1.7D-16,  1.0D-16, -6.8D-17, r^2= 7.6D-01
   Bfn.  Coefficient  Atom+Function         Bfn.  Coefficient  Atom+Function  
  ----- ------------  ---------------      ----- ------------  ---------------
    22      1.721765  1 O  dxy               23      0.121374  1 O  dxz        
    24      0.036621  1 O  dyy               21     -0.035982  1 O  dxx        
 
 Vector   12  Occ=0.000000D+00  E= 1.363443D+00
              MO Center=  2.5D-17,  4.2D-17, -9.7D-16, r^2= 7.6D-01
   Bfn.  Coefficient  Atom+Function         Bfn.  Coefficient  Atom+Function  
  ----- ------------  ---------------      ----- ------------  ---------------
    25      1.713667  1 O  dyz               24     -0.120914  1 O  dyy        
    26      0.120649  1 O  dzz               23      0.040006  1 O  dxz        
 
 Vector   13  Occ=0.000000D+00  E= 1.363443D+00
              MO Center=  6.3D-16,  8.3D-17, -5.5D-16, r^2= 7.6D-01
   Bfn.  Coefficient  Atom+Function         Bfn.  Coefficient  Atom+Function  
  ----- ------------  ---------------      ----- ------------  ---------------
    23      1.726222  1 O  dxz               22     -0.121466  1 O  dxy        
    25     -0.037270  1 O  dyz        
 
 Vector   14  Occ=0.000000D+00  E= 1.379185D+00
              MO Center= -6.7D-17,  4.2D-16, -6.3D-16, r^2= 7.6D-01
   Bfn.  Coefficient  Atom+Function         Bfn.  Coefficient  Atom+Function  
  ----- ------------  ---------------      ----- ------------  ---------------
    26      0.949553  1 O  dzz               21     -0.542823  1 O  dxx        
    24     -0.535534  1 O  dyy               25     -0.209574  1 O  dyz        
     4      0.099688  1 O  s                  5      0.029765  1 O  s          
 
 Vector   15  Occ=0.000000D+00  E= 1.860630D+00
              MO Center=  2.4D-16, -6.1D-14, -3.5D-15, r^2= 1.3D+00
   Bfn.  Coefficient  Atom+Function         Bfn.  Coefficient  Atom+Function  
  ----- ------------  ---------------      ----- ------------  ---------------
    10      2.734453  1 O  py                 7     -1.021058  1 O  py         
    13     -0.972580  1 O  py                28     -0.765427  1 O  fxxy       
    33     -0.765432  1 O  fyyy              35     -0.766539  1 O  fyzz       
    11      0.192097  1 O  pz                 8     -0.071730  1 O  pz         
    14     -0.068324  1 O  pz                29     -0.053772  1 O  fxxz       
 
 Vector   16  Occ=0.000000D+00  E= 1.860630D+00
              MO Center= -1.6D-15, -2.3D-16, -9.8D-17, r^2= 1.3D+00
   Bfn.  Coefficient  Atom+Function         Bfn.  Coefficient  Atom+Function  
  ----- ------------  ---------------      ----- ------------  ---------------
     9      2.741129  1 O  px                 6     -1.023551  1 O  px         
    12     -0.974955  1 O  px                27     -0.767296  1 O  fxxx       
    30     -0.767301  1 O  fxyy              32     -0.768422  1 O  fxzz       
 
 Vector   17  Occ=0.000000D+00  E= 1.909333D+00
              MO Center= -4.5D-16, -1.1D-15,  1.4D-14, r^2= 1.3D+00
   Bfn.  Coefficient  Atom+Function         Bfn.  Coefficient  Atom+Function  
  ----- ------------  ---------------      ----- ------------  ---------------
    11      2.733039  1 O  pz                 8     -1.024329  1 O  pz         
    14     -0.962084  1 O  pz                29     -0.772466  1 O  fxxz       
    34     -0.772479  1 O  fyyz              36     -0.773357  1 O  fzzz       
    10     -0.191888  1 O  py                 7      0.071919  1 O  py         
    13      0.067548  1 O  py                28      0.054235  1 O  fxxy       
 
 Vector   18  Occ=0.000000D+00  E= 1.942273D+00
              MO Center=  1.7D-15,  5.9D-14, -9.9D-15, r^2= 1.3D+00
   Bfn.  Coefficient  Atom+Function         Bfn.  Coefficient  Atom+Function  
  ----- ------------  ---------------      ----- ------------  ---------------
     4      9.676621  1 O  s                  3     -4.215110  1 O  s          
    26     -3.610297  1 O  dzz               21     -3.588739  1 O  dxx        
    24     -3.588844  1 O  dyy                5      1.580933  1 O  s          
     2     -0.324684  1 O  s                 20     -0.192860  1 O  dzz        
    15     -0.176353  1 O  dxx               18     -0.176433  1 O  dyy        
 
 Vector   19  Occ=0.000000D+00  E= 4.959680D+00
              MO Center=  1.7D-16,  1.6D-16,  1.0D-17, r^2= 4.4D-01
   Bfn.  Coefficient  Atom+Function         Bfn.  Coefficient  Atom+Function  
  ----- ------------  ---------------      ----- ------------  ---------------
    30      2.283735  1 O  fxyy              27     -0.765151  1 O  fxxx       
    28     -0.595560  1 O  fxxy              31      0.328744  1 O  fxyz       
    33      0.198274  1 O  fyyy              29     -0.026290  1 O  fxxz       
    34      0.026318  1 O  fyyz       
 
 Vector   20  Occ=0.000000D+00  E= 4.959680D+00
              MO Center=  4.8D-16, -5.6D-17, -7.2D-18, r^2= 4.4D-01
   Bfn.  Coefficient  Atom+Function         Bfn.  Coefficient  Atom+Function  
  ----- ------------  ---------------      ----- ------------  ---------------
    28      2.289587  1 O  fxxy              33     -0.759299  1 O  fyyy       
    30      0.595192  1 O  fxyy              27     -0.198642  1 O  fxxx       
    29      0.164786  1 O  fxxz              34     -0.163960  1 O  fyyz       
    31      0.052608  1 O  fxyz       
 
 Vector   21  Occ=0.000000D+00  E= 5.003737D+00
              MO Center= -2.9D-17,  3.6D-16,  6.6D-17, r^2= 4.4D-01
   Bfn.  Coefficient  Atom+Function         Bfn.  Coefficient  Atom+Function  
  ----- ------------  ---------------      ----- ------------  ---------------
    29      1.931385  1 O  fxxz              34     -1.903178  1 O  fyyz       
    35     -0.269466  1 O  fyzz              28     -0.135403  1 O  fxxy       
    33      0.134956  1 O  fyyy              31      0.031557  1 O  fxyz       
 
 Vector   22  Occ=0.000000D+00  E= 5.003737D+00
              MO Center=  1.4D-16, -3.7D-16,  1.7D-16, r^2= 4.4D-01
   Bfn.  Coefficient  Atom+Function         Bfn.  Coefficient  Atom+Function  
  ----- ------------  ---------------      ----- ------------  ---------------
    31      3.834507  1 O  fxyz              30     -0.270459  1 O  fxyy       
    32      0.270764  1 O  fxzz              28      0.027116  1 O  fxxy       
 
 Vector   23  Occ=0.000000D+00  E= 5.030342D+00
              MO Center= -5.0D-17, -1.9D-16, -6.9D-18, r^2= 4.4D-01
   Bfn.  Coefficient  Atom+Function         Bfn.  Coefficient  Atom+Function  
  ----- ------------  ---------------      ----- ------------  ---------------
    35      2.308109  1 O  fyzz              28     -0.697617  1 O  fxxy       
    33     -0.682740  1 O  fyyy              34     -0.474137  1 O  fyyz       
    36      0.163873  1 O  fzzz              10      0.121472  1 O  py         
    29     -0.048163  1 O  fxxz              32      0.044686  1 O  fxzz       
     7      0.033979  1 O  py                31      0.033239  1 O  fxyz       
 
 Vector   24  Occ=0.000000D+00  E= 5.030342D+00
              MO Center= -5.7D-17, -2.1D-18, -4.3D-17, r^2= 4.4D-01
   Bfn.  Coefficient  Atom+Function         Bfn.  Coefficient  Atom+Function  
  ----- ------------  ---------------      ----- ------------  ---------------
    32      2.343342  1 O  fxzz              27     -0.699262  1 O  fxxx       
    30     -0.684350  1 O  fxyy              31     -0.428009  1 O  fxyz       
     9      0.121767  1 O  px                29      0.046744  1 O  fxxz       
    35     -0.037189  1 O  fyzz               6      0.034062  1 O  px         
    12     -0.027727  1 O  px         
 
 Vector   25  Occ=0.000000D+00  E= 5.039285D+00
              MO Center= -5.0D-17,  2.4D-16, -1.8D-16, r^2= 4.4D-01
   Bfn.  Coefficient  Atom+Function         Bfn.  Coefficient  Atom+Function  
  ----- ------------  ---------------      ----- ------------  ---------------
    29      1.590678  1 O  fxxz              34      1.554365  1 O  fyyz       
    36     -0.887358  1 O  fzzz              35      0.410330  1 O  fyzz       
    11     -0.134460  1 O  pz                28     -0.111685  1 O  fxxy       
    33     -0.110852  1 O  fyyy              32     -0.039527  1 O  fxzz       
     8     -0.038352  1 O  pz                14      0.030656  1 O  pz         
 
 Vector   26  Occ=0.000000D+00  E= 5.474161D+00
              MO Center= -1.1D-15, -3.9D-14, -3.6D-15, r^2= 6.7D-01
   Bfn.  Coefficient  Atom+Function         Bfn.  Coefficient  Atom+Function  
  ----- ------------  ---------------      ----- ------------  ---------------
    10      2.592477  1 O  py                35     -2.065038  1 O  fyzz       
    28     -1.931733  1 O  fxxy              33     -1.932391  1 O  fyyy       
     7      0.675065  1 O  py                13     -0.575941  1 O  py         
    11      0.181909  1 O  pz                36     -0.144993  1 O  fzzz       
    29     -0.135558  1 O  fxxz              34     -0.116686  1 O  fyyz       
 
 Vector   27  Occ=0.000000D+00  E= 5.474161D+00
              MO Center=  1.5D-14,  3.0D-16, -6.3D-16, r^2= 6.7D-01
   Bfn.  Coefficient  Atom+Function         Bfn.  Coefficient  Atom+Function  
  ----- ------------  ---------------      ----- ------------  ---------------
     9      2.598792  1 O  px                32     -2.071385  1 O  fxzz       
    27     -1.936439  1 O  fxxx              30     -1.937099  1 O  fxyy       
     6      0.676710  1 O  px                12     -0.577344  1 O  px         
 
 Vector   28  Occ=0.000000D+00  E= 5.540645D+00
              MO Center=  3.7D-15, -1.6D-15, -2.2D-17, r^2= 6.7D-01
   Bfn.  Coefficient  Atom+Function         Bfn.  Coefficient  Atom+Function  
  ----- ------------  ---------------      ----- ------------  ---------------
    11      2.578494  1 O  pz                36     -2.002933  1 O  fzzz       
    29     -1.881616  1 O  fxxz              34     -1.883393  1 O  fyyz       
     8      0.678889  1 O  pz                14     -0.571562  1 O  pz         
    10     -0.181037  1 O  py                35      0.157665  1 O  fyzz       
    28      0.132109  1 O  fxxy              33      0.132150  1 O  fyyy       
 
 Vector   29  Occ=0.000000D+00  E= 5.944381D+00
              MO Center=  8.3D-16, -4.7D-16, -8.0D-17, r^2= 3.2D-01
   Bfn.  Coefficient  Atom+Function         Bfn.  Coefficient  Atom+Function  
  ----- ------------  ---------------      ----- ------------  ---------------
    16      2.008288  1 O  dxy               22     -1.034975  1 O  dxy        
    17      0.141688  1 O  dxz               23     -0.073019  1 O  dxz        
    18      0.051297  1 O  dyy               15     -0.050594  1 O  dxx        
    24     -0.026436  1 O  dyy               21      0.026074  1 O  dxx        
 
 Vector   30  Occ=0.000000D+00  E= 5.944381D+00
              MO Center= -9.2D-16,  1.0D-15, -1.7D-17, r^2= 3.2D-01
   Bfn.  Coefficient  Atom+Function         Bfn.  Coefficient  Atom+Function  
  ----- ------------  ---------------      ----- ------------  ---------------
    15      1.006616  1 O  dxx               18     -1.001677  1 O  dyy        
    21     -0.518764  1 O  dxx               24      0.516214  1 O  dyy        
    19     -0.141348  1 O  dyz               16      0.101893  1 O  dxy        
    25      0.072844  1 O  dyz               22     -0.052511  1 O  dxy        
 
 Vector   31  Occ=0.000000D+00  E= 6.010253D+00
              MO Center= -4.9D-15, -1.5D-17,  8.9D-16, r^2= 3.2D-01
   Bfn.  Coefficient  Atom+Function         Bfn.  Coefficient  Atom+Function  
  ----- ------------  ---------------      ----- ------------  ---------------
    17      2.009901  1 O  dxz               23     -1.029943  1 O  dxz        
    16     -0.140714  1 O  dxy               22      0.072107  1 O  dxy        
    19      0.060904  1 O  dyz               25     -0.031209  1 O  dyz        
 
 Vector   32  Occ=0.000000D+00  E= 6.010253D+00
              MO Center= -2.9D-16,  1.7D-15,  1.2D-15, r^2= 3.2D-01
   Bfn.  Coefficient  Atom+Function         Bfn.  Coefficient  Atom+Function  
  ----- ------------  ---------------      ----- ------------  ---------------
    19      1.995134  1 O  dyz               25     -1.022376  1 O  dyz        
    18     -0.140776  1 O  dyy               20      0.141177  1 O  dzz        
    24      0.072136  1 O  dyy               26     -0.072346  1 O  dzz        
    17     -0.058487  1 O  dxz               23      0.029971  1 O  dxz        
 
 Vector   33  Occ=0.000000D+00  E= 6.032048D+00
              MO Center=  1.5D-16,  1.7D-16, -8.7D-16, r^2= 3.3D-01
   Bfn.  Coefficient  Atom+Function         Bfn.  Coefficient  Atom+Function  
  ----- ------------  ---------------      ----- ------------  ---------------
     4      4.668077  1 O  s                  3     -2.417913  1 O  s          
    26     -1.828355  1 O  dzz               20      1.063626  1 O  dzz        
    21     -0.947215  1 O  dxx               24     -0.951519  1 O  dyy        
    15     -0.660108  1 O  dxx               18     -0.651688  1 O  dyy        
    19     -0.242059  1 O  dyz               25      0.123736  1 O  dyz        
 
 Vector   34  Occ=0.000000D+00  E= 6.142256D+00
              MO Center= -1.6D-14,  4.2D-14,  3.9D-15, r^2= 6.6D-01
   Bfn.  Coefficient  Atom+Function         Bfn.  Coefficient  Atom+Function  
  ----- ------------  ---------------      ----- ------------  ---------------
     4     36.717015  1 O  s                  3    -19.247522  1 O  s          
    21     -9.756333  1 O  dxx               24     -9.755779  1 O  dyy        
    26     -9.642869  1 O  dzz               20     -0.756401  1 O  dzz        
    15     -0.542606  1 O  dxx               18     -0.543650  1 O  dyy        
     2      0.275020  1 O  s                  1      0.166915  1 O  s          
 
 Vector   35  Occ=0.000000D+00  E= 1.618702D+01
              MO Center= -1.6D-16,  3.5D-16,  3.9D-17, r^2= 2.9D-01
   Bfn.  Coefficient  Atom+Function         Bfn.  Coefficient  Atom+Function  
  ----- ------------  ---------------      ----- ------------  ---------------
     4     13.557859  1 O  s                 21     -3.892175  1 O  dxx        
    24     -3.892169  1 O  dyy               26     -3.890938  1 O  dzz        
    15     -3.158505  1 O  dxx               18     -3.158519  1 O  dyy        
    20     -3.161376  1 O  dzz                2     -1.839070  1 O  s          
     3      0.501511  1 O  s                  1     -0.229677  1 O  s          
 
 Vector   36  Occ=0.000000D+00  E= 7.123316D+01
              MO Center= -1.6D-17, -2.6D-17,  1.1D-18, r^2= 7.4D-02
   Bfn.  Coefficient  Atom+Function         Bfn.  Coefficient  Atom+Function  
  ----- ------------  ---------------      ----- ------------  ---------------
     3     10.804555  1 O  s                  4     -5.534613  1 O  s          
     2     -4.113048  1 O  s                 15     -2.606750  1 O  dxx        
    18     -2.606749  1 O  dyy               20     -2.606629  1 O  dzz        
     1      1.703311  1 O  s                 21      0.937097  1 O  dxx        
    24      0.937096  1 O  dyy               26      0.937047  1 O  dzz        
 
 
                     DFT Final Beta Molecular Orbital Analysis
                     -----------------------------------------
 
 Vector    1  Occ=1.000000D+00  E=-1.897616D+01
              MO Center=  3.3D-18,  1.3D-18,  3.0D-18, r^2= 1.5D-02
   Bfn.  Coefficient  Atom+Function         Bfn.  Coefficient  Atom+Function  
  ----- ------------  ---------------      ----- ------------  ---------------
     2      0.641506  1 O  s                  1      0.436180  1 O  s          
     4     -0.075120  1 O  s                  3      0.054647  1 O  s          
 
 Vector    2  Occ=1.000000D+00  E=-7.998351D-01
              MO Center= -1.5D-15, -1.4D-15,  8.4D-16, r^2= 4.6D-01
   Bfn.  Coefficient  Atom+Function         Bfn.  Coefficient  Atom+Function  
  ----- ------------  ---------------      ----- ------------  ---------------
     4      0.525189  1 O  s                  3      0.365204  1 O  s          
     2     -0.252036  1 O  s                  5      0.242956  1 O  s          
     1     -0.107945  1 O  s          
 
 Vector    3  Occ=1.000000D+00  E=-2.863541D-01
              MO Center=  1.3D-17,  3.8D-17, -1.2D-15, r^2= 6.1D-01
   Bfn.  Coefficient  Atom+Function         Bfn.  Coefficient  Atom+Function  
  ----- ------------  ---------------      ----- ------------  ---------------
     8      0.494312  1 O  pz                11      0.410266  1 O  pz         
    14      0.304136  1 O  pz                 7     -0.034693  1 O  py         
    10     -0.028796  1 O  py         
 
 Vector    4  Occ=0.000000D+00  E=-2.109357D-01
              MO Center=  3.7D-17,  1.9D-15,  1.6D-16, r^2= 7.0D-01
   Bfn.  Coefficient  Atom+Function         Bfn.  Coefficient  Atom+Function  
  ----- ------------  ---------------      ----- ------------  ---------------
     7      0.465515  1 O  py                10      0.377020  1 O  py         
    13      0.366950  1 O  py                 8      0.032739  1 O  pz         
    11      0.026514  1 O  pz                14      0.025805  1 O  pz         
 
 Vector    5  Occ=0.000000D+00  E=-2.109349D-01
              MO Center=  3.1D-15, -8.8D-17, -1.7D-16, r^2= 7.0D-01
   Bfn.  Coefficient  Atom+Function         Bfn.  Coefficient  Atom+Function  
  ----- ------------  ---------------      ----- ------------  ---------------
     6      0.466653  1 O  px                 9      0.377942  1 O  px         
    12      0.367848  1 O  px         
 
 Vector    6  Occ=0.000000D+00  E= 3.125128D-01
              MO Center=  4.7D-15, -7.9D-15, -8.5D-15, r^2= 2.2D+00
   Bfn.  Coefficient  Atom+Function         Bfn.  Coefficient  Atom+Function  
  ----- ------------  ---------------      ----- ------------  ---------------
     5      2.142377  1 O  s                  3     -1.397318  1 O  s          
     4      1.074368  1 O  s                 21     -0.854372  1 O  dxx        
    24     -0.854386  1 O  dyy               26     -0.857236  1 O  dzz        
     2      0.118147  1 O  s                  1      0.058003  1 O  s          
    20     -0.056065  1 O  dzz               15     -0.050077  1 O  dxx        
 
 Vector    7  Occ=0.000000D+00  E= 3.851208D-01
              MO Center= -1.6D-16, -6.7D-16,  8.9D-15, r^2= 2.4D+00
   Bfn.  Coefficient  Atom+Function         Bfn.  Coefficient  Atom+Function  
  ----- ------------  ---------------      ----- ------------  ---------------
    14      1.338174  1 O  pz                11     -1.004244  1 O  pz         
     8     -0.273530  1 O  pz                29      0.160124  1 O  fxxz       
    34      0.160101  1 O  fyyz              36      0.158542  1 O  fzzz       
    13     -0.093903  1 O  py                10      0.070470  1 O  py         
 
 Vector    8  Occ=0.000000D+00  E= 4.089845D-01
              MO Center= -1.1D-16,  7.6D-15,  5.5D-16, r^2= 2.4D+00
   Bfn.  Coefficient  Atom+Function         Bfn.  Coefficient  Atom+Function  
  ----- ------------  ---------------      ----- ------------  ---------------
    13      1.333071  1 O  py                10     -1.061182  1 O  py         
     7     -0.283387  1 O  py                28      0.168272  1 O  fxxy       
    33      0.168254  1 O  fyyy              35      0.164792  1 O  fyzz       
    14      0.093576  1 O  pz                11     -0.074491  1 O  pz         
 
 Vector    9  Occ=0.000000D+00  E= 4.089851D-01
              MO Center= -4.4D-15, -8.6D-17,  9.3D-17, r^2= 2.4D+00
   Bfn.  Coefficient  Atom+Function         Bfn.  Coefficient  Atom+Function  
  ----- ------------  ---------------      ----- ------------  ---------------
    12      1.336321  1 O  px                 9     -1.063770  1 O  px         
     6     -0.284077  1 O  px                27      0.168681  1 O  fxxx       
    30      0.168665  1 O  fxyy              32      0.165159  1 O  fxzz       
 
 Vector   10  Occ=0.000000D+00  E= 1.424490D+00
              MO Center=  3.2D-17,  5.5D-18, -3.7D-16, r^2= 7.6D-01
   Bfn.  Coefficient  Atom+Function         Bfn.  Coefficient  Atom+Function  
  ----- ------------  ---------------      ----- ------------  ---------------
    25      1.721488  1 O  dyz               24     -0.121475  1 O  dyy        
    26      0.121003  1 O  dzz               23      0.069604  1 O  dxz        
 
 Vector   11  Occ=0.000000D+00  E= 1.424491D+00
              MO Center=  1.3D-15, -1.5D-17,  4.0D-16, r^2= 7.6D-01
   Bfn.  Coefficient  Atom+Function         Bfn.  Coefficient  Atom+Function  
  ----- ------------  ---------------      ----- ------------  ---------------
    23      1.734060  1 O  dxz               22     -0.122218  1 O  dxy        
    25     -0.066641  1 O  dyz        
 
 Vector   12  Occ=0.000000D+00  E= 1.434653D+00
              MO Center=  7.4D-17, -1.4D-16, -3.0D-16, r^2= 7.6D-01
   Bfn.  Coefficient  Atom+Function         Bfn.  Coefficient  Atom+Function  
  ----- ------------  ---------------      ----- ------------  ---------------
    26      1.035900  1 O  dzz               21     -0.462120  1 O  dxx        
    24     -0.454805  1 O  dyy               25     -0.210374  1 O  dyz        
     4     -0.161085  1 O  s                  3      0.075978  1 O  s          
 
 Vector   13  Occ=0.000000D+00  E= 1.450216D+00
              MO Center= -2.5D-16, -4.6D-17,  7.6D-18, r^2= 7.6D-01
   Bfn.  Coefficient  Atom+Function         Bfn.  Coefficient  Atom+Function  
  ----- ------------  ---------------      ----- ------------  ---------------
    21      0.870450  1 O  dxx               24     -0.866222  1 O  dyy        
    25     -0.121620  1 O  dyz        
 
 Vector   14  Occ=0.000000D+00  E= 1.450217D+00
              MO Center=  5.7D-16,  2.2D-16,  3.2D-17, r^2= 7.6D-01
   Bfn.  Coefficient  Atom+Function         Bfn.  Coefficient  Atom+Function  
  ----- ------------  ---------------      ----- ------------  ---------------
    22      1.736670  1 O  dxy               23      0.121898  1 O  dxz        
 
 Vector   15  Occ=0.000000D+00  E= 1.945049D+00
              MO Center= -1.9D-15,  3.7D-15, -5.3D-14, r^2= 1.3D+00
   Bfn.  Coefficient  Atom+Function         Bfn.  Coefficient  Atom+Function  
  ----- ------------  ---------------      ----- ------------  ---------------
    11      2.751020  1 O  pz                 8     -1.022057  1 O  pz         
    14     -0.956729  1 O  pz                36     -0.796450  1 O  fzzz       
    29     -0.792459  1 O  fxxz              34     -0.792518  1 O  fyyz       
    10     -0.192931  1 O  py                 7      0.071675  1 O  py         
    13      0.067096  1 O  py                35      0.056418  1 O  fyzz       
 
 Vector   16  Occ=0.000000D+00  E= 1.984933D+00
              MO Center= -1.4D-15, -7.2D-15, -5.1D-16, r^2= 1.2D+00
   Bfn.  Coefficient  Atom+Function         Bfn.  Coefficient  Atom+Function  
  ----- ------------  ---------------      ----- ------------  ---------------
    10      2.735588  1 O  py                 7     -1.030425  1 O  py         
    13     -0.942041  1 O  py                28     -0.795984  1 O  fxxy       
    33     -0.795973  1 O  fyyy              35     -0.793512  1 O  fyzz       
    11      0.191853  1 O  pz                 8     -0.072268  1 O  pz         
    14     -0.066068  1 O  pz                34     -0.056173  1 O  fyyz       
 
 Vector   17  Occ=0.000000D+00  E= 1.984936D+00
              MO Center=  2.6D-14, -1.8D-16, -5.2D-16, r^2= 1.2D+00
   Bfn.  Coefficient  Atom+Function         Bfn.  Coefficient  Atom+Function  
  ----- ------------  ---------------      ----- ------------  ---------------
     9      2.742247  1 O  px                 6     -1.032933  1 O  px         
    12     -0.944333  1 O  px                27     -0.797926  1 O  fxxx       
    30     -0.797911  1 O  fxyy              32     -0.795421  1 O  fxzz       
 
 Vector   18  Occ=0.000000D+00  E= 2.030395D+00
              MO Center= -2.6D-14,  4.0D-15,  5.2D-14, r^2= 1.3D+00
   Bfn.  Coefficient  Atom+Function         Bfn.  Coefficient  Atom+Function  
  ----- ------------  ---------------      ----- ------------  ---------------
     4     10.162956  1 O  s                  3     -4.449609  1 O  s          
    21     -3.708802  1 O  dxx               24     -3.708817  1 O  dyy        
    26     -3.712031  1 O  dzz                5      1.535219  1 O  s          
     2     -0.323286  1 O  s                 15     -0.190217  1 O  dxx        
    18     -0.190163  1 O  dyy               20     -0.179166  1 O  dzz        
 
 Vector   19  Occ=0.000000D+00  E= 5.106080D+00
              MO Center= -1.8D-16, -4.0D-17, -1.5D-18, r^2= 4.4D-01
   Bfn.  Coefficient  Atom+Function         Bfn.  Coefficient  Atom+Function  
  ----- ------------  ---------------      ----- ------------  ---------------
    28      1.922275  1 O  fxxy              30     -1.374682  1 O  fxyy       
    33     -0.638153  1 O  fyyy              27      0.461125  1 O  fxxx       
    31     -0.220137  1 O  fxyz              29      0.124997  1 O  fxxz       
    34     -0.124451  1 O  fyyz       
 
 Vector   20  Occ=0.000000D+00  E= 5.106080D+00
              MO Center= -1.2D-16, -1.5D-16, -1.0D-17, r^2= 4.4D-01
   Bfn.  Coefficient  Atom+Function         Bfn.  Coefficient  Atom+Function  
  ----- ------------  ---------------      ----- ------------  ---------------
    30      1.918128  1 O  fxyy              28      1.379071  1 O  fxxy       
    27     -0.642134  1 O  fxxx              33     -0.456905  1 O  fyyy       
    31      0.251993  1 O  fxyz              29      0.109342  1 O  fxxz       
    34     -0.108664  1 O  fyyz       
 
 Vector   21  Occ=0.000000D+00  E= 5.108995D+00
              MO Center= -6.1D-17, -1.4D-16, -1.0D-16, r^2= 4.4D-01
   Bfn.  Coefficient  Atom+Function         Bfn.  Coefficient  Atom+Function  
  ----- ------------  ---------------      ----- ------------  ---------------
    31      3.834490  1 O  fxyz              30     -0.271635  1 O  fxyy       
    32      0.270505  1 O  fxzz              28      0.025970  1 O  fxxy       
    35     -0.026037  1 O  fyzz       
 
 Vector   22  Occ=0.000000D+00  E= 5.108999D+00
              MO Center=  2.3D-17, -1.2D-16, -7.9D-17, r^2= 4.4D-01
   Bfn.  Coefficient  Atom+Function         Bfn.  Coefficient  Atom+Function  
  ----- ------------  ---------------      ----- ------------  ---------------
    29      1.931459  1 O  fxxz              34     -1.903339  1 O  fyyz       
    35     -0.269451  1 O  fyzz              28     -0.134555  1 O  fxxy       
    33      0.134679  1 O  fyyy              32     -0.026441  1 O  fxzz       
 
 Vector   23  Occ=0.000000D+00  E= 5.137806D+00
              MO Center= -1.3D-17, -3.7D-17,  8.1D-17, r^2= 4.4D-01
   Bfn.  Coefficient  Atom+Function         Bfn.  Coefficient  Atom+Function  
  ----- ------------  ---------------      ----- ------------  ---------------
    29      1.635959  1 O  fxxz              34      1.598950  1 O  fyyz       
    36     -0.838164  1 O  fzzz              35      0.410040  1 O  fyzz       
    11     -0.190593  1 O  pz                28     -0.116004  1 O  fxxy       
    33     -0.115048  1 O  fyyy               8     -0.048531  1 O  pz         
    14      0.042518  1 O  pz                32     -0.039486  1 O  fxzz       
 
 Vector   24  Occ=0.000000D+00  E= 5.138989D+00
              MO Center= -8.3D-17, -3.4D-17, -2.7D-16, r^2= 4.4D-01
   Bfn.  Coefficient  Atom+Function         Bfn.  Coefficient  Atom+Function  
  ----- ------------  ---------------      ----- ------------  ---------------
    32      2.366159  1 O  fxzz              27     -0.677172  1 O  fxxx       
    30     -0.662461  1 O  fxyy              31     -0.428415  1 O  fxyz       
     9      0.082436  1 O  px                35     -0.054749  1 O  fyzz       
    29      0.047241  1 O  fxxz       
 
 Vector   25  Occ=0.000000D+00  E= 5.138989D+00
              MO Center=  7.3D-17, -2.6D-17,  1.0D-16, r^2= 4.4D-01
   Bfn.  Coefficient  Atom+Function         Bfn.  Coefficient  Atom+Function  
  ----- ------------  ---------------      ----- ------------  ---------------
    35      2.330254  1 O  fyzz              28     -0.675656  1 O  fxxy       
    33     -0.660521  1 O  fyyy              34     -0.475334  1 O  fyyz       
    36      0.166664  1 O  fzzz              10      0.082221  1 O  py         
    32      0.062656  1 O  fxzz              29     -0.048697  1 O  fxxz       
    31      0.030078  1 O  fxyz       
 
 Vector   26  Occ=0.000000D+00  E= 5.616307D+00
              MO Center=  4.4D-16, -3.0D-15, -3.5D-16, r^2= 6.5D-01
   Bfn.  Coefficient  Atom+Function         Bfn.  Coefficient  Atom+Function  
  ----- ------------  ---------------      ----- ------------  ---------------
    10      2.551651  1 O  py                35     -2.027871  1 O  fyzz       
    28     -1.925490  1 O  fxxy              33     -1.926007  1 O  fyyy       
     7      0.698286  1 O  py                13     -0.564154  1 O  py         
    11      0.179687  1 O  pz                36     -0.142870  1 O  fzzz       
    29     -0.135574  1 O  fxxz              34     -0.121091  1 O  fyyz       
 
 Vector   27  Occ=0.000000D+00  E= 5.616316D+00
              MO Center=  3.0D-15,  3.6D-16, -5.6D-16, r^2= 6.5D-01
   Bfn.  Coefficient  Atom+Function         Bfn.  Coefficient  Atom+Function  
  ----- ------------  ---------------      ----- ------------  ---------------
     9      2.557908  1 O  px                32     -2.033858  1 O  fxzz       
    27     -1.930226  1 O  fxxx              30     -1.930714  1 O  fxyy       
     6      0.700001  1 O  px                12     -0.565537  1 O  px         
 
 Vector   28  Occ=0.000000D+00  E= 5.658393D+00
              MO Center= -1.4D-16,  1.5D-15, -2.4D-14, r^2= 6.6D-01
   Bfn.  Coefficient  Atom+Function         Bfn.  Coefficient  Atom+Function  
  ----- ------------  ---------------      ----- ------------  ---------------
    11      2.547058  1 O  pz                36     -2.015220  1 O  fzzz       
    29     -1.833222  1 O  fxxz              34     -1.835891  1 O  fyyz       
     8      0.693404  1 O  pz                14     -0.563349  1 O  pz         
    10     -0.179372  1 O  py                35      0.167482  1 O  fyzz       
    28      0.129119  1 O  fxxy              33      0.129183  1 O  fyyy       
 
 Vector   29  Occ=0.000000D+00  E= 6.204061D+00
              MO Center= -8.8D-17,  4.1D-16,  3.2D-16, r^2= 3.2D-01
   Bfn.  Coefficient  Atom+Function         Bfn.  Coefficient  Atom+Function  
  ----- ------------  ---------------      ----- ------------  ---------------
    19      1.881680  1 O  dyz               25     -0.950376  1 O  dyz        
    17     -0.668612  1 O  dxz               23      0.337694  1 O  dxz        
    20      0.136634  1 O  dzz               18     -0.132134  1 O  dyy        
    26     -0.069249  1 O  dzz               24      0.066497  1 O  dyy        
    16      0.059135  1 O  dxy               22     -0.029868  1 O  dxy        
 
 Vector   30  Occ=0.000000D+00  E= 6.204061D+00
              MO Center=  8.5D-17, -3.2D-18,  8.8D-17, r^2= 3.2D-01
   Bfn.  Coefficient  Atom+Function         Bfn.  Coefficient  Atom+Function  
  ----- ------------  ---------------      ----- ------------  ---------------
    17      1.896381  1 O  dxz               23     -0.957801  1 O  dxz        
    19      0.666413  1 O  dyz               25     -0.336584  1 O  dyz        
    16     -0.127279  1 O  dxy               22      0.064286  1 O  dxy        
    18     -0.046718  1 O  dyy               20      0.033897  1 O  dzz        
 
 Vector   31  Occ=0.000000D+00  E= 6.205096D+00
              MO Center= -1.5D-16,  3.5D-16, -5.8D-16, r^2= 3.2D-01
   Bfn.  Coefficient  Atom+Function         Bfn.  Coefficient  Atom+Function  
  ----- ------------  ---------------      ----- ------------  ---------------
     4      4.634157  1 O  s                  3     -2.446220  1 O  s          
    21     -1.520338  1 O  dxx               24     -1.515886  1 O  dyy        
    20     -1.213197  1 O  dzz               26     -0.647106  1 O  dzz        
    15      0.510435  1 O  dxx               18      0.501646  1 O  dyy        
    19      0.240762  1 O  dyz               25     -0.121977  1 O  dyz        
 
 Vector   32  Occ=0.000000D+00  E= 6.210382D+00
              MO Center=  1.7D-16, -5.0D-16,  5.7D-18, r^2= 3.2D-01
   Bfn.  Coefficient  Atom+Function         Bfn.  Coefficient  Atom+Function  
  ----- ------------  ---------------      ----- ------------  ---------------
    15      1.007762  1 O  dxx               18     -1.003101  1 O  dyy        
    21     -0.507500  1 O  dxx               24      0.506250  1 O  dyy        
    19     -0.140217  1 O  dyz               25      0.070688  1 O  dyz        
 
 Vector   33  Occ=0.000000D+00  E= 6.210405D+00
              MO Center= -2.2D-16,  3.9D-17, -6.7D-17, r^2= 3.2D-01
   Bfn.  Coefficient  Atom+Function         Bfn.  Coefficient  Atom+Function  
  ----- ------------  ---------------      ----- ------------  ---------------
    16      2.010914  1 O  dxy               22     -1.013774  1 O  dxy        
    17      0.139729  1 O  dxz               23     -0.070441  1 O  dxz        
 
 Vector   34  Occ=0.000000D+00  E= 6.266081D+00
              MO Center= -3.0D-15,  1.5D-15,  2.6D-14, r^2= 6.5D-01
   Bfn.  Coefficient  Atom+Function         Bfn.  Coefficient  Atom+Function  
  ----- ------------  ---------------      ----- ------------  ---------------
     4     36.663104  1 O  s                  3    -19.174836  1 O  s          
    26     -9.765002  1 O  dzz               21     -9.660936  1 O  dxx        
    24     -9.661414  1 O  dyy               15     -0.709420  1 O  dxx        
    18     -0.708417  1 O  dyy               20     -0.492176  1 O  dzz        
     2      0.262262  1 O  s                  1      0.168664  1 O  s          
 
 Vector   35  Occ=0.000000D+00  E= 1.637917D+01
              MO Center= -1.1D-17, -9.3D-18,  1.2D-16, r^2= 2.9D-01
   Bfn.  Coefficient  Atom+Function         Bfn.  Coefficient  Atom+Function  
  ----- ------------  ---------------      ----- ------------  ---------------
     4     13.340193  1 O  s                 21     -3.835188  1 O  dxx        
    24     -3.835174  1 O  dyy               26     -3.832328  1 O  dzz        
    15     -3.149781  1 O  dxx               18     -3.149817  1 O  dyy        
    20     -3.156991  1 O  dzz                2     -1.834247  1 O  s          
     3      0.604721  1 O  s                  1     -0.232248  1 O  s          
 
 Vector   36  Occ=0.000000D+00  E= 7.135214D+01
              MO Center=  2.0D-18, -1.1D-19, -3.9D-18, r^2= 7.4D-02
   Bfn.  Coefficient  Atom+Function         Bfn.  Coefficient  Atom+Function  
  ----- ------------  ---------------      ----- ------------  ---------------
     3     10.826150  1 O  s                  4     -5.555001  1 O  s          
     2     -4.116046  1 O  s                 15     -2.609985  1 O  dxx        
    18     -2.609989  1 O  dyy               20     -2.610673  1 O  dzz        
     1      1.702727  1 O  s                 21      0.941721  1 O  dxx        
    24      0.941721  1 O  dyy               26      0.941725  1 O  dzz        
 

   alpha - beta orbital overlaps 
   ----------------------------- 


   alpha      1      2      3      4      5      6      7      8      9     10
    beta      1      2      4      5      3      6      8      9      7     13
 overlap   1.000  0.999  0.993  0.993  1.000  0.999  0.993  0.993  1.000  0.999


   alpha     11     12     13     14     15     16     17     18     19     20
    beta     14     10     11     12     16     17     15     18     19     20
 overlap   0.999  1.000  1.000  0.999  0.999  0.999  1.000  0.999  0.769  0.769


   alpha     21     22     23     24     25     26     27     28     29     30
    beta     22     21     25     24     23     26     27     28     33     32
 overlap   1.000  1.000  1.000  1.000  1.000  1.000  1.000  1.000  0.999  0.999


   alpha     31     32     33     34     35     36
    beta     30     29     31     34     35     36
 overlap   0.952  0.952  0.969  0.969  1.000  1.000

     --------------------------
     Expectation value of S2:  
     --------------------------
      <S2> =      2.0033 (Exact =     2.0000)
 

 Parallel integral file used       4 records with       0 large values


 Task  times  cpu:       10.9s     wall:       11.3s
 
 
                                NWChem Input Module
                                -------------------
 
 
 Summary of allocated global arrays
-----------------------------------
  No active global arrays



                         GA Statistics for process    0
                         ------------------------------

       create   destroy   get      put      acc     scatter   gather  read&inc
calls:  221      221      933      611      166        0        0       14     
number of processes/call 1.41e+00 1.45e+00 1.90e+00 0.00e+00 0.00e+00
bytes total:             5.03e+06 2.01e+06 1.72e+06 0.00e+00 0.00e+00 1.12e+02
bytes remote:            2.91e+05 1.44e+05 2.43e+05 0.00e+00 0.00e+00 0.00e+00
Max memory consumed for GA by this process: 673920 bytes
 
MA_summarize_allocated_blocks: starting scan ...
MA_summarize_allocated_blocks: scan completed: 0 heap blocks, 0 stack blocks
MA usage statistics:

	allocation statistics:
					      heap	     stack
					      ----	     -----
	current number of blocks	         0	         0
	maximum number of blocks	        21	        51
	current total bytes		         0	         0
	maximum total bytes		   1884600	  22512008
	maximum total K-bytes		      1885	     22513
	maximum total M-bytes		         2	        23
 
 
                                     CITATION
                                     --------
                Please cite the following reference when publishing
                           results obtained with NWChem:
 
                 M. Valiev, E.J. Bylaska, N. Govind, K. Kowalski,
              T.P. Straatsma, H.J.J. van Dam, D. Wang, J. Nieplocha,
                        E. Apra, T.L. Windus, W.A. de Jong
                 "NWChem: a comprehensive and scalable open-source
                  solution for large scale molecular simulations"
                      Comput. Phys. Commun. 181, 1477 (2010)
                           doi:10.1016/j.cpc.2010.04.018
 
                                      AUTHORS
                                      -------
          E. Apra, E. J. Bylaska, W. A. de Jong, N. Govind, K. Kowalski,
       T. P. Straatsma, M. Valiev, H. J. J. van Dam, D. Wang, T. L. Windus,
        J. Hammond, J. Autschbach, K. Bhaskaran-Nair, J. Brabec, K. Lopata,
    S. A. Fischer, S. Krishnamoorthy, M. Jacquelin, W. Ma, M. Klemm, O. Villa,
      Y. Chen, V. Anisimov, F. Aquino, S. Hirata, M. T. Hackler, V. Konjkov,
            D. Mejia-Rodriguez, T. Risthaus, M. Malagoli, A. Marenich,
   A. Otero-de-la-Roza, J. Mullin, P. Nichols, R. Peverati, J. Pittner, Y. Zhao,
        P.-D. Fan, A. Fonari, M. J. Williamson, R. J. Harrison, J. R. Rehr,
      M. Dupuis, D. Silverstein, D. M. A. Smith, J. Nieplocha, V. Tipparaju,
    M. Krishnan, B. E. Van Kuiken, A. Vazquez-Mayagoitia, L. Jensen, M. Swart,
      Q. Wu, T. Van Voorhis, A. A. Auer, M. Nooijen, L. D. Crosby, E. Brown,
      G. Cisneros, G. I. Fann, H. Fruchtl, J. Garza, K. Hirao, R. A. Kendall,
      J. A. Nichols, K. Tsemekhman, K. Wolinski, J. Anchell, D. E. Bernholdt,
      P. Borowski, T. Clark, D. Clerc, H. Dachsel, M. J. O. Deegan, K. Dyall,
    D. Elwood, E. Glendening, M. Gutowski, A. C. Hess, J. Jaffe, B. G. Johnson,
     J. Ju, R. Kobayashi, R. Kutteh, Z. Lin, R. Littlefield, X. Long, B. Meng,
      T. Nakajima, S. Niu, L. Pollack, M. Rosing, K. Glaesemann, G. Sandrone,
      M. Stave, H. Taylor, G. Thomas, J. H. van Lenthe, A. T. Wong, Z. Zhang.

 Total times  cpu:       11.1s     wall:       11.5s
