  NWChem w/ OpenMP: maximum threads =  1
                                         
                                         
 
 
              Northwest Computational Chemistry Package (NWChem) 6.8
              ------------------------------------------------------
 
 
                    Environmental Molecular Sciences Laboratory
                       Pacific Northwest National Laboratory
                                Richland, WA 99352
 
                              Copyright (c) 1994-2017
                       Pacific Northwest National Laboratory
                            Battelle Memorial Institute
 
             NWChem is an open-source computational chemistry package
                        distributed under the terms of the
                      Educational Community License (ECL) 2.0
             A copy of the license is included with this distribution
                              in the LICENSE.TXT file
 
                                  ACKNOWLEDGMENT
                                  --------------

            This software and its documentation were developed at the
            EMSL at Pacific Northwest National Laboratory, a multiprogram
            national laboratory, operated for the U.S. Department of Energy
            by Battelle under Contract Number DE-AC05-76RL01830. Support
            for this work was provided by the Department of Energy Office
            of Biological and Environmental Research, Office of Basic
            Energy Sciences, and the Office of Advanced Scientific Computing.


           Job information
           ---------------

    hostname        = kohn
    program         = nwchem
    date            = Wed Sep 26 22:04:25 2018

    compiled        = Wed_Sep_26_21:04:37_2018
    source          = /home/kohn/softwares/nwchem/nwchem-6.8
    nwchem branch   = 6.8
    nwchem revision = v6.8-47-gdf6c956
    ga revision     = ga-5.6.3
    use scalapack   = F
    input           = nwchem.nw
    prefix          = Sc.
    data base       = ./Sc.db
    status          = startup
    nproc           =        4
    time left       =     -1s



           Memory information
           ------------------

    heap     =   13107198 doubles =    100.0 Mbytes
    stack    =   13107195 doubles =    100.0 Mbytes
    global   =   26214400 doubles =    200.0 Mbytes (distinct from heap & stack)
    total    =   52428793 doubles =    400.0 Mbytes
    verify   = yes
    hardfail = no 


           Directory information
           ---------------------
 
  0 permanent = .
  0 scratch   = .
 
 
 
 
                                NWChem Input Module
                                -------------------
 
 

 Scaling coordinates for geometry "geometry" by  1.889725989
 (inverse scale =  0.529177249)

 
 
                             Geometry "geometry" -> ""
                             -------------------------
 
 Output coordinates in angstroms (scale by  1.889725989 to convert to a.u.)
 
  No.       Tag          Charge          X              Y              Z
 ---- ---------------- ---------- -------------- -------------- --------------
    1 Sc                  21.0000     0.00000000     0.00000000     0.00000000
 
      Atomic Mass 
      ----------- 
 
      Sc                44.955920
 

 Effective nuclear repulsion energy (a.u.)       0.0000000000

            Nuclear Dipole moment (a.u.) 
            ----------------------------
        X                 Y               Z
 ---------------- ---------------- ----------------
     0.0000000000     0.0000000000     0.0000000000
 
 
            XYZ format geometry
            -------------------
     1
 geometry
 Sc                    0.00000000     0.00000000     0.00000000
 


 Summary of "ao basis" -> "" (cartesian)
 ------------------------------------------------------------------------------
       Tag                 Description            Shells   Functions and Types
 ---------------- ------------------------------  ------  ---------------------
 *                         def2-TZVPP                 on all atoms 


 
                                 NWChem DFT Module
                                 -----------------
 
 
                      Basis "ao basis" -> "ao basis" (cartesian)
                      -----
  Sc (Scandium)
  -------------
            Exponent  Coefficients 
       -------------- ---------------------------------------------------------
  1 S  1.91612919E+05  0.000231
  1 S  2.87238504E+04  0.001789
  1 S  6.53701165E+03  0.009299
  1 S  1.85030972E+03  0.037739
  1 S  6.02388552E+02  0.122271
  1 S  2.16173248E+02  0.288148
  1 S  8.37125179E+01  0.405175
  1 S  3.29087072E+01  0.205660
 
  2 S  2.11343932E+02 -0.024528
  2 S  6.51289201E+01 -0.115702
  2 S  1.00343115E+01  0.559953
  2 S  4.15968846E+00  0.560878
 
  3 S  6.00090416E+00 -0.228405
  3 S  9.82557841E-01  0.719490
 
  4 S  4.24831928E-01  1.000000
 
  5 S  7.71854621E-02  1.000000
 
  6 S  3.01472197E-02  1.000000
 
  7 P  9.47341228E+02  0.002474
  7 P  2.24096997E+02  0.019743
  7 P  7.15603349E+01  0.090357
  7 P  2.64448245E+01  0.252016
  7 P  1.03937983E+01  0.396755
  7 P  4.16063046E+00  0.232086
 
  8 P  1.55657371E+01 -0.027129
  8 P  2.11215449E+00  0.551093
  8 P  8.41847090E-01  1.009064
 
  9 P  3.22975427E-01  1.000000
 
 10 P  1.23900000E-01  1.000000
 
 11 P  4.75300000E-02  1.000000
 
 12 D  3.09893910E+01  0.011903
 12 D  8.69054651E+00  0.067656
 12 D  2.95202563E+00  0.213325
 12 D  1.07619107E+00  0.383911
 
 13 D  3.83389151E-01  1.000000
 
 14 D  1.25346861E-01  1.000000
 
 15 D  4.10000000E-02  1.000000
 
 16 F  4.42000000E-01  1.000000
 
 17 F  1.10000000E-01  1.000000
 
 18 G  2.47000000E-01  1.000000
 


 Summary of "ao basis" -> "ao basis" (cartesian)
 ------------------------------------------------------------------------------
       Tag                 Description            Shells   Functions and Types
 ---------------- ------------------------------  ------  ---------------------
 Sc                        def2-TZVPP               18       80   6s5p4d2f1g




 Summary of "ao basis" -> "ao basis" (cartesian)
 ------------------------------------------------------------------------------
       Tag                 Description            Shells   Functions and Types
 ---------------- ------------------------------  ------  ---------------------
 Sc                        def2-TZVPP               18       80   6s5p4d2f1g


  Caching 1-el integrals 
 
            General Information
            -------------------
          SCF calculation type: DFT
          Wavefunction type:  spin polarized.
          No. of atoms     :     1
          No. of electrons :    21
           Alpha electrons :    11
            Beta electrons :    10
          Charge           :     0
          Spin multiplicity:     2
          Use of symmetry is: off; symmetry adaption is: off
          Maximum number of iterations: ***
          AO basis - number of functions:    80
                     number of shells:    18
          Convergence on energy requested:  1.00D-06
          Convergence on density requested:  1.00D-05
          Convergence on gradient requested:  5.00D-04
 
              XC Information
              --------------
                  TPSS metaGGA Exchange Functional  1.000          
             TPSS03 metaGGA Correlation Functional  1.000          
 
             Grid Information
             ----------------
          Grid used for XC integration:  medium    
          Radial quadrature: Mura-Knowles        
          Angular quadrature: Lebedev. 
          Tag              B.-S. Rad. Rad. Pts. Rad. Cut. Ang. Pts.
          ---              ---------- --------- --------- ---------
          Sc                  1.60      112           9.0       590
          Grid pruning is: on 
          Number of quadrature shells:   112
          Spatial weights used:  Erf1
 
          Convergence Information
          -----------------------
          Convergence aids based upon iterative change in 
          total energy or number of iterations. 
          Levelshifting, if invoked, occurs when the 
          HOMO/LUMO gap drops below (HL_TOL):  1.00D-02
          DIIS, if invoked, will attempt to extrapolate 
          using up to (NFOCK): 10 stored Fock matrices.

                    Damping( 0%)  Levelshifting(0.5)       DIIS
                  --------------- ------------------- ---------------
          dE  on:    start            ASAP                start   
          dE off:    2 iters        *** iters           *** iters 

 
      Screening Tolerance Information
      -------------------------------
          Density screening/tol_rho:  1.00D-10
          AO Gaussian exp screening on grid/accAOfunc:  14
          CD Gaussian exp screening on grid/accCDfunc:  20
          XC Gaussian exp screening on grid/accXCfunc:  20
          Schwarz screening/accCoul:  1.00D-08

 
      Superposition of Atomic Density Guess
      -------------------------------------
 
 Sum of atomic energies:        -759.72760894
 
      Non-variational initial energy
      ------------------------------

 Total energy =    -759.476055
 1-e energy   =   -1040.167291
 2-e energy   =     280.691236
 HOMO         =       0.035891
 LUMO         =       0.035891
 
   Time after variat. SCF:     16.8
   Time prior to 1st pass:     17.6

 Integral file          = ./Sc.aoints.0
 Record size in doubles =    65536    No. of integs per rec  =    43688
 Max. records in memory =       43    Max. records in file   =  1478995
 No. of bits per label  =        8    No. of bits per value  =       64


 #quartets = 1.469D+04 #integrals = 8.248D+05 #direct =  0.0% #cached =100.0%


File balance: exchanges=     0  moved=     0  time=   0.0


 Grid_pts file          = ./Sc.gridpts.0
 Record size in doubles =  12289        No. of grid_pts per rec  =   3070
 Max. records in memory =      7        Max. recs in file   =   7887337


           Memory utilization after 1st SCF pass: 
           Heap Space remaining (MW):       10.20            10196518
          Stack Space remaining (MW):       13.11            13106460

   convergence    iter        energy       DeltaE   RMS-Dens  Diis-err    time
 ---------------- ----- ----------------- --------- --------- ---------  ------
 d= 0,ls=0.0,diis     1   -760.4007942256 -7.60D+02  5.56D-02  1.79D-01    26.0
                                                     3.14D-02  1.66D-01
 d= 0,ls=0.5,diis     2   -759.5635511111  8.37D-01  4.50D-03  2.28D+00    31.1
                                                     3.52D-03  1.81D+00
 d= 0,ls=0.5,diis     3   -759.8510603423 -2.88D-01  3.78D-03  1.33D+00    36.7
                                                     2.26D-03  1.03D+00
 d= 0,ls=0.5,diis     4   -760.0761245044 -2.25D-01  3.48D-03  7.46D-01    41.3
                                                     2.00D-03  5.63D-01
 d= 0,ls=0.5,diis     5   -760.2257382009 -1.50D-01  2.16D-03  4.03D-01    45.7
                                                     1.25D-03  3.00D-01
 d= 0,ls=0.5,diis     6   -760.2908398256 -6.51D-02  1.57D-03  2.85D-01    50.7
                                                     9.50D-04  2.12D-01
  Resetting Diis
 d= 0,ls=0.5,diis     7   -760.3272859117 -3.64D-02  1.21D-03  2.25D-01    55.4
                                                     8.29D-04  1.69D-01
 d= 0,ls=0.5,diis     8   -760.3328416872 -5.56D-03  1.01D-02  2.32D-01    60.7
                                                     6.44D-03  1.75D-01
 d= 0,ls=0.5,diis     9   -760.4133500868 -8.05D-02  4.26D-03  1.70D-01    64.7
                                                     3.37D-03  1.55D-01
 d= 0,ls=0.5,diis    10   -760.4424208969 -2.91D-02  1.91D-03  5.13D-02    70.3
                                                     1.32D-03  4.32D-02
 d= 0,ls=0.5,diis    11   -760.4545685010 -1.21D-02  1.35D-03  1.60D-02    76.1
                                                     9.15D-04  1.23D-02
 d= 0,ls=0.5,diis    12   -760.4592299146 -4.66D-03  1.08D-03  4.97D-03    79.7
                                                     7.52D-04  3.49D-03
 d= 0,ls=0.5,diis    13   -760.4609284626 -1.70D-03  8.87D-04  1.73D-03    84.4
                                                     6.32D-04  1.12D-03
 d= 0,ls=0.5,diis    14   -760.4616216356 -6.93D-04  6.99D-04  6.15D-04    90.9
                                                     5.02D-04  3.67D-04
 d= 0,ls=0.5,diis    15   -760.4618999290 -2.78D-04  4.63D-04  2.35D-04    95.8
                                                     3.49D-04  1.26D-04
 d= 0,ls=0.5,diis    16   -760.4620249031 -1.25D-04  3.38D-04  9.19D-05   102.6
                                                     2.41D-04  4.22D-05
 d= 0,ls=0.5,diis    17   -760.4620923932 -6.75D-05  2.53D-04  3.27D-05   110.1
                                                     1.65D-04  1.15D-05
 d= 0,ls=0.5,diis    18   -760.4621304506 -3.81D-05  1.89D-04  1.41D-05   117.7
                                                     1.23D-04  4.16D-06
 d= 0,ls=0.5,diis    19   -760.4621545229 -2.41D-05  1.80D-04  8.68D-06   120.4
                                                     1.09D-04  2.86D-06
 d= 0,ls=0.5,diis    20   -760.4621740810 -1.96D-05  1.46D-04  5.00D-06   124.2
                                                     8.93D-05  2.07D-06
 d= 0,ls=0.5,diis    21   -760.4621874844 -1.34D-05  1.27D-04  3.27D-06   130.0
                                                     7.53D-05  1.68D-06
 d= 0,ls=0.5,diis    22   -760.4621979143 -1.04D-05  1.10D-04  2.59D-06   140.0
                                                     6.81D-05  1.52D-06
 d= 0,ls=0.5,diis    23   -760.4622066422 -8.73D-06  1.01D-04  2.52D-06   147.9
                                                     6.64D-05  1.50D-06
 d= 0,ls=0.5,diis    24   -760.4622147031 -8.06D-06  9.58D-05  2.78D-06   152.2
                                                     6.98D-05  1.67D-06
 d= 0,ls=0.5,diis    25   -760.4622228501 -8.15D-06  9.73D-05  3.95D-06   157.0
                                                     7.40D-05  2.34D-06
 d= 0,ls=0.5,diis    26   -760.4622325819 -9.73D-06  1.07D-04  5.62D-06   161.5
                                                     8.36D-05  3.38D-06
 d= 0,ls=0.5,diis    27   -760.4622456141 -1.30D-05  1.25D-04  7.45D-06   167.2
                                                     9.69D-05  4.62D-06
 d= 0,ls=0.5,diis    28   -760.4622637764 -1.82D-05  1.50D-04  1.03D-05   175.3
                                                     1.14D-04  6.48D-06
 d= 0,ls=0.5,diis    29   -760.4622900881 -2.63D-05  1.81D-04  1.46D-05   180.9
                                                     1.36D-04  9.12D-06
 d= 0,ls=0.5,diis    30   -760.4623288174 -3.87D-05  2.21D-04  2.16D-05   186.2
                                                     1.63D-04  1.33D-05
 d= 0,ls=0.5,diis    31   -760.4623866052 -5.78D-05  2.73D-04  3.24D-05   192.9
                                                     1.95D-04  1.96D-05
 d= 0,ls=0.5,diis    32   -760.4624731126 -8.65D-05  3.37D-04  4.91D-05   196.0
                                                     2.35D-04  2.90D-05
 d= 0,ls=0.5,diis    33   -760.4626034551 -1.30D-04  4.17D-04  7.47D-05   201.2
                                                     2.84D-04  4.31D-05
 d= 0,ls=0.5,diis    34   -760.4627999525 -1.96D-04  5.18D-04  1.14D-04   207.6
                                                     3.43D-04  6.42D-05
 d= 0,ls=0.5,diis    35   -760.4630966432 -2.97D-04  6.44D-04  1.73D-04   216.4
                                                     4.14D-04  9.54D-05
 d= 0,ls=0.5,diis    36   -760.4635443216 -4.48D-04  8.04D-04  2.62D-04   223.3
                                                     5.02D-04  1.41D-04
 d= 0,ls=0.5,diis    37   -760.4642174927 -6.73D-04  1.01D-03  3.98D-04   228.0
                                                     6.10D-04  2.09D-04
 d= 0,ls=0.5,diis    38   -760.4652261601 -1.01D-03  1.27D-03  6.01D-04   234.7
                                                     7.43D-04  3.11D-04
 d= 0,ls=0.5,diis    39   -760.4667260445 -1.50D-03  1.60D-03  9.05D-04   244.0
                                                     9.09D-04  4.64D-04
 d= 0,ls=0.5,diis    40   -760.4689325297 -2.21D-03  2.03D-03  1.36D-03   248.9
                                                     1.12D-03  6.96D-04
 d= 0,ls=0.5,diis    41   -760.4721320672 -3.20D-03  2.58D-03  2.01D-03   252.9
                                                     1.38D-03  1.05D-03
 d= 0,ls=0.5,diis    42   -760.4766697951 -4.54D-03  3.25D-03  2.94D-03   258.4
                                                     1.71D-03  1.58D-03
 d= 0,ls=0.5,diis    43   -760.4829105921 -6.24D-03  4.04D-03  4.20D-03   262.0
                                                     2.13D-03  2.40D-03
 d= 0,ls=0.5,diis    44   -760.4911209414 -8.21D-03  4.88D-03  5.87D-03   267.2
                                                     2.65D-03  3.64D-03
 d= 0,ls=0.5,diis    45   -760.5013032802 -1.02D-02  5.66D-03  8.02D-03   271.8
                                                     3.32D-03  5.49D-03
 d= 0,ls=0.5,diis    46   -760.5130418695 -1.17D-02  6.23D-03  1.08D-02   277.3
                                                     4.08D-03  8.16D-03
 d= 0,ls=0.5,diis    47   -760.5255654556 -1.25D-02  6.38D-03  1.44D-02   283.1
                                                     4.99D-03  1.18D-02
 d= 0,ls=0.5,diis    48   -760.5379348493 -1.24D-02  6.07D-03  1.94D-02   288.4
                                                     5.92D-03  1.64D-02
 d= 0,ls=0.5,diis    49   -760.5491936048 -1.13D-02  5.40D-03  2.58D-02   293.1
                                                     6.42D-03  2.20D-02
 d= 0,ls=0.5,diis    50   -760.5586246461 -9.43D-03  4.74D-03  3.37D-02   299.8
                                                     5.65D-03  2.82D-02
 d= 0,ls=0.5,diis    51   -760.5662592683 -7.63D-03  3.85D-03  4.16D-02   306.4
                                                     6.47D-03  3.38D-02
 d= 0,ls=0.5,diis    52   -760.5712189654 -4.96D-03  5.89D-03  5.14D-02   313.3
                                                     6.03D-03  4.04D-02
 d= 0,ls=0.5,diis    53   -760.5728555116 -1.64D-03  5.87D-03  6.39D-02   319.0
                                                     1.96D-02  4.86D-02
 d= 0,ls=0.5,diis    54   -760.5746625964 -1.81D-03  6.92D-03  7.23D-02   326.6
                                                     8.56D-03  5.31D-02
 d= 0,ls=0.5,diis    55   -760.5756174031 -9.55D-04  1.30D-02  8.00D-02   331.5
                                                     1.57D-02  5.64D-02
 d= 0,ls=0.5,diis    56   -760.5774669618 -1.85D-03  1.11D-02  7.96D-02   334.8
                                                     7.87D-03  5.50D-02
 d= 0,ls=0.5,diis    57   -760.5801433438 -2.68D-03  4.05D-02  7.69D-02   341.6
                                                     9.70D-03  5.26D-02
 d= 0,ls=0.5,diis    58   -760.5873993155 -7.26D-03  2.02D-02  6.40D-02   347.1
                                                     1.16D-02  4.03D-02
 d= 0,ls=0.5,diis    59   -760.6024646564 -1.51D-02  1.37D-02  3.27D-02   359.4
                                                     4.57D-03  2.02D-02
 d= 0,ls=0.5,diis    60   -760.6153143835 -1.28D-02  5.57D-03  1.00D-02   371.9
                                                     4.76D-03  5.53D-03
 d= 0,ls=0.5,diis    61   -760.6217134810 -6.40D-03  2.20D-03  2.36D-03   377.5
                                                     2.49D-03  1.13D-03
 d= 0,ls=0.5,diis    62   -760.6242537059 -2.54D-03  9.25D-04  7.10D-04   386.2
                                                     2.03D-03  4.09D-04
 d= 0,ls=0.5,diis    63   -760.6254122863 -1.16D-03  1.23D-03  3.54D-04   393.5
                                                     1.50D-03  2.53D-04
 d= 0,ls=0.5,diis    64   -760.6260948209 -6.83D-04  1.34D-03  2.12D-04   397.7
                                                     1.95D-03  1.96D-04
 d= 0,ls=0.5,diis    65   -760.6265861404 -4.91D-04  1.32D-03  1.18D-04   402.3
                                                     2.17D-03  1.49D-04
 d= 0,ls=0.5,diis    66   -760.6269900659 -4.04D-04  1.15D-03  6.10D-05   408.0
                                                     1.67D-03  1.18D-04
 d= 0,ls=0.5,diis    67   -760.6273021071 -3.12D-04  9.87D-04  3.87D-05   414.9
                                                     1.81D-03  1.04D-04
 d= 0,ls=0.5,diis    68   -760.6276087178 -3.07D-04  7.74D-04  3.28D-05   420.4
                                                     1.40D-03  1.02D-04
 d= 0,ls=0.5,diis    69   -760.6278909800 -2.82D-04  5.66D-04  3.10D-05   425.1
                                                     1.04D-03  1.00D-04
 d= 0,ls=0.5,diis    70   -760.6281602290 -2.69D-04  4.16D-04  3.05D-05   430.7
                                                     7.82D-04  9.79D-05
 d= 0,ls=0.5,diis    71   -760.6284260952 -2.66D-04  3.20D-04  3.18D-05   436.0
                                                     5.78D-04  9.71D-05
 d= 0,ls=0.5,diis    72   -760.6286887218 -2.63D-04  3.04D-04  3.03D-05   446.9
                                                     5.49D-04  9.39D-05
 d= 0,ls=0.5,diis    73   -760.6289416982 -2.53D-04  3.12D-04  2.94D-05   453.9
                                                     5.37D-04  9.02D-05
 d= 0,ls=0.5,diis    74   -760.6291990527 -2.57D-04  3.66D-04  3.19D-05   458.8
                                                     6.86D-04  9.07D-05
 d= 0,ls=0.5,diis    75   -760.6294697868 -2.71D-04  3.33D-04  4.16D-05   463.3
                                                     6.51D-04  9.92D-05
 d= 0,ls=0.5,diis    76   -760.6297259608 -2.56D-04  3.46D-04  4.08D-05   469.0
                                                     5.74D-04  9.43D-05
 d= 0,ls=0.5,diis    77   -760.6299847791 -2.59D-04  4.38D-04  4.25D-05   474.6
                                                     8.32D-04  9.42D-05
 d= 0,ls=0.5,diis    78   -760.6302571181 -2.72D-04  3.93D-04  8.37D-05   482.3
                                                     6.40D-04  1.32D-04
 d= 0,ls=0.5,diis    79   -760.6305231996 -2.66D-04  3.56D-04  7.89D-05   489.5
                                                     5.77D-04  1.22D-04
 d= 0,ls=0.5,diis    80   -760.6307706578 -2.47D-04  5.59D-04  6.08D-05   494.9
                                                     1.19D-03  1.02D-04
 d= 0,ls=0.5,diis    81   -760.6309585599 -1.88D-04  6.88D-04  2.72D-04   501.2
                                                     1.70D-03  2.75D-04
 d= 0,ls=0.5,diis    82   -760.6310540993 -9.55D-05  4.55D-04  6.52D-04   506.5
                                                     8.65D-04  5.56D-04
 d= 0,ls=0.5,diis    83   -760.6312483964 -1.94D-04  3.83D-04  6.70D-04   512.8
                                                     6.42D-04  5.47D-04
 d= 0,ls=0.5,diis    84   -760.6314458003 -1.97D-04  3.32D-04  6.17D-04   520.5
                                                     5.43D-04  4.96D-04
 d= 0,ls=0.5,diis    85   -760.6316305332 -1.85D-04  3.76D-04  5.35D-04   526.3
                                                     1.29D-03  4.27D-04
 d= 0,ls=0.5,diis    86   -760.6318328787 -2.02D-04  4.43D-04  3.48D-04   533.4
                                                     1.17D-03  2.76D-04
 d= 0,ls=0.5,diis    87   -760.6319688273 -1.36D-04  3.17D-04  2.52D-04   542.7
                                                     7.93D-04  1.99D-04
 d= 0,ls=0.5,diis    88   -760.6320821232 -1.13D-04  1.92D-04  1.42D-04   550.3
                                                     5.52D-04  1.14D-04
 d= 0,ls=0.5,diis    89   -760.6321572096 -7.51D-05  1.81D-04  8.35D-05   556.5
                                                     2.76D-04  7.11D-05
 d= 0,ls=0.5,diis    90   -760.6321976549 -4.04D-05  1.63D-04  1.14D-04   561.7
                                                     3.52D-04  9.58D-05
 d= 0,ls=0.5,diis    91   -760.6322386499 -4.10D-05  1.29D-04  1.14D-04   566.1
                                                     3.22D-04  9.39D-05
 d= 0,ls=0.5,diis    92   -760.6322753963 -3.67D-05  1.04D-04  1.05D-04   573.3
                                                     2.94D-04  8.52D-05
 d= 0,ls=0.5,diis    93   -760.6323035201 -2.81D-05  9.08D-05  9.91D-05   578.1
                                                     2.36D-04  7.91D-05
 d= 0,ls=0.5,diis    94   -760.6323294478 -2.59D-05  9.41D-05  8.62D-05   582.5
                                                     2.73D-04  6.81D-05
 d= 0,ls=0.5,diis    95   -760.6323514076 -2.20D-05  8.43D-05  7.35D-05   589.2
                                                     2.53D-04  5.76D-05
 d= 0,ls=0.5,diis    96   -760.6323699716 -1.86D-05  7.84D-05  6.12D-05   593.5
                                                     2.29D-04  4.76D-05
 d= 0,ls=0.5,diis    97   -760.6323840626 -1.41D-05  7.25D-05  5.34D-05   599.1
                                                     2.15D-04  4.13D-05
 d= 0,ls=0.5,diis    98   -760.6323967617 -1.27D-05  7.89D-05  4.36D-05   606.1
                                                     2.14D-04  3.35D-05
 d= 0,ls=0.5,diis    99   -760.6324069143 -1.02D-05  6.07D-05  3.59D-05   609.8
                                                     1.68D-04  2.74D-05
 d= 0,ls=0.5,diis   100   -760.6324155511 -8.64D-06  3.65D-05  2.88D-05   615.0
                                                     1.14D-04  2.20D-05
 d= 0,ls=0.5,diis   101   -760.6324222683 -6.72D-06  2.91D-05  2.38D-05   619.7
                                                     8.80D-05  1.81D-05
 d= 0,ls=0.5,diis   102   -760.6324274713 -5.20D-06  2.72D-05  2.00D-05   624.3
                                                     8.28D-05  1.52D-05
 d= 0,ls=0.5,diis   103   -760.6324318485 -4.38D-06  2.38D-05  1.65D-05   631.9
                                                     7.16D-05  1.25D-05
 d= 0,ls=0.5,diis   104   -760.6324355374 -3.69D-06  2.22D-05  1.34D-05   635.5
                                                     7.09D-05  1.01D-05
 d= 0,ls=0.5,diis   105   -760.6324384863 -2.95D-06  2.01D-05  1.10D-05   640.4
                                                     7.08D-05  8.32D-06
 d= 0,ls=0.5,diis   106   -760.6324410035 -2.52D-06  2.06D-05  8.78D-06   645.5
                                                     6.68D-05  6.61D-06
 d= 0,ls=0.5,diis   107   -760.6324430010 -2.00D-06  1.99D-05  7.06D-06   650.9
                                                     6.12D-05  5.33D-06
 d= 0,ls=0.5,diis   108   -760.6324447464 -1.75D-06  1.67D-05  5.38D-06   654.4
                                                     4.99D-05  4.08D-06
 d= 0,ls=0.5,diis   109   -760.6324462625 -1.52D-06  1.79D-05  3.80D-06   661.0
                                                     4.92D-05  2.91D-06
 d= 0,ls=0.5,diis   110   -760.6324473609 -1.10D-06  1.50D-05  2.87D-06   669.1
                                                     4.36D-05  2.23D-06
 d= 0,ls=0.5,diis   111   -760.6324482138 -8.53D-07  1.06D-05  2.21D-06   675.5
                                                     3.25D-05  1.74D-06
 d= 0,ls=0.5,diis   112   -760.6324488449 -6.31D-07  1.16D-05  1.81D-06   679.2
                                                     3.46D-05  1.43D-06
 d= 0,ls=0.5,diis   113   -760.6324493312 -4.86D-07  1.01D-05  1.56D-06   683.3
                                                     3.10D-05  1.24D-06
 d= 0,ls=0.5,diis   114   -760.6324497146 -3.83D-07  1.11D-05  1.39D-06   690.5
                                                     3.16D-05  1.10D-06
 d= 0,ls=0.5,diis   115   -760.6324500377 -3.23D-07  1.02D-05  1.24D-06   698.6
                                                     2.86D-05  9.72D-07
 d= 0,ls=0.5,diis   116   -760.6324503240 -2.86D-07  9.94D-06  1.07D-06   705.6
                                                     2.70D-05  8.33D-07
 d= 0,ls=0.5,diis   117   -760.6324505545 -2.31D-07  1.24D-05  9.49D-07   710.9
                                                     2.87D-05  7.38D-07
 d= 0,ls=0.5,diis   118   -760.6324507443 -1.90D-07  9.48D-06  8.68D-07   718.7
                                                     2.36D-05  6.68D-07
 d= 0,ls=0.5,diis   119   -760.6324509260 -1.82D-07  8.57D-06  7.43D-07   722.9
                                                     2.14D-05  5.68D-07
 d= 0,ls=0.5,diis   120   -760.6324510806 -1.55D-07  8.42D-06  6.36D-07   733.7
                                                     2.01D-05  4.83D-07
 d= 0,ls=0.5,diis   121   -760.6324512057 -1.25D-07  7.62D-06  5.65D-07   737.5
                                                     1.87D-05  4.24D-07
 d= 0,ls=0.5,diis   122   -760.6324513165 -1.11D-07  9.39D-06  4.89D-07   741.4
                                                     2.12D-05  3.65D-07
 d= 0,ls=0.5,diis   123   -760.6324513896 -7.31D-08  6.74D-06  4.80D-07   746.1
                                                     1.67D-05  3.54D-07
 d= 0,ls=0.5,diis   124   -760.6324514692 -7.96D-08  4.42D-06  4.23D-07   749.9
                                                     1.28D-05  3.10D-07
 d= 0,ls=0.5,diis   125   -760.6324515397 -7.05D-08  3.17D-06  3.63D-07   753.6
                                                     8.93D-06  2.66D-07


         Total DFT energy =     -760.632451604737
      One electron energy =    -1040.847154261743
           Coulomb energy =      319.178921974674
          Exchange energy =      -38.138124070185
       Correlation energy =       -0.826095247484
 Nuclear repulsion energy =        0.000000000000

 Numeric. integr. density =       21.000000176261

     Total iterative time =    736.9s


 
                    DFT Final Alpha Molecular Orbital Analysis
                    ------------------------------------------
 
 Vector    1  Occ=1.000000D+00  E=-1.610412D+02
              MO Center=  4.7D-11,  5.7D-11, -8.1D-11, r^2= 2.0D-03
   Bfn.  Coefficient  Atom+Function         Bfn.  Coefficient  Atom+Function  
  ----- ------------  ---------------      ----- ------------  ---------------
     1      0.997773  1 Sc s          
 
 Vector    2  Occ=1.000000D+00  E=-1.731711D+01
              MO Center=  8.4D-08,  9.2D-08, -8.1D-08, r^2= 3.9D-02
   Bfn.  Coefficient  Atom+Function         Bfn.  Coefficient  Atom+Function  
  ----- ------------  ---------------      ----- ------------  ---------------
     2      1.038359  1 Sc s                  1     -0.302166  1 Sc s          
     3      0.064335  1 Sc s                  4     -0.057192  1 Sc s          
 
 Vector    3  Occ=1.000000D+00  E=-1.426234D+01
              MO Center=  2.2D-08, -7.8D-08,  3.0D-08, r^2= 3.3D-02
   Bfn.  Coefficient  Atom+Function         Bfn.  Coefficient  Atom+Function  
  ----- ------------  ---------------      ----- ------------  ---------------
     8      0.898387  1 Sc py                 9     -0.368166  1 Sc pz         
     7     -0.186020  1 Sc px                11      0.036555  1 Sc py         
    14     -0.036642  1 Sc py         
 
 Vector    4  Occ=1.000000D+00  E=-1.425501D+01
              MO Center= -1.3D-08,  2.6D-08,  5.5D-08, r^2= 3.3D-02
   Bfn.  Coefficient  Atom+Function         Bfn.  Coefficient  Atom+Function  
  ----- ------------  ---------------      ----- ------------  ---------------
     9      0.897032  1 Sc pz                 8      0.310338  1 Sc py         
     7     -0.276600  1 Sc px                12      0.035986  1 Sc pz         
    15     -0.035635  1 Sc pz         
 
 Vector    5  Occ=1.000000D+00  E=-1.425501D+01
              MO Center= -7.2D-08, -1.7D-08, -2.0D-08, r^2= 3.3D-02
   Bfn.  Coefficient  Atom+Function         Bfn.  Coefficient  Atom+Function  
  ----- ------------  ---------------      ----- ------------  ---------------
     7      0.930787  1 Sc px                 8      0.271810  1 Sc py         
     9      0.192973  1 Sc pz                10      0.037340  1 Sc px         
    13     -0.036975  1 Sc px         
 
 Vector    6  Occ=1.000000D+00  E=-2.006167D+00
              MO Center=  1.3D-06,  2.0D-06, -1.4D-06, r^2= 3.8D-01
   Bfn.  Coefficient  Atom+Function         Bfn.  Coefficient  Atom+Function  
  ----- ------------  ---------------      ----- ------------  ---------------
     3      0.564237  1 Sc s                  2     -0.438176  1 Sc s          
     4      0.375922  1 Sc s                  1      0.109741  1 Sc s          
    25      0.065906  1 Sc dyy               27      0.061266  1 Sc dzz        
    22      0.060568  1 Sc dxx                5     -0.034868  1 Sc s          
 
 Vector    7  Occ=1.000000D+00  E=-1.229952D+00
              MO Center=  9.5D-07, -1.0D-06,  1.9D-07, r^2= 4.5D-01
   Bfn.  Coefficient  Atom+Function         Bfn.  Coefficient  Atom+Function  
  ----- ------------  ---------------      ----- ------------  ---------------
    11      0.794874  1 Sc py                12     -0.325746  1 Sc pz         
     8     -0.323228  1 Sc py                14      0.208733  1 Sc py         
    10     -0.164867  1 Sc px                 9      0.132461  1 Sc pz         
    15     -0.085539  1 Sc pz                 7      0.067042  1 Sc px         
    13     -0.043295  1 Sc px         
 
 Vector    8  Occ=1.000000D+00  E=-1.223804D+00
              MO Center= -5.0D-07,  7.7D-07,  3.9D-07, r^2= 4.6D-01
   Bfn.  Coefficient  Atom+Function         Bfn.  Coefficient  Atom+Function  
  ----- ------------  ---------------      ----- ------------  ---------------
    10      0.665770  1 Sc px                12     -0.547955  1 Sc pz         
     7     -0.271211  1 Sc px                 9      0.223217  1 Sc pz         
    13      0.178416  1 Sc px                15     -0.146839  1 Sc pz         
    11     -0.086459  1 Sc py                 8      0.035221  1 Sc py         
    48     -0.028781  1 Sc fxxz              51      0.025613  1 Sc fxzz       
 
 Vector    9  Occ=1.000000D+00  E=-1.223799D+00
              MO Center=  9.5D-08,  3.2D-07, -1.0D-06, r^2= 4.6D-01
   Bfn.  Coefficient  Atom+Function         Bfn.  Coefficient  Atom+Function  
  ----- ------------  ---------------      ----- ------------  ---------------
    12      0.588706  1 Sc pz                10      0.530138  1 Sc px         
    11      0.351218  1 Sc py                 9     -0.239818  1 Sc pz         
     7     -0.215960  1 Sc px                15      0.157764  1 Sc pz         
     8     -0.143074  1 Sc py                13      0.142071  1 Sc px         
    14      0.094121  1 Sc py                51      0.025025  1 Sc fxzz       
 
 Vector   10  Occ=1.000000D+00  E=-1.505841D-01
              MO Center=  1.7D-05, -2.5D-06, -1.2D-05, r^2= 4.3D+00
   Bfn.  Coefficient  Atom+Function         Bfn.  Coefficient  Atom+Function  
  ----- ------------  ---------------      ----- ------------  ---------------
     6      1.532394  1 Sc s                  5     -0.670972  1 Sc s          
    43     -0.291293  1 Sc dyy               45     -0.257410  1 Sc dzz        
    40     -0.252294  1 Sc dxx                3     -0.203555  1 Sc s          
    34      0.188467  1 Sc dxx               39      0.172089  1 Sc dzz        
    26      0.155235  1 Sc dyz               71      0.155246  1 Sc gxxzz      
 
 Vector   11  Occ=1.000000D+00  E=-1.325866D-01
              MO Center=  3.2D-06, -2.6D-07, -3.0D-06, r^2= 1.4D+00
   Bfn.  Coefficient  Atom+Function         Bfn.  Coefficient  Atom+Function  
  ----- ------------  ---------------      ----- ------------  ---------------
    24      0.854572  1 Sc dxz               30      0.598717  1 Sc dxz        
    36      0.436997  1 Sc dxz               23      0.306457  1 Sc dxy        
    29      0.214708  1 Sc dxy               26      0.203555  1 Sc dyz        
    35      0.156711  1 Sc dxy               32      0.142612  1 Sc dyz        
    42      0.131199  1 Sc dxz               22     -0.105931  1 Sc dxx        
 
 Vector   12  Occ=0.000000D+00  E=-9.917161D-02
              MO Center= -1.9D-06,  1.2D-05, -6.2D-06, r^2= 1.7D+00
   Bfn.  Coefficient  Atom+Function         Bfn.  Coefficient  Atom+Function  
  ----- ------------  ---------------      ----- ------------  ---------------
     6      0.803136  1 Sc s                  5     -0.591881  1 Sc s          
    26     -0.552441  1 Sc dyz               25      0.398961  1 Sc dyy        
    32     -0.370183  1 Sc dyz               31      0.312455  1 Sc dyy        
    23     -0.280325  1 Sc dxy               37      0.258858  1 Sc dyy        
    38     -0.254549  1 Sc dyz               22     -0.246540  1 Sc dxx        
 
 Vector   13  Occ=0.000000D+00  E=-9.636899D-02
              MO Center= -1.0D-06,  1.4D-06, -1.4D-06, r^2= 1.4D+00
   Bfn.  Coefficient  Atom+Function         Bfn.  Coefficient  Atom+Function  
  ----- ------------  ---------------      ----- ------------  ---------------
    23      0.828838  1 Sc dxy               29      0.556340  1 Sc dxy        
    35      0.421716  1 Sc dxy               24     -0.341393  1 Sc dxz        
    30     -0.229137  1 Sc dxz               22     -0.178906  1 Sc dxx        
    36     -0.173674  1 Sc dxz               41      0.160851  1 Sc dxy        
    25      0.155643  1 Sc dyy               26     -0.120615  1 Sc dyz        
 
 Vector   14  Occ=0.000000D+00  E=-9.635750D-02
              MO Center=  1.2D-07, -1.0D-07, -5.7D-06, r^2= 1.4D+00
   Bfn.  Coefficient  Atom+Function         Bfn.  Coefficient  Atom+Function  
  ----- ------------  ---------------      ----- ------------  ---------------
    26      0.676739  1 Sc dyz               32      0.454255  1 Sc dyz        
    38      0.344315  1 Sc dyz               25      0.331206  1 Sc dyy        
    27     -0.332549  1 Sc dzz               31      0.222279  1 Sc dyy        
    33     -0.223264  1 Sc dzz               37      0.168471  1 Sc dyy        
    39     -0.169275  1 Sc dzz               24     -0.165496  1 Sc dxz        
 
 Vector   15  Occ=0.000000D+00  E=-8.054895D-02
              MO Center= -3.7D-06, -4.4D-06, -1.1D-05, r^2= 1.7D+00
   Bfn.  Coefficient  Atom+Function         Bfn.  Coefficient  Atom+Function  
  ----- ------------  ---------------      ----- ------------  ---------------
    22      0.428471  1 Sc dxx               27     -0.392100  1 Sc dzz        
    26     -0.294163  1 Sc dyz               28      0.292700  1 Sc dxx        
    33     -0.267866  1 Sc dzz               34      0.253968  1 Sc dxx        
    39     -0.232418  1 Sc dzz               23      0.231254  1 Sc dxy        
    32     -0.200957  1 Sc dyz               38     -0.174399  1 Sc dyz        
 
 Vector   16  Occ=0.000000D+00  E=-5.260303D-02
              MO Center= -3.1D-06,  9.6D-06,  1.6D-05, r^2= 6.9D+00
   Bfn.  Coefficient  Atom+Function         Bfn.  Coefficient  Atom+Function  
  ----- ------------  ---------------      ----- ------------  ---------------
    21      0.916093  1 Sc pz                19     -0.368536  1 Sc px         
    20      0.299441  1 Sc py                18      0.274094  1 Sc pz         
    12     -0.214832  1 Sc pz                63     -0.166736  1 Sc fyyz       
    65     -0.138538  1 Sc fzzz              16     -0.110258  1 Sc px         
    17      0.089592  1 Sc py                10      0.086423  1 Sc px         
 
 Vector   17  Occ=0.000000D+00  E=-5.260126D-02
              MO Center= -1.1D-05, -2.9D-06, -1.0D-05, r^2= 6.9D+00
   Bfn.  Coefficient  Atom+Function         Bfn.  Coefficient  Atom+Function  
  ----- ------------  ---------------      ----- ------------  ---------------
    19      0.944141  1 Sc px                20      0.309322  1 Sc py         
    16      0.282450  1 Sc px                21      0.278706  1 Sc pz         
    10     -0.221399  1 Sc px                59     -0.171687  1 Sc fxyy       
    56     -0.136546  1 Sc fxxx              61     -0.098998  1 Sc fxzz       
    17      0.092542  1 Sc py                60      0.085483  1 Sc fxyz       
 
 Vector   18  Occ=0.000000D+00  E=-3.450180D-02
              MO Center=  3.7D-06, -2.5D-06, -3.0D-06, r^2= 7.4D+00
   Bfn.  Coefficient  Atom+Function         Bfn.  Coefficient  Atom+Function  
  ----- ------------  ---------------      ----- ------------  ---------------
    20      1.058785  1 Sc py                21     -0.434080  1 Sc pz         
    17      0.226856  1 Sc py                19     -0.218743  1 Sc px         
    11     -0.204518  1 Sc py                62     -0.204845  1 Sc fyyy       
    64     -0.175084  1 Sc fyzz              57     -0.152512  1 Sc fxxy       
    63      0.133201  1 Sc fyyz              18     -0.093008  1 Sc pz         
 
 Vector   19  Occ=0.000000D+00  E= 3.693279D-02
              MO Center= -2.0D-06,  8.1D-06, -3.3D-05, r^2= 1.6D+01
   Bfn.  Coefficient  Atom+Function         Bfn.  Coefficient  Atom+Function  
  ----- ------------  ---------------      ----- ------------  ---------------
     5     15.536593  1 Sc s                  6     -9.677234  1 Sc s          
     4     -2.593963  1 Sc s                 43      1.701975  1 Sc dyy        
    37     -1.575968  1 Sc dyy               45      1.567090  1 Sc dzz        
    40      1.546723  1 Sc dxx               39     -1.519280  1 Sc dzz        
    34     -1.510716  1 Sc dxx               69     -1.396063  1 Sc gxxyy      
 
 Vector   20  Occ=0.000000D+00  E= 5.535707D-02
              MO Center= -8.4D-06, -2.7D-06, -5.3D-06, r^2= 1.3D+01
   Bfn.  Coefficient  Atom+Function         Bfn.  Coefficient  Atom+Function  
  ----- ------------  ---------------      ----- ------------  ---------------
    42      1.714803  1 Sc dxz               41      0.615048  1 Sc dxy        
    36     -0.591325  1 Sc dxz               44      0.408004  1 Sc dyz        
    24     -0.316090  1 Sc dxz               68      0.232404  1 Sc gxxxz      
    75      0.231102  1 Sc gxzzz             73      0.227288  1 Sc gxyyz      
    35     -0.212099  1 Sc dxy               40     -0.212225  1 Sc dxx        
 
 Vector   21  Occ=0.000000D+00  E= 6.269717D-02
              MO Center= -7.1D-06, -4.2D-06, -8.7D-06, r^2= 1.3D+01
   Bfn.  Coefficient  Atom+Function         Bfn.  Coefficient  Atom+Function  
  ----- ------------  ---------------      ----- ------------  ---------------
    40      0.914668  1 Sc dxx               45     -0.831601  1 Sc dzz        
    44     -0.630920  1 Sc dyz               41      0.477391  1 Sc dxy        
    34     -0.395993  1 Sc dxx               39      0.360144  1 Sc dzz        
    42      0.282565  1 Sc dxz               38      0.273064  1 Sc dyz        
    35     -0.207098  1 Sc dxy               22     -0.186292  1 Sc dxx        
 
 Vector   22  Occ=0.000000D+00  E= 6.301190D-02
              MO Center= -7.0D-06,  4.9D-06, -3.3D-06, r^2= 1.3D+01
   Bfn.  Coefficient  Atom+Function         Bfn.  Coefficient  Atom+Function  
  ----- ------------  ---------------      ----- ------------  ---------------
    41      1.678155  1 Sc dxy               35     -0.681176  1 Sc dxy        
    42     -0.675729  1 Sc dxz               40     -0.351113  1 Sc dxx        
    23     -0.307254  1 Sc dxy               43      0.291899  1 Sc dyy        
    44     -0.284628  1 Sc dyz               36      0.274154  1 Sc dxz        
    67      0.261331  1 Sc gxxxy             74      0.257988  1 Sc gxyzz      
 
 Vector   23  Occ=0.000000D+00  E= 6.301405D-02
              MO Center= -6.5D-07,  5.2D-06, -6.0D-06, r^2= 1.3D+01
   Bfn.  Coefficient  Atom+Function         Bfn.  Coefficient  Atom+Function  
  ----- ------------  ---------------      ----- ------------  ---------------
    44      1.350972  1 Sc dyz               43      0.676109  1 Sc dyy        
    45     -0.672665  1 Sc dzz               38     -0.548225  1 Sc dyz        
    42     -0.351157  1 Sc dxz               37     -0.274374  1 Sc dyy        
    39      0.273144  1 Sc dzz               26     -0.247235  1 Sc dyz        
    70      0.210739  1 Sc gxxyz             77      0.206157  1 Sc gyyyz      
 
 Vector   24  Occ=0.000000D+00  E= 6.472685D-02
              MO Center= -2.5D-06,  1.0D-06, -2.2D-06, r^2= 1.3D+01
   Bfn.  Coefficient  Atom+Function         Bfn.  Coefficient  Atom+Function  
  ----- ------------  ---------------      ----- ------------  ---------------
     5      2.162534  1 Sc s                  6     -1.432089  1 Sc s          
    44      1.134461  1 Sc dyz               40      0.759819  1 Sc dxx        
    45      0.585857  1 Sc dzz               41      0.571034  1 Sc dxy        
    43     -0.564583  1 Sc dyy               38     -0.457581  1 Sc dyz        
    34     -0.407636  1 Sc dxx                4     -0.347610  1 Sc s          
 
 Vector   25  Occ=0.000000D+00  E= 1.263269D-01
              MO Center= -8.5D-07,  7.1D-06,  3.7D-05, r^2= 1.2D+01
   Bfn.  Coefficient  Atom+Function         Bfn.  Coefficient  Atom+Function  
  ----- ------------  ---------------      ----- ------------  ---------------
    21      2.507164  1 Sc pz                58     -1.420990  1 Sc fxxz       
    65     -1.332919  1 Sc fzzz              63     -1.303651  1 Sc fyyz       
    20      0.853875  1 Sc py                19     -0.842116  1 Sc px         
    18     -0.513319  1 Sc pz                64     -0.498403  1 Sc fyzz       
    57     -0.474496  1 Sc fxxy              61      0.465818  1 Sc fxzz       
 
 Vector   26  Occ=0.000000D+00  E= 1.263284D-01
              MO Center=  1.8D-05, -4.1D-07,  8.6D-06, r^2= 1.2D+01
   Bfn.  Coefficient  Atom+Function         Bfn.  Coefficient  Atom+Function  
  ----- ------------  ---------------      ----- ------------  ---------------
    19      2.596658  1 Sc px                61     -1.449954  1 Sc fxzz       
    56     -1.387571  1 Sc fxxx              59     -1.350806  1 Sc fxyy       
    20      0.784533  1 Sc py                21      0.604983  1 Sc pz         
    16     -0.531627  1 Sc px                64     -0.446549  1 Sc fyzz       
    57     -0.442149  1 Sc fxxy              62     -0.405060  1 Sc fyyy       
 
 Vector   27  Occ=0.000000D+00  E= 1.395408D-01
              MO Center=  1.1D-05, -2.0D-05,  1.2D-05, r^2= 1.1D+01
   Bfn.  Coefficient  Atom+Function         Bfn.  Coefficient  Atom+Function  
  ----- ------------  ---------------      ----- ------------  ---------------
    20      2.511447  1 Sc py                57     -1.437276  1 Sc fxxy       
    64     -1.410780  1 Sc fyzz              62     -1.375818  1 Sc fyyy       
    21     -1.029622  1 Sc pz                58      0.589254  1 Sc fxxz       
    65      0.588090  1 Sc fzzz              19     -0.518907  1 Sc px         
    63      0.506233  1 Sc fyyz              17     -0.479025  1 Sc py         
 
 Vector   28  Occ=0.000000D+00  E= 2.782949D-01
              MO Center= -1.4D-06, -9.6D-06, -6.0D-05, r^2= 8.2D+00
   Bfn.  Coefficient  Atom+Function         Bfn.  Coefficient  Atom+Function  
  ----- ------------  ---------------      ----- ------------  ---------------
    36      4.338365  1 Sc dxz               35      1.555977  1 Sc dxy        
    73     -1.558798  1 Sc gxyyz             68     -1.532931  1 Sc gxxxz      
    75     -1.539510  1 Sc gxzzz             42     -1.503039  1 Sc dxz        
    38      1.032285  1 Sc dyz               30     -0.723458  1 Sc dxz        
    72     -0.563383  1 Sc gxyyy             24     -0.553179  1 Sc dxz        
 
 Vector   29  Occ=0.000000D+00  E= 2.839509D-01
              MO Center=  1.8D-05, -1.0D-05, -3.5D-05, r^2= 5.7D+00
   Bfn.  Coefficient  Atom+Function         Bfn.  Coefficient  Atom+Function  
  ----- ------------  ---------------      ----- ------------  ---------------
    58      1.925014  1 Sc fxxz              60      1.372956  1 Sc fxyz       
    65     -0.671890  1 Sc fzzz              57      0.585909  1 Sc fxxy       
    61      0.546570  1 Sc fxzz              64     -0.448519  1 Sc fyzz       
    59      0.434103  1 Sc fxyy              56     -0.325044  1 Sc fxxx       
    63     -0.311400  1 Sc fyyz              62     -0.100342  1 Sc fyyy       
 
 Vector   30  Occ=0.000000D+00  E= 2.839517D-01
              MO Center= -6.0D-06,  2.4D-05,  6.1D-05, r^2= 5.7D+00
   Bfn.  Coefficient  Atom+Function         Bfn.  Coefficient  Atom+Function  
  ----- ------------  ---------------      ----- ------------  ---------------
    61      1.834527  1 Sc fxzz              60      1.439070  1 Sc fxyz       
    58     -0.817819  1 Sc fxxz              56     -0.698993  1 Sc fxxx       
    57     -0.626868  1 Sc fxxy              64      0.537708  1 Sc fyzz       
    63      0.415425  1 Sc fyyz              59     -0.164208  1 Sc fxyy       
    65      0.142695  1 Sc fzzz              19      0.102939  1 Sc px         
 
 Vector   31  Occ=0.000000D+00  E= 2.853332D-01
              MO Center=  2.5D-06,  5.9D-06, -6.7D-06, r^2= 2.4D+01
   Bfn.  Coefficient  Atom+Function         Bfn.  Coefficient  Atom+Function  
  ----- ------------  ---------------      ----- ------------  ---------------
     5     97.581550  1 Sc s                  6    -87.858238  1 Sc s          
    43     20.758400  1 Sc dyy               40     20.598580  1 Sc dxx        
    45     20.619658  1 Sc dzz                4    -12.955986  1 Sc s          
    71     -8.816468  1 Sc gxxzz             69     -8.630445  1 Sc gxxyy      
    78     -8.602008  1 Sc gyyzz             37     -7.078341  1 Sc dyy        
 
 Vector   32  Occ=0.000000D+00  E= 2.879712D-01
              MO Center=  3.4D-05, -2.1D-05, -3.0D-05, r^2= 5.7D+00
   Bfn.  Coefficient  Atom+Function         Bfn.  Coefficient  Atom+Function  
  ----- ------------  ---------------      ----- ------------  ---------------
    60      2.540313  1 Sc fxyz              61     -1.320668  1 Sc fxzz       
    59      1.077527  1 Sc fxyy              63      0.640821  1 Sc fyyz       
    57     -0.626186  1 Sc fxxy              58     -0.491932  1 Sc fxxz       
    62      0.271309  1 Sc fyyy              64     -0.187759  1 Sc fyzz       
    56      0.081084  1 Sc fxxx              65     -0.049693  1 Sc fzzz       
 
 Vector   33  Occ=0.000000D+00  E= 2.937895D-01
              MO Center= -2.5D-05,  2.4D-05,  2.8D-05, r^2= 7.9D+00
   Bfn.  Coefficient  Atom+Function         Bfn.  Coefficient  Atom+Function  
  ----- ------------  ---------------      ----- ------------  ---------------
    34      2.310076  1 Sc dxx               39     -2.102524  1 Sc dzz        
    38     -1.593557  1 Sc dyz               35      1.210338  1 Sc dxy        
    78      0.845043  1 Sc gyyzz             66     -0.838791  1 Sc gxxxx      
    69     -0.776962  1 Sc gxxyy             40     -0.766932  1 Sc dxx        
    80      0.766114  1 Sc gzzzz             36      0.711459  1 Sc dxz        
 
 Vector   34  Occ=0.000000D+00  E= 2.946010D-01
              MO Center=  3.8D-06,  3.4D-05,  3.2D-05, r^2= 8.0D+00
   Bfn.  Coefficient  Atom+Function         Bfn.  Coefficient  Atom+Function  
  ----- ------------  ---------------      ----- ------------  ---------------
    35      4.237199  1 Sc dxy               36     -1.645813  1 Sc dxz        
    72     -1.553105  1 Sc gxyyy             67     -1.514505  1 Sc gxxxy      
    74     -1.510629  1 Sc gxyzz             41     -1.412477  1 Sc dxy        
    38     -0.925684  1 Sc dyz               34     -0.884497  1 Sc dxx        
    29     -0.702676  1 Sc dxy               73      0.655510  1 Sc gxyyz      
 
 Vector   35  Occ=0.000000D+00  E= 2.946045D-01
              MO Center=  5.3D-08, -2.0D-05, -9.8D-05, r^2= 8.0D+00
   Bfn.  Coefficient  Atom+Function         Bfn.  Coefficient  Atom+Function  
  ----- ------------  ---------------      ----- ------------  ---------------
    38      3.355379  1 Sc dyz               37      1.747050  1 Sc dyy        
    39     -1.681574  1 Sc dzz               77     -1.215425  1 Sc gyyyz      
    79     -1.218712  1 Sc gyzzz             70     -1.181149  1 Sc gxxyz      
    44     -1.118542  1 Sc dyz               36     -0.990166  1 Sc dxz        
    76     -0.642056  1 Sc gyyyy             71      0.611391  1 Sc gxxzz      
 
 Vector   36  Occ=0.000000D+00  E= 2.971465D-01
              MO Center= -4.4D-05,  2.2D-04, -1.3D-04, r^2= 8.5D+00
   Bfn.  Coefficient  Atom+Function         Bfn.  Coefficient  Atom+Function  
  ----- ------------  ---------------      ----- ------------  ---------------
     5     17.609844  1 Sc s                  6    -17.123547  1 Sc s          
    40      4.495011  1 Sc dxx               45      4.349286  1 Sc dzz        
    43      3.390007  1 Sc dyy               38     -2.836077  1 Sc dyz        
    34     -2.300520  1 Sc dxx                4     -2.200620  1 Sc s          
    78     -1.929494  1 Sc gyyzz             39     -1.863682  1 Sc dzz        
 
 Vector   37  Occ=0.000000D+00  E= 2.981696D-01
              MO Center= -2.6D-05,  6.9D-06,  7.5D-05, r^2= 5.7D+00
   Bfn.  Coefficient  Atom+Function         Bfn.  Coefficient  Atom+Function  
  ----- ------------  ---------------      ----- ------------  ---------------
    57      1.469464  1 Sc fxxy              63     -1.078225  1 Sc fyyz       
    64     -1.045747  1 Sc fyzz              59      0.917335  1 Sc fxyy       
    58     -0.781274  1 Sc fxxz              65      0.619814  1 Sc fzzz       
    60      0.372488  1 Sc fxyz              56     -0.341327  1 Sc fxxx       
    62     -0.141198  1 Sc fyyy              61      0.106613  1 Sc fxzz       
 
 Vector   38  Occ=0.000000D+00  E= 3.003123D-01
              MO Center=  3.3D-05, -2.4D-04,  1.3D-04, r^2= 5.7D+00
   Bfn.  Coefficient  Atom+Function         Bfn.  Coefficient  Atom+Function  
  ----- ------------  ---------------      ----- ------------  ---------------
    63      1.763254  1 Sc fyyz              57      1.072396  1 Sc fxxy       
    60     -0.951664  1 Sc fxyz              59      0.889568  1 Sc fxyy       
    62     -0.559018  1 Sc fyyy              58     -0.439540  1 Sc fxxz       
    65     -0.409039  1 Sc fzzz              64      0.368955  1 Sc fyzz       
    56     -0.254802  1 Sc fxxx              61     -0.076378  1 Sc fxzz       
 
 Vector   39  Occ=0.000000D+00  E= 3.028320D-01
              MO Center= -1.7D-05, -1.5D-05,  3.1D-05, r^2= 5.7D+00
   Bfn.  Coefficient  Atom+Function         Bfn.  Coefficient  Atom+Function  
  ----- ------------  ---------------      ----- ------------  ---------------
    59      1.562574  1 Sc fxyy              64      1.462008  1 Sc fyzz       
    63     -1.016842  1 Sc fyyz              60     -0.888749  1 Sc fxyz       
    57     -0.826240  1 Sc fxxy              58      0.394096  1 Sc fxxz       
    56     -0.355846  1 Sc fxxx              61     -0.255439  1 Sc fxzz       
    62     -0.224389  1 Sc fyyy              65      0.136848  1 Sc fzzz       
 
 Vector   40  Occ=0.000000D+00  E= 3.028333D-01
              MO Center=  2.1D-05, -8.5D-06,  2.7D-05, r^2= 5.7D+00
   Bfn.  Coefficient  Atom+Function         Bfn.  Coefficient  Atom+Function  
  ----- ------------  ---------------      ----- ------------  ---------------
    60      1.628904  1 Sc fxyz              64      1.405747  1 Sc fyzz       
    59     -0.886117  1 Sc fxyy              57      0.843816  1 Sc fxxy       
    62     -0.792911  1 Sc fyyy              63     -0.477101  1 Sc fyyz       
    61     -0.389644  1 Sc fxzz              56      0.356358  1 Sc fxxx       
    65      0.119854  1 Sc fzzz              58     -0.093269  1 Sc fxxz       
 
 Vector   41  Occ=0.000000D+00  E= 3.256782D-01
              MO Center= -5.6D-09,  5.8D-06, -8.2D-06, r^2= 2.6D+01
   Bfn.  Coefficient  Atom+Function         Bfn.  Coefficient  Atom+Function  
  ----- ------------  ---------------      ----- ------------  ---------------
     6    114.640396  1 Sc s                  5    -92.647011  1 Sc s          
    40    -28.193093  1 Sc dxx               43    -28.239291  1 Sc dyy        
    45    -28.199189  1 Sc dzz                4      8.827695  1 Sc s          
    69      6.757232  1 Sc gxxyy             71      6.756264  1 Sc gxxzz      
    78      6.751474  1 Sc gyyzz             28      4.281329  1 Sc dxx        
 
 Vector   42  Occ=0.000000D+00  E= 5.056262D-01
              MO Center= -4.6D-06,  6.0D-06,  3.1D-06, r^2= 7.2D+00
   Bfn.  Coefficient  Atom+Function         Bfn.  Coefficient  Atom+Function  
  ----- ------------  ---------------      ----- ------------  ---------------
    58     -2.472044  1 Sc fxxz              65     -2.411335  1 Sc fzzz       
    18      2.391476  1 Sc pz                63     -2.400571  1 Sc fyyz       
    21      2.046740  1 Sc pz                61      1.634180  1 Sc fxzz       
    56      1.619175  1 Sc fxxx              16     -1.597372  1 Sc px         
    59      1.594813  1 Sc fxyy              19     -1.367102  1 Sc px         
 
 Vector   43  Occ=0.000000D+00  E= 5.056271D-01
              MO Center=  8.0D-07,  4.1D-06, -4.4D-06, r^2= 7.2D+00
   Bfn.  Coefficient  Atom+Function         Bfn.  Coefficient  Atom+Function  
  ----- ------------  ---------------      ----- ------------  ---------------
    61     -2.484442  1 Sc fxzz              56     -2.436283  1 Sc fxxx       
    59     -2.435861  1 Sc fxyy              16      2.415694  1 Sc px         
    19      2.067451  1 Sc px                58     -1.352787  1 Sc fxxz       
    63     -1.349227  1 Sc fyyz              65     -1.342940  1 Sc fzzz       
    18      1.329574  1 Sc pz                21      1.137911  1 Sc pz         
 
 Vector   44  Occ=0.000000D+00  E= 5.211488D-01
              MO Center=  1.3D-06, -3.1D-06, -2.0D-06, r^2= 7.1D+00
   Bfn.  Coefficient  Atom+Function         Bfn.  Coefficient  Atom+Function  
  ----- ------------  ---------------      ----- ------------  ---------------
    17      2.692623  1 Sc py                57     -2.695950  1 Sc fxxy       
    62     -2.694214  1 Sc fyyy              64     -2.695219  1 Sc fyzz       
    20      2.261586  1 Sc py                18     -1.103869  1 Sc pz         
    58      1.105239  1 Sc fxxz              63      1.102869  1 Sc fyyz       
    65      1.105208  1 Sc fzzz              21     -0.927161  1 Sc pz         
 
 Vector   45  Occ=0.000000D+00  E= 7.943833D-01
              MO Center= -2.3D-07,  2.4D-06, -3.7D-06, r^2= 7.6D+00
   Bfn.  Coefficient  Atom+Function         Bfn.  Coefficient  Atom+Function  
  ----- ------------  ---------------      ----- ------------  ---------------
     5     22.618115  1 Sc s                  6     14.326287  1 Sc s          
    34     -9.508194  1 Sc dxx               39     -9.491278  1 Sc dzz        
    37     -9.378976  1 Sc dyy                4     -7.164022  1 Sc s          
    40     -4.156623  1 Sc dxx               43     -4.174659  1 Sc dyy        
    45     -4.158982  1 Sc dzz               31     -2.516234  1 Sc dyy        
 
 Vector   46  Occ=0.000000D+00  E= 8.194890D-01
              MO Center= -2.0D-06,  1.2D-06,  2.1D-06, r^2= 4.8D+00
   Bfn.  Coefficient  Atom+Function         Bfn.  Coefficient  Atom+Function  
  ----- ------------  ---------------      ----- ------------  ---------------
    36      5.730272  1 Sc dxz               68     -4.005412  1 Sc gxxxz      
    75     -3.979687  1 Sc gxzzz             73     -3.904188  1 Sc gxyyz      
    35      2.054850  1 Sc dxy               74     -1.561564  1 Sc gxyzz      
    67     -1.426414  1 Sc gxxxy             72     -1.383164  1 Sc gxyyy      
    38      1.363948  1 Sc dyz               70     -0.994918  1 Sc gxxyz      
 
 Vector   47  Occ=0.000000D+00  E= 8.426993D-01
              MO Center= -1.1D-06, -3.9D-06,  8.8D-07, r^2= 4.7D+00
   Bfn.  Coefficient  Atom+Function         Bfn.  Coefficient  Atom+Function  
  ----- ------------  ---------------      ----- ------------  ---------------
    35      5.444337  1 Sc dxy               74     -3.940169  1 Sc gxyzz      
    67     -3.842075  1 Sc gxxxy             72     -3.738582  1 Sc gxyyy      
    36     -2.129386  1 Sc dxz               75      1.588611  1 Sc gxzzz      
    68      1.478214  1 Sc gxxxz             73      1.235411  1 Sc gxyyz      
    34     -1.164880  1 Sc dxx               38     -1.167055  1 Sc dyz        
 
 Vector   48  Occ=0.000000D+00  E= 8.427034D-01
              MO Center=  7.8D-07, -2.5D-06,  3.4D-06, r^2= 4.7D+00
   Bfn.  Coefficient  Atom+Function         Bfn.  Coefficient  Atom+Function  
  ----- ------------  ---------------      ----- ------------  ---------------
    38      4.334632  1 Sc dyz               70     -3.205801  1 Sc gxxyz      
    77     -3.018054  1 Sc gyyyz             79     -2.994575  1 Sc gyzzz      
    37      2.250251  1 Sc dyy               39     -2.151826  1 Sc dzz        
    71      1.686328  1 Sc gxxzz             69     -1.584225  1 Sc gxxyy      
    76     -1.539751  1 Sc gyyyy             80      1.510850  1 Sc gzzzz      
 
 Vector   49  Occ=0.000000D+00  E= 8.453849D-01
              MO Center=  7.7D-07, -6.8D-06,  2.8D-06, r^2= 4.7D+00
   Bfn.  Coefficient  Atom+Function         Bfn.  Coefficient  Atom+Function  
  ----- ------------  ---------------      ----- ------------  ---------------
    38      3.702152  1 Sc dyz               37     -2.938489  1 Sc dyy        
    70     -2.715105  1 Sc gxxyz             79     -2.603882  1 Sc gyzzz      
    77     -2.522541  1 Sc gyyyz             71     -2.032919  1 Sc gxxzz      
    35      1.856063  1 Sc dxy               76      1.854923  1 Sc gyyyy      
    34      1.369312  1 Sc dxx               74     -1.370773  1 Sc gxyzz      
 
 Vector   50  Occ=0.000000D+00  E= 8.466707D-01
              MO Center= -1.4D-06,  1.1D-06,  1.7D-06, r^2= 4.7D+00
   Bfn.  Coefficient  Atom+Function         Bfn.  Coefficient  Atom+Function  
  ----- ------------  ---------------      ----- ------------  ---------------
    34      2.964295  1 Sc dxx               39     -2.710249  1 Sc dzz        
    66     -2.091734  1 Sc gxxxx             78      2.069220  1 Sc gyyzz      
    38     -2.025676  1 Sc dyz               80      1.903814  1 Sc gzzzz      
    69     -1.860976  1 Sc gxxyy             35      1.606137  1 Sc dxy        
    79      1.475163  1 Sc gyzzz             77      1.388564  1 Sc gyyyz      
 
 Vector   51  Occ=0.000000D+00  E= 1.007856D+00
              MO Center=  2.5D-07,  3.0D-07,  6.1D-07, r^2= 3.1D+00
   Bfn.  Coefficient  Atom+Function         Bfn.  Coefficient  Atom+Function  
  ----- ------------  ---------------      ----- ------------  ---------------
    70      2.423775  1 Sc gxxyz             68      2.405509  1 Sc gxxxz      
    74     -2.305941  1 Sc gxyzz             75     -2.257305  1 Sc gxzzz      
    71      1.136450  1 Sc gxxzz             67      0.729796  1 Sc gxxxy      
    69      0.723176  1 Sc gxxyy             78     -0.613330  1 Sc gyyzz      
    79     -0.609645  1 Sc gyzzz             73     -0.444641  1 Sc gxyyz      
 
 Vector   52  Occ=0.000000D+00  E= 1.013554D+00
              MO Center=  3.4D-07,  3.7D-07,  6.3D-07, r^2= 3.1D+00
   Bfn.  Coefficient  Atom+Function         Bfn.  Coefficient  Atom+Function  
  ----- ------------  ---------------      ----- ------------  ---------------
    71      3.433039  1 Sc gxxzz             70      2.358046  1 Sc gxxyz      
    74      2.051195  1 Sc gxyzz             73      1.630536  1 Sc gxyyz      
    68     -1.015730  1 Sc gxxxz             67     -0.825907  1 Sc gxxxy      
    79     -0.680369  1 Sc gyzzz              5     -0.631475  1 Sc s          
    66     -0.625852  1 Sc gxxxx             80     -0.571842  1 Sc gzzzz      
 
 Vector   53  Occ=0.000000D+00  E= 1.016124D+00
              MO Center=  2.2D-07,  1.9D-07,  3.5D-07, r^2= 3.1D+00
   Bfn.  Coefficient  Atom+Function         Bfn.  Coefficient  Atom+Function  
  ----- ------------  ---------------      ----- ------------  ---------------
    70      3.606264  1 Sc gxxyz             73      2.945800  1 Sc gxyyz      
    71     -2.248888  1 Sc gxxzz             69      1.317955  1 Sc gxxyy      
    72      1.127985  1 Sc gxyyy             67     -1.061153  1 Sc gxxxy      
    79     -1.005832  1 Sc gyzzz             68     -0.710506  1 Sc gxxxz      
    80      0.532029  1 Sc gzzzz             77     -0.526611  1 Sc gyyyz      
 
 Vector   54  Occ=0.000000D+00  E= 1.016125D+00
              MO Center= -1.4D-07,  1.9D-07,  5.3D-07, r^2= 3.1D+00
   Bfn.  Coefficient  Atom+Function         Bfn.  Coefficient  Atom+Function  
  ----- ------------  ---------------      ----- ------------  ---------------
    73      3.631945  1 Sc gxyyz             74      2.875194  1 Sc gxyzz      
    70     -2.156726  1 Sc gxxyz             75     -1.971739  1 Sc gxzzz      
    69     -1.181164  1 Sc gxxyy             67     -1.055285  1 Sc gxxxy      
    77      1.009266  1 Sc gyyyz             68      0.929473  1 Sc gxxxz      
    78      0.877230  1 Sc gyyzz             72     -0.305691  1 Sc gxyyy      
 
 Vector   55  Occ=0.000000D+00  E= 1.019472D+00
              MO Center= -6.7D-08,  2.7D-07,  2.6D-07, r^2= 3.1D+00
   Bfn.  Coefficient  Atom+Function         Bfn.  Coefficient  Atom+Function  
  ----- ------------  ---------------      ----- ------------  ---------------
    74      4.593864  1 Sc gxyzz             73     -2.733201  1 Sc gxyyz      
    70      1.609179  1 Sc gxxyz             72     -1.562403  1 Sc gxyyy      
    69      1.528101  1 Sc gxxyy             71     -0.949465  1 Sc gxxzz      
    78      0.939373  1 Sc gyyzz             68      0.759981  1 Sc gxxxz      
    77     -0.763448  1 Sc gyyyz             76     -0.423273  1 Sc gyyyy      
 
 Vector   56  Occ=0.000000D+00  E= 1.026615D+00
              MO Center=  3.4D-08, -5.9D-07,  6.1D-07, r^2= 3.1D+00
   Bfn.  Coefficient  Atom+Function         Bfn.  Coefficient  Atom+Function  
  ----- ------------  ---------------      ----- ------------  ---------------
    77     -2.384815  1 Sc gyyyz             73      2.348171  1 Sc gxyyz      
    79      1.749931  1 Sc gyzzz             69     -1.697777  1 Sc gxxyy      
    70      1.593234  1 Sc gxxyz             67      1.249039  1 Sc gxxxy      
    72     -1.225226  1 Sc gxyyy              5     -0.455873  1 Sc s          
    75     -0.406272  1 Sc gxzzz             68     -0.355000  1 Sc gxxxz      
 
 Vector   57  Occ=0.000000D+00  E= 1.033588D+00
              MO Center= -6.2D-08,  4.4D-07,  1.6D-07, r^2= 3.1D+00
   Bfn.  Coefficient  Atom+Function         Bfn.  Coefficient  Atom+Function  
  ----- ------------  ---------------      ----- ------------  ---------------
    78      3.914805  1 Sc gyyzz             74     -1.469325  1 Sc gxyzz      
    72      1.310248  1 Sc gxyyy             70      1.107116  1 Sc gxxyz      
    69     -1.066442  1 Sc gxxyy             73     -0.956862  1 Sc gxyyz      
    67     -0.675512  1 Sc gxxxy             80     -0.593261  1 Sc gzzzz      
    77     -0.548583  1 Sc gyyyz             76     -0.510215  1 Sc gyyyy      
 
 Vector   58  Occ=0.000000D+00  E= 1.033589D+00
              MO Center=  2.9D-07,  4.7D-07,  3.5D-08, r^2= 3.1D+00
   Bfn.  Coefficient  Atom+Function         Bfn.  Coefficient  Atom+Function  
  ----- ------------  ---------------      ----- ------------  ---------------
    73      2.818877  1 Sc gxyyz             69      2.544899  1 Sc gxxyy      
    67      1.516148  1 Sc gxxxy             74     -1.515163  1 Sc gxyzz      
    78      1.470999  1 Sc gyyzz             70     -1.442020  1 Sc gxxyz      
    72     -1.235104  1 Sc gxyyy             68     -0.804356  1 Sc gxxxz      
    76     -0.716044  1 Sc gyyyy             77      0.469497  1 Sc gyyyz      
 
 Vector   59  Occ=0.000000D+00  E= 1.034997D+00
              MO Center= -3.0D-08,  4.6D-07,  1.1D-07, r^2= 3.1D+00
   Bfn.  Coefficient  Atom+Function         Bfn.  Coefficient  Atom+Function  
  ----- ------------  ---------------      ----- ------------  ---------------
    70      2.346753  1 Sc gxxyz             79     -2.254025  1 Sc gyzzz      
    69     -1.904160  1 Sc gxxyy             77      1.541876  1 Sc gyyyz      
    72     -1.480921  1 Sc gxyyy             67      1.444643  1 Sc gxxxy      
    78      0.630226  1 Sc gyyzz             71     -0.506023  1 Sc gxxzz      
    75      0.461109  1 Sc gxzzz             68     -0.408538  1 Sc gxxxz      
 
 Vector   60  Occ=0.000000D+00  E= 1.278340D+00
              MO Center=  1.1D-07, -1.3D-06,  2.1D-06, r^2= 1.8D+00
   Bfn.  Coefficient  Atom+Function         Bfn.  Coefficient  Atom+Function  
  ----- ------------  ---------------      ----- ------------  ---------------
    50      2.730013  1 Sc fxyz              51     -1.417545  1 Sc fxzz       
    49      1.154075  1 Sc fxyy              60     -1.011346  1 Sc fxyz       
    53      0.695013  1 Sc fyyz              47     -0.679915  1 Sc fxxy       
    48     -0.549509  1 Sc fxxz              61      0.526024  1 Sc fxzz       
    59     -0.426639  1 Sc fxyy              52      0.293723  1 Sc fyyy       
 
 Vector   61  Occ=0.000000D+00  E= 1.278585D+00
              MO Center= -2.2D-07, -5.7D-07,  1.9D-06, r^2= 1.9D+00
   Bfn.  Coefficient  Atom+Function         Bfn.  Coefficient  Atom+Function  
  ----- ------------  ---------------      ----- ------------  ---------------
    48      2.445315  1 Sc fxxz              49      0.747830  1 Sc fxyy       
    47      0.727085  1 Sc fxxy              58     -0.682860  1 Sc fxxz       
    53     -0.638231  1 Sc fyyz              50      0.612843  1 Sc fxyz       
    51     -0.532817  1 Sc fxzz              63      0.464148  1 Sc fyyz       
    55     -0.419830  1 Sc fzzz              59     -0.390338  1 Sc fxyy       
 
 Vector   62  Occ=0.000000D+00  E= 1.278587D+00
              MO Center=  2.4D-07, -3.8D-07,  2.1D-06, r^2= 1.9D+00
   Bfn.  Coefficient  Atom+Function         Bfn.  Coefficient  Atom+Function  
  ----- ------------  ---------------      ----- ------------  ---------------
    50      2.552411  1 Sc fxyz              51      2.056386  1 Sc fxzz       
    60     -0.949222  1 Sc fxyz              54      0.620559  1 Sc fyzz       
    61     -0.532998  1 Sc fxzz              46     -0.418285  1 Sc fxxx       
    56      0.388096  1 Sc fxxx              16     -0.332423  1 Sc px         
    59      0.321592  1 Sc fxyy              53      0.318432  1 Sc fyyz       
 
 Vector   63  Occ=0.000000D+00  E= 1.293378D+00
              MO Center=  7.3D-07, -3.8D-06,  2.6D-06, r^2= 1.8D+00
   Bfn.  Coefficient  Atom+Function         Bfn.  Coefficient  Atom+Function  
  ----- ------------  ---------------      ----- ------------  ---------------
    53      1.870572  1 Sc fyyz              47      1.221689  1 Sc fxxy       
    50     -1.024751  1 Sc fxyz              49      0.943825  1 Sc fxyy       
    63     -0.705967  1 Sc fyyz              52     -0.534170  1 Sc fyyy       
    48     -0.500786  1 Sc fxxz              55     -0.468091  1 Sc fzzz       
    54      0.465062  1 Sc fyzz              57     -0.404760  1 Sc fxxy       
 
 Vector   64  Occ=0.000000D+00  E= 1.301417D+00
              MO Center=  4.0D-07, -2.4D-06,  1.7D-06, r^2= 1.8D+00
   Bfn.  Coefficient  Atom+Function         Bfn.  Coefficient  Atom+Function  
  ----- ------------  ---------------      ----- ------------  ---------------
    49      1.656429  1 Sc fxyy              47     -1.350641  1 Sc fxxy       
    54      1.167396  1 Sc fyzz              50     -1.127243  1 Sc fxyz       
    46     -0.674767  1 Sc fxxx              53     -0.634912  1 Sc fyyz       
    59     -0.613133  1 Sc fxyy              57      0.493159  1 Sc fxxy       
    64     -0.426673  1 Sc fyzz              60      0.411481  1 Sc fxyz       
 
 Vector   65  Occ=0.000000D+00  E= 1.301420D+00
              MO Center=  5.8D-07, -2.1D-06,  2.5D-06, r^2= 1.8D+00
   Bfn.  Coefficient  Atom+Function         Bfn.  Coefficient  Atom+Function  
  ----- ------------  ---------------      ----- ------------  ---------------
    54      1.928621  1 Sc fyzz              51     -0.853681  1 Sc fxzz       
    52     -0.791546  1 Sc fyyy              53     -0.721793  1 Sc fyyz       
    64     -0.700542  1 Sc fyzz              50      0.660271  1 Sc fxyz       
    47      0.454925  1 Sc fxxy              46      0.431619  1 Sc fxxx       
    49     -0.433304  1 Sc fxyy              48     -0.420630  1 Sc fxxz       
 
 Vector   66  Occ=0.000000D+00  E= 1.310106D+00
              MO Center=  2.7D-07, -1.3D-06,  1.7D-06, r^2= 1.8D+00
   Bfn.  Coefficient  Atom+Function         Bfn.  Coefficient  Atom+Function  
  ----- ------------  ---------------      ----- ------------  ---------------
    47      1.575958  1 Sc fxxy              53     -1.156589  1 Sc fyyz       
    54     -1.122872  1 Sc fyzz              49      0.985323  1 Sc fxyy       
    48     -0.838127  1 Sc fxxz              55      0.664885  1 Sc fzzz       
    57     -0.571365  1 Sc fxxy              63      0.419294  1 Sc fyyz       
    64      0.407059  1 Sc fyzz              50      0.398126  1 Sc fxyz       
 
 Vector   67  Occ=0.000000D+00  E= 1.431744D+00
              MO Center=  1.1D-06,  2.5D-06, -3.1D-06, r^2= 3.6D+00
   Bfn.  Coefficient  Atom+Function         Bfn.  Coefficient  Atom+Function  
  ----- ------------  ---------------      ----- ------------  ---------------
    16      4.535079  1 Sc px                61     -2.513337  1 Sc fxzz       
    56     -2.465061  1 Sc fxxx              59     -2.453270  1 Sc fxyy       
    49     -1.701571  1 Sc fxyy              46     -1.676192  1 Sc fxxx       
    19      1.529072  1 Sc px                51     -1.534922  1 Sc fxzz       
    18     -1.433652  1 Sc pz                13     -1.053351  1 Sc px         
 
 Vector   68  Occ=0.000000D+00  E= 1.431746D+00
              MO Center= -5.8D-09,  2.2D-06, -3.3D-06, r^2= 3.6D+00
   Bfn.  Coefficient  Atom+Function         Bfn.  Coefficient  Atom+Function  
  ----- ------------  ---------------      ----- ------------  ---------------
    18      4.186759  1 Sc pz                58     -2.323922  1 Sc fxxz       
    63     -2.272856  1 Sc fyyz              65     -2.271854  1 Sc fzzz       
    17      1.958898  1 Sc py                53     -1.550702  1 Sc fyyz       
    55     -1.557619  1 Sc fzzz              21      1.411631  1 Sc pz         
    48     -1.406698  1 Sc fxxz              16      1.173392  1 Sc px         
 
 Vector   69  Occ=0.000000D+00  E= 1.437408D+00
              MO Center=  2.0D-07,  3.9D-06, -3.4D-06, r^2= 3.6D+00
   Bfn.  Coefficient  Atom+Function         Bfn.  Coefficient  Atom+Function  
  ----- ------------  ---------------      ----- ------------  ---------------
    17      4.346615  1 Sc py                57     -2.372181  1 Sc fxxy       
    62     -2.363560  1 Sc fyyy              64     -2.368467  1 Sc fyzz       
    18     -1.782398  1 Sc pz                52     -1.581098  1 Sc fyyy       
    47     -1.569369  1 Sc fxxy              54     -1.574414  1 Sc fyzz       
    20      1.461676  1 Sc py                14     -1.019590  1 Sc py         
 
 Vector   70  Occ=0.000000D+00  E= 1.721096D+00
              MO Center=  6.0D-07, -2.4D-06,  3.8D-06, r^2= 4.5D+00
   Bfn.  Coefficient  Atom+Function         Bfn.  Coefficient  Atom+Function  
  ----- ------------  ---------------      ----- ------------  ---------------
     5     26.316572  1 Sc s                 34    -10.975808  1 Sc dxx        
    37    -10.997444  1 Sc dyy               39    -10.978627  1 Sc dzz        
     6      9.213079  1 Sc s                  4     -6.805638  1 Sc s          
    28     -3.667135  1 Sc dxx               31     -3.660170  1 Sc dyy        
    33     -3.666214  1 Sc dzz               40     -2.753773  1 Sc dxx        
 
 Vector   71  Occ=0.000000D+00  E= 2.035574D+00
              MO Center= -1.0D-07,  7.2D-07,  2.5D-06, r^2= 2.2D+00
   Bfn.  Coefficient  Atom+Function         Bfn.  Coefficient  Atom+Function  
  ----- ------------  ---------------      ----- ------------  ---------------
    36      3.987314  1 Sc dxz               68     -3.749870  1 Sc gxxxz      
    73     -3.735310  1 Sc gxyyz             75     -3.746164  1 Sc gxzzz      
    30      2.225917  1 Sc dxz               24     -1.522331  1 Sc dxz        
    35      1.429443  1 Sc dxy               74     -1.362330  1 Sc gxyzz      
    67     -1.342896  1 Sc gxxxy             72     -1.336670  1 Sc gxyyy      
 
 Vector   72  Occ=0.000000D+00  E= 2.047381D+00
              MO Center= -1.5D-07, -3.1D-06,  1.5D-06, r^2= 2.2D+00
   Bfn.  Coefficient  Atom+Function         Bfn.  Coefficient  Atom+Function  
  ----- ------------  ---------------      ----- ------------  ---------------
    35      3.786807  1 Sc dxy               67     -3.559601  1 Sc gxxxy      
    72     -3.569992  1 Sc gxyyy             74     -3.573740  1 Sc gxyzz      
    29      2.142212  1 Sc dxy               36     -1.525331  1 Sc dxz        
    23     -1.460152  1 Sc dxy               75      1.440325  1 Sc gxzzz      
    68      1.432277  1 Sc gxxxz             73      1.437134  1 Sc gxyyz      
 
 Vector   73  Occ=0.000000D+00  E= 2.047387D+00
              MO Center=  6.6D-07, -2.3D-06,  3.2D-06, r^2= 2.2D+00
   Bfn.  Coefficient  Atom+Function         Bfn.  Coefficient  Atom+Function  
  ----- ------------  ---------------      ----- ------------  ---------------
    38      3.041748  1 Sc dyz               70     -2.871026  1 Sc gxxyz      
    77     -2.864177  1 Sc gyyyz             79     -2.862553  1 Sc gyzzz      
    32      1.720803  1 Sc dyz               37      1.537636  1 Sc dyy        
    39     -1.509388  1 Sc dzz               71      1.452762  1 Sc gxxzz      
    76     -1.449783  1 Sc gyyyy             69     -1.423038  1 Sc gxxyy      
 
 Vector   74  Occ=0.000000D+00  E= 2.047770D+00
              MO Center=  7.2D-07, -3.3D-06,  2.4D-06, r^2= 2.2D+00
   Bfn.  Coefficient  Atom+Function         Bfn.  Coefficient  Atom+Function  
  ----- ------------  ---------------      ----- ------------  ---------------
    38      2.602539  1 Sc dyz               70     -2.455948  1 Sc gxxyz      
    77     -2.453137  1 Sc gyyyz             79     -2.441499  1 Sc gyzzz      
    37     -1.866889  1 Sc dyy               71     -1.779422  1 Sc gxxzz      
    76      1.775271  1 Sc gyyyy             32      1.460885  1 Sc dyz        
    35      1.281203  1 Sc dxy               74     -1.215594  1 Sc gxyzz      
 
 Vector   75  Occ=0.000000D+00  E= 2.059275D+00
              MO Center= -5.0D-07,  4.3D-07,  2.0D-06, r^2= 2.2D+00
   Bfn.  Coefficient  Atom+Function         Bfn.  Coefficient  Atom+Function  
  ----- ------------  ---------------      ----- ------------  ---------------
    34      2.046886  1 Sc dxx               66     -1.928377  1 Sc gxxxx      
    78      1.927823  1 Sc gyyzz             39     -1.872813  1 Sc dzz        
    69     -1.763060  1 Sc gxxyy             80      1.764164  1 Sc gzzzz      
    38     -1.406201  1 Sc dyz               70      1.323274  1 Sc gxxyz      
    77      1.323745  1 Sc gyyyz             79      1.325947  1 Sc gyzzz      
 
 Vector   76  Occ=0.000000D+00  E= 4.125709D+00
              MO Center= -2.0D-07,  1.4D-06, -5.4D-07, r^2= 1.3D+00
   Bfn.  Coefficient  Atom+Function         Bfn.  Coefficient  Atom+Function  
  ----- ------------  ---------------      ----- ------------  ---------------
    14      9.634614  1 Sc py                47     -5.903609  1 Sc fxxy       
    52     -5.904506  1 Sc fyyy              54     -5.903996  1 Sc fyzz       
    15     -3.948562  1 Sc pz                11     -3.454467  1 Sc py         
    48      2.419476  1 Sc fxxz              53      2.420691  1 Sc fyyz       
    55      2.419499  1 Sc fzzz              13     -1.994432  1 Sc px         
 
 Vector   77  Occ=0.000000D+00  E= 4.136208D+00
[...]
 
 Vector   60  Occ=0.000000D+00  E= 1.297701D+00
              MO Center=  5.4D-07, -2.0D-06,  2.4D-06, r^2= 1.8D+00
   Bfn.  Coefficient  Atom+Function         Bfn.  Coefficient  Atom+Function  
  ----- ------------  ---------------      ----- ------------  ---------------
    53      1.912373  1 Sc fyyz              47      1.108139  1 Sc fxxy       
    50     -1.022784  1 Sc fxyz              49      0.965085  1 Sc fxyy       
    52     -0.644668  1 Sc fyyy              57     -0.624056  1 Sc fxxy       
    63     -0.616913  1 Sc fyyz              48     -0.454165  1 Sc fxxz       
    55     -0.421378  1 Sc fzzz              60      0.377169  1 Sc fxyz       
 
 Vector   61  Occ=0.000000D+00  E= 1.299821D+00
              MO Center=  4.2D-07, -2.2D-06,  1.6D-06, r^2= 1.8D+00
   Bfn.  Coefficient  Atom+Function         Bfn.  Coefficient  Atom+Function  
  ----- ------------  ---------------      ----- ------------  ---------------
    50     -1.911375  1 Sc fxyz              49      1.872925  1 Sc fxyy       
    47     -1.246282  1 Sc fxxy              60      0.703866  1 Sc fxyz       
    59     -0.572158  1 Sc fxyy              46     -0.542563  1 Sc fxxx       
    53     -0.512560  1 Sc fyyz              57      0.477786  1 Sc fxxy       
    48      0.420852  1 Sc fxxz              52      0.363309  1 Sc fyyy       
 
 Vector   62  Occ=0.000000D+00  E= 1.299823D+00
              MO Center=  4.4D-07, -1.4D-06,  3.5D-06, r^2= 1.8D+00
   Bfn.  Coefficient  Atom+Function         Bfn.  Coefficient  Atom+Function  
  ----- ------------  ---------------      ----- ------------  ---------------
    54      2.162779  1 Sc fyzz              53     -1.082753  1 Sc fyyz       
    64     -0.839653  1 Sc fyzz              52     -0.797626  1 Sc fyyy       
    50      0.765317  1 Sc fxyz              51     -0.475587  1 Sc fxzz       
    49      0.378680  1 Sc fxyy              48      0.293183  1 Sc fxxz       
    63      0.288558  1 Sc fyyz              60     -0.282617  1 Sc fxyz       
 
 Vector   63  Occ=0.000000D+00  E= 1.310311D+00
              MO Center=  3.1D-07, -1.2D-06,  2.2D-06, r^2= 1.8D+00
   Bfn.  Coefficient  Atom+Function         Bfn.  Coefficient  Atom+Function  
  ----- ------------  ---------------      ----- ------------  ---------------
    47      1.576131  1 Sc fxxy              53     -1.156967  1 Sc fyyz       
    54     -1.122531  1 Sc fyzz              49      0.984764  1 Sc fxyy       
    48     -0.837982  1 Sc fxxz              55      0.664955  1 Sc fzzz       
    57     -0.572464  1 Sc fxxy              63      0.420199  1 Sc fyyz       
    64      0.407738  1 Sc fyzz              50      0.399010  1 Sc fxyz       
 
 Vector   64  Occ=0.000000D+00  E= 1.318309D+00
              MO Center=  4.2D-07, -1.2D-06,  2.4D-06, r^2= 1.8D+00
   Bfn.  Coefficient  Atom+Function         Bfn.  Coefficient  Atom+Function  
  ----- ------------  ---------------      ----- ------------  ---------------
    50      2.734721  1 Sc fxyz              51     -1.421337  1 Sc fxzz       
    49      1.159760  1 Sc fxyy              60     -0.990807  1 Sc fxyz       
    53      0.690301  1 Sc fyyz              47     -0.674367  1 Sc fxxy       
    48     -0.531309  1 Sc fxxz              61      0.514976  1 Sc fxzz       
    59     -0.420170  1 Sc fxyy              52      0.292149  1 Sc fyyy       
 
 Vector   65  Occ=0.000000D+00  E= 1.327686D+00
              MO Center=  3.0D-08,  4.7D-07,  2.7D-06, r^2= 1.8D+00
   Bfn.  Coefficient  Atom+Function         Bfn.  Coefficient  Atom+Function  
  ----- ------------  ---------------      ----- ------------  ---------------
    48      2.161697  1 Sc fxxz              50      1.380930  1 Sc fxyz       
    58     -0.856731  1 Sc fxxz              47      0.684515  1 Sc fxxy       
    55     -0.683730  1 Sc fzzz              54     -0.558589  1 Sc fyzz       
    60     -0.501691  1 Sc fxyz              51      0.497348  1 Sc fxzz       
    49      0.457375  1 Sc fxyy              46     -0.314663  1 Sc fxxx       
 
 Vector   66  Occ=0.000000D+00  E= 1.327688D+00
              MO Center= -1.9D-07,  6.7D-07,  3.3D-06, r^2= 1.8D+00
   Bfn.  Coefficient  Atom+Function         Bfn.  Coefficient  Atom+Function  
  ----- ------------  ---------------      ----- ------------  ---------------
    51      2.062987  1 Sc fxzz              50      1.563987  1 Sc fxyz       
    61     -0.824835  1 Sc fxzz              48     -0.762113  1 Sc fxxz       
    46     -0.730376  1 Sc fxxx              47     -0.669952  1 Sc fxxy       
    54      0.567245  1 Sc fyzz              60     -0.569176  1 Sc fxyz       
    53      0.416123  1 Sc fyyz              58      0.277809  1 Sc fxxz       
 
 Vector   67  Occ=0.000000D+00  E= 1.437834D+00
              MO Center=  4.3D-07,  3.2D-06, -3.6D-06, r^2= 3.6D+00
   Bfn.  Coefficient  Atom+Function         Bfn.  Coefficient  Atom+Function  
  ----- ------------  ---------------      ----- ------------  ---------------
    17      4.325154  1 Sc py                62     -2.367701  1 Sc fyyy       
    64     -2.346250  1 Sc fyzz              57     -2.330011  1 Sc fxxy       
    18     -1.772667  1 Sc pz                47     -1.640264  1 Sc fxxy       
    54     -1.595290  1 Sc fyzz              52     -1.535896  1 Sc fyyy       
    20      1.456485  1 Sc py                14     -1.023796  1 Sc py         
 
 Vector   68  Occ=0.000000D+00  E= 1.457889D+00
              MO Center=  1.6D-06,  2.6D-06, -2.8D-06, r^2= 3.6D+00
   Bfn.  Coefficient  Atom+Function         Bfn.  Coefficient  Atom+Function  
  ----- ------------  ---------------      ----- ------------  ---------------
    16      4.657140  1 Sc px                59     -2.553103  1 Sc fxyy       
    56     -2.526688  1 Sc fxxx              61     -2.509016  1 Sc fxzz       
    51     -1.761630  1 Sc fxzz              46     -1.713380  1 Sc fxxx       
    49     -1.657469  1 Sc fxyy              19      1.559070  1 Sc px         
    13     -1.062510  1 Sc px                18     -0.744286  1 Sc pz         
 
 Vector   69  Occ=0.000000D+00  E= 1.457893D+00
              MO Center=  1.6D-07,  2.2D-06, -3.1D-06, r^2= 3.6D+00
   Bfn.  Coefficient  Atom+Function         Bfn.  Coefficient  Atom+Function  
  ----- ------------  ---------------      ----- ------------  ---------------
    18      4.356212  1 Sc pz                63     -2.379452  1 Sc fyyz       
    65     -2.367659  1 Sc fzzz              58     -2.342844  1 Sc fxxz       
    17      1.874603  1 Sc py                48     -1.657310  1 Sc fxxz       
    55     -1.593275  1 Sc fzzz              53     -1.569032  1 Sc fyyz       
    21      1.458325  1 Sc pz                62     -1.028610  1 Sc fyyy       
 
 Vector   70  Occ=0.000000D+00  E= 1.738378D+00
              MO Center=  5.9D-07, -2.7D-06,  3.9D-06, r^2= 4.4D+00
   Bfn.  Coefficient  Atom+Function         Bfn.  Coefficient  Atom+Function  
  ----- ------------  ---------------      ----- ------------  ---------------
     5     26.274216  1 Sc s                 37    -11.005120  1 Sc dyy        
    34    -10.924534  1 Sc dxx               39    -10.935051  1 Sc dzz        
     6      9.133408  1 Sc s                  4     -6.773850  1 Sc s          
    31     -3.702105  1 Sc dyy               28     -3.636210  1 Sc dxx        
    33     -3.644825  1 Sc dzz               40     -2.734862  1 Sc dxx        
 
 Vector   71  Occ=0.000000D+00  E= 2.059816D+00
              MO Center= -9.2D-08, -3.2D-06,  1.5D-06, r^2= 2.2D+00
   Bfn.  Coefficient  Atom+Function         Bfn.  Coefficient  Atom+Function  
  ----- ------------  ---------------      ----- ------------  ---------------
    35      3.748860  1 Sc dxy               67     -3.530701  1 Sc gxxxy      
    72     -3.534590  1 Sc gxyyy             74     -3.535312  1 Sc gxyzz      
    29      2.129732  1 Sc dxy               36     -1.560823  1 Sc dxz        
    68      1.469588  1 Sc gxxxz             73      1.472027  1 Sc gxyyz      
    75      1.471979  1 Sc gxzzz             23     -1.454516  1 Sc dxy        
 
 Vector   72  Occ=0.000000D+00  E= 2.059820D+00
              MO Center=  5.3D-07, -2.2D-06,  3.7D-06, r^2= 2.2D+00
   Bfn.  Coefficient  Atom+Function         Bfn.  Coefficient  Atom+Function  
  ----- ------------  ---------------      ----- ------------  ---------------
    38      3.069135  1 Sc dyz               70     -2.894044  1 Sc gxxyz      
    77     -2.892417  1 Sc gyyyz             79     -2.891926  1 Sc gyzzz      
    32      1.743595  1 Sc dyz               39     -1.509113  1 Sc dzz        
    37      1.487803  1 Sc dyy               69     -1.422403  1 Sc gxxyy      
    80      1.421020  1 Sc gzzzz             71      1.403692  1 Sc gxxzz      
 
 Vector   73  Occ=0.000000D+00  E= 2.060790D+00
              MO Center=  7.7D-07, -3.6D-06,  2.2D-06, r^2= 2.2D+00
   Bfn.  Coefficient  Atom+Function         Bfn.  Coefficient  Atom+Function  
  ----- ------------  ---------------      ----- ------------  ---------------
    38      2.581504  1 Sc dyz               77     -2.439298  1 Sc gyyyz      
    70     -2.421583  1 Sc gxxyz             79     -2.423511  1 Sc gyzzz      
    71     -1.839580  1 Sc gxxzz             76      1.728945  1 Sc gyyyy      
    37     -1.522006  1 Sc dyy               34      1.490286  1 Sc dxx        
    32      1.452932  1 Sc dyz               35      1.295320  1 Sc dxy        
 
 Vector   74  Occ=0.000000D+00  E= 2.070217D+00
              MO Center= -3.8D-07,  3.9D-07,  1.8D-06, r^2= 2.2D+00
   Bfn.  Coefficient  Atom+Function         Bfn.  Coefficient  Atom+Function  
  ----- ------------  ---------------      ----- ------------  ---------------
    34      2.053678  1 Sc dxx               66     -1.937628  1 Sc gxxxx      
    78      1.933757  1 Sc gyyzz             39     -1.879232  1 Sc dzz        
    69     -1.764171  1 Sc gxxyy             80      1.771643  1 Sc gzzzz      
    38     -1.411327  1 Sc dyz               79      1.339545  1 Sc gyzzz      
    70      1.321299  1 Sc gxxyz             77      1.324506  1 Sc gyyyz      
 
 Vector   75  Occ=0.000000D+00  E= 2.085837D+00
              MO Center= -2.7D-07,  4.9D-07,  2.0D-06, r^2= 2.2D+00
   Bfn.  Coefficient  Atom+Function         Bfn.  Coefficient  Atom+Function  
  ----- ------------  ---------------      ----- ------------  ---------------
    36      3.921958  1 Sc dxz               68     -3.703089  1 Sc gxxxz      
    73     -3.693908  1 Sc gxyyz             75     -3.700744  1 Sc gxzzz      
    30      2.235769  1 Sc dxz               24     -1.527032  1 Sc dxz        
    35      1.406211  1 Sc dxy               74     -1.339083  1 Sc gxyzz      
    67     -1.326837  1 Sc gxxxy             72     -1.322914  1 Sc gxyyy      
 
 Vector   76  Occ=0.000000D+00  E= 4.143297D+00
              MO Center= -2.0D-07,  1.3D-06, -4.9D-07, r^2= 1.3D+00
   Bfn.  Coefficient  Atom+Function         Bfn.  Coefficient  Atom+Function  
  ----- ------------  ---------------      ----- ------------  ---------------
    14      9.633126  1 Sc py                47     -5.904870  1 Sc fxxy       
    52     -5.906301  1 Sc fyyy              54     -5.905486  1 Sc fyzz       
    15     -3.947366  1 Sc pz                11     -3.455391  1 Sc py         
    48      2.419640  1 Sc fxxz              53      2.421572  1 Sc fyyz       
    55      2.419666  1 Sc fzzz              13     -1.995343  1 Sc px         
 
 Vector   77  Occ=0.000000D+00  E= 4.160486D+00
              MO Center=  9.2D-07,  1.8D-07, -1.3D-07, r^2= 1.3D+00
   Bfn.  Coefficient  Atom+Function         Bfn.  Coefficient  Atom+Function  
  ----- ------------  ---------------      ----- ------------  ---------------
    13     10.377240  1 Sc px                46     -6.352683  1 Sc fxxx       
    49     -6.356072  1 Sc fxyy              51     -6.350442  1 Sc fxzz       
    10     -3.721500  1 Sc px                16      2.068325  1 Sc px         
    15     -1.588365  1 Sc pz                14      1.498607  1 Sc py         
    56     -1.153650  1 Sc fxxx              59     -1.152767  1 Sc fxyy       
 
 Vector   78  Occ=0.000000D+00  E= 4.160492D+00
              MO Center=  2.0D-08, -1.6D-07, -5.0D-07, r^2= 1.3D+00
   Bfn.  Coefficient  Atom+Function         Bfn.  Coefficient  Atom+Function  
  ----- ------------  ---------------      ----- ------------  ---------------
    15      9.712773  1 Sc pz                48     -5.943284  1 Sc fxxz       
    53     -5.947986  1 Sc fyyz              55     -5.946461  1 Sc fzzz       
    14      4.163402  1 Sc py                12     -3.483207  1 Sc pz         
    47     -2.547712  1 Sc fxxy              52     -2.550210  1 Sc fyyy       
    54     -2.545763  1 Sc fyzz              18      1.935892  1 Sc pz         
 
 Vector   79  Occ=0.000000D+00  E= 5.246465D+00
              MO Center= -4.4D-07, -1.2D-06,  1.5D-06, r^2= 2.7D+00
   Bfn.  Coefficient  Atom+Function         Bfn.  Coefficient  Atom+Function  
  ----- ------------  ---------------      ----- ------------  ---------------
     5     30.874866  1 Sc s                 34     -9.274441  1 Sc dxx        
    37     -9.280820  1 Sc dyy               39     -9.275274  1 Sc dzz        
     3     -8.389949  1 Sc s                 28     -5.685802  1 Sc dxx        
    31     -5.690161  1 Sc dyy               33     -5.686373  1 Sc dzz        
     6     -4.040564  1 Sc s                  4      2.904263  1 Sc s          
 
 Vector   80  Occ=0.000000D+00  E= 4.720333D+01
              MO Center= -2.6D-10,  1.3D-10,  1.6D-09, r^2= 1.8D+00
   Bfn.  Coefficient  Atom+Function         Bfn.  Coefficient  Atom+Function  
  ----- ------------  ---------------      ----- ------------  ---------------
     4     44.030736  1 Sc s                  5     26.971183  1 Sc s          
    22    -26.715628  1 Sc dxx               25    -26.715619  1 Sc dyy        
    27    -26.715627  1 Sc dzz                3     20.220481  1 Sc s          
    28    -10.594789  1 Sc dxx               31    -10.594817  1 Sc dyy        
    33    -10.594792  1 Sc dzz               34     -9.581142  1 Sc dxx        
 

   alpha - beta orbital overlaps 
   ----------------------------- 


   alpha      1      2      3      4      5      6      7      8      9     10
    beta      1      2      3      4      5      6      7      8      9     10
 overlap   1.000  1.000  1.000  0.992  0.992  1.000  1.000  0.907  0.907  0.756


   alpha     11     12     13     14     15     16     17     18     19     20
    beta     16     11     12     13     14     18     17     15     19     24
 overlap   0.996  0.755  0.973  0.973  0.999  0.949  0.949  0.994  0.962  0.993


   alpha     21     22     23     24     25     26     27     28     29     30
    beta     23     21     22     20     27     26     25     38     40     39
 overlap   0.999  0.992  0.992  0.965  0.953  0.953  0.993  0.997  0.990  0.990


   alpha     31     32     33     34     35     36     37     38     39     40
    beta     28     36     37     30     31     29     35     34     33     32
 overlap   0.839  1.000  0.999  0.981  0.981  0.833  1.000  0.992  0.708  0.708


   alpha     41     42     43     44     45     46     47     48     49     50
    beta     41     43     44     42     45     50     48     47     46     49
 overlap   0.989  0.720  0.720  0.999  0.986  0.998  0.932  0.932  0.983  0.998


   alpha     51     52     53     54     55     56     57     58     59     60
    beta     59     58     57     56     53     51     55     54     52     64
 overlap   1.000  0.979  0.907  0.907  0.998  0.977  0.833  0.833  0.998  1.000


   alpha     61     62     63     64     65     66     67     68     69     70
    beta     65     66     60     61     62     63     68     69     67     70
 overlap   0.865  0.866  0.997  0.874  0.874  1.000  0.982  0.982  0.998  0.999


   alpha     71     72     73     74     75     76     77     78     79     80
    beta     75     71     72     73     74     76     78     77     79     80
 overlap   1.000  0.998  0.998  0.999  1.000  1.000  0.874  0.874  1.000  1.000


     --------------------------
     Expectation value of S2:  
     --------------------------
      <S2> =      1.1784 (Exact =     0.7500)
 

 Parallel integral file used      20 records with       0 large values


 Task  times  cpu:      384.8s     wall:      773.2s
 
 
                                NWChem Input Module
                                -------------------
 
 
 Summary of allocated global arrays
-----------------------------------
  No active global arrays



                         GA Statistics for process    0
                         ------------------------------

       create   destroy   get      put      acc     scatter   gather  read&inc
calls: 2887     2887     2.59e+04 1.97e+04 4503        0        0       97     
number of processes/call 1.04e+00 1.02e+00 1.35e+00 0.00e+00 0.00e+00
bytes total:             5.12e+08 1.78e+08 2.31e+08 0.00e+00 0.00e+00 7.76e+02
bytes remote:            1.22e+07 3.53e+06 1.97e+07 0.00e+00 0.00e+00 0.00e+00
Max memory consumed for GA by this process: 3328000 bytes
 
MA_summarize_allocated_blocks: starting scan ...
MA_summarize_allocated_blocks: scan completed: 0 heap blocks, 0 stack blocks
MA usage statistics:

	allocation statistics:
					      heap	     stack
					      ----	     -----
	current number of blocks	         0	         0
	maximum number of blocks	        21	        51
	current total bytes		         0	         0
	maximum total bytes		  23284792	  29277432
	maximum total K-bytes		     23285	     29278
	maximum total M-bytes		        24	        30
 
 
                                     CITATION
                                     --------
                Please cite the following reference when publishing
                           results obtained with NWChem:
 
                 M. Valiev, E.J. Bylaska, N. Govind, K. Kowalski,
              T.P. Straatsma, H.J.J. van Dam, D. Wang, J. Nieplocha,
                        E. Apra, T.L. Windus, W.A. de Jong
                 "NWChem: a comprehensive and scalable open-source
                  solution for large scale molecular simulations"
                      Comput. Phys. Commun. 181, 1477 (2010)
                           doi:10.1016/j.cpc.2010.04.018
 
                                      AUTHORS
                                      -------
          E. Apra, E. J. Bylaska, W. A. de Jong, N. Govind, K. Kowalski,
       T. P. Straatsma, M. Valiev, H. J. J. van Dam, D. Wang, T. L. Windus,
        J. Hammond, J. Autschbach, K. Bhaskaran-Nair, J. Brabec, K. Lopata,
    S. A. Fischer, S. Krishnamoorthy, M. Jacquelin, W. Ma, M. Klemm, O. Villa,
      Y. Chen, V. Anisimov, F. Aquino, S. Hirata, M. T. Hackler, V. Konjkov,
            D. Mejia-Rodriguez, T. Risthaus, M. Malagoli, A. Marenich,
   A. Otero-de-la-Roza, J. Mullin, P. Nichols, R. Peverati, J. Pittner, Y. Zhao,
        P.-D. Fan, A. Fonari, M. J. Williamson, R. J. Harrison, J. R. Rehr,
      M. Dupuis, D. Silverstein, D. M. A. Smith, J. Nieplocha, V. Tipparaju,
    M. Krishnan, B. E. Van Kuiken, A. Vazquez-Mayagoitia, L. Jensen, M. Swart,
      Q. Wu, T. Van Voorhis, A. A. Auer, M. Nooijen, L. D. Crosby, E. Brown,
      G. Cisneros, G. I. Fann, H. Fruchtl, J. Garza, K. Hirao, R. A. Kendall,
      J. A. Nichols, K. Tsemekhman, K. Wolinski, J. Anchell, D. E. Bernholdt,
      P. Borowski, T. Clark, D. Clerc, H. Dachsel, M. J. O. Deegan, K. Dyall,
    D. Elwood, E. Glendening, M. Gutowski, A. C. Hess, J. Jaffe, B. G. Johnson,
     J. Ju, R. Kobayashi, R. Kutteh, Z. Lin, R. Littlefield, X. Long, B. Meng,
      T. Nakajima, S. Niu, L. Pollack, M. Rosing, K. Glaesemann, G. Sandrone,
      M. Stave, H. Taylor, G. Thomas, J. H. van Lenthe, A. T. Wong, Z. Zhang.

 Total times  cpu:      385.1s     wall:      773.8s
