  NWChem w/ OpenMP: maximum threads =  1
                                         
                                         
 
 
              Northwest Computational Chemistry Package (NWChem) 6.8
              ------------------------------------------------------
 
 
                    Environmental Molecular Sciences Laboratory
                       Pacific Northwest National Laboratory
                                Richland, WA 99352
 
                              Copyright (c) 1994-2017
                       Pacific Northwest National Laboratory
                            Battelle Memorial Institute
 
             NWChem is an open-source computational chemistry package
                        distributed under the terms of the
                      Educational Community License (ECL) 2.0
             A copy of the license is included with this distribution
                              in the LICENSE.TXT file
 
                                  ACKNOWLEDGMENT
                                  --------------

            This software and its documentation were developed at the
            EMSL at Pacific Northwest National Laboratory, a multiprogram
            national laboratory, operated for the U.S. Department of Energy
            by Battelle under Contract Number DE-AC05-76RL01830. Support
            for this work was provided by the Department of Energy Office
            of Biological and Environmental Research, Office of Basic
            Energy Sciences, and the Office of Advanced Scientific Computing.


           Job information
           ---------------

    hostname        = kohn
    program         = nwchem
    date            = Wed Sep 26 22:17:20 2018

    compiled        = Wed_Sep_26_21:04:37_2018
    source          = /home/kohn/softwares/nwchem/nwchem-6.8
    nwchem branch   = 6.8
    nwchem revision = v6.8-47-gdf6c956
    ga revision     = ga-5.6.3
    use scalapack   = F
    input           = nwchem.nw
    prefix          = Ti.
    data base       = ./Ti.db
    status          = startup
    nproc           =        4
    time left       =     -1s



           Memory information
           ------------------

    heap     =   13107198 doubles =    100.0 Mbytes
    stack    =   13107195 doubles =    100.0 Mbytes
    global   =   26214400 doubles =    200.0 Mbytes (distinct from heap & stack)
    total    =   52428793 doubles =    400.0 Mbytes
    verify   = yes
    hardfail = no 


           Directory information
           ---------------------
 
  0 permanent = .
  0 scratch   = .
 
 
 
 
                                NWChem Input Module
                                -------------------
 
 

 Scaling coordinates for geometry "geometry" by  1.889725989
 (inverse scale =  0.529177249)

 
 
                             Geometry "geometry" -> ""
                             -------------------------
 
 Output coordinates in angstroms (scale by  1.889725989 to convert to a.u.)
 
  No.       Tag          Charge          X              Y              Z
 ---- ---------------- ---------- -------------- -------------- --------------
    1 Ti                  22.0000     0.00000000     0.00000000     0.00000000
 
      Atomic Mass 
      ----------- 
 
      Ti                45.948000
 

 Effective nuclear repulsion energy (a.u.)       0.0000000000

            Nuclear Dipole moment (a.u.) 
            ----------------------------
        X                 Y               Z
 ---------------- ---------------- ----------------
     0.0000000000     0.0000000000     0.0000000000
 
 
            XYZ format geometry
            -------------------
     1
 geometry
 Ti                    0.00000000     0.00000000     0.00000000
 


 Summary of "ao basis" -> "" (cartesian)
 ------------------------------------------------------------------------------
       Tag                 Description            Shells   Functions and Types
 ---------------- ------------------------------  ------  ---------------------
 *                         def2-TZVPP                 on all atoms 


 
                                 NWChem DFT Module
                                 -----------------
 
 
                      Basis "ao basis" -> "ao basis" (cartesian)
                      -----
  Ti (Titanium)
  -------------
            Exponent  Coefficients 
       -------------- ---------------------------------------------------------
  1 S  2.11575690E+05  0.000233
  1 S  3.17149451E+04  0.001808
  1 S  7.21754765E+03  0.009398
  1 S  2.04293942E+03  0.038157
  1 S  6.65128962E+02  0.123748
  1 S  2.38749423E+02  0.292086
  1 S  9.25086910E+01  0.412268
  1 S  3.64039192E+01  0.210905
 
  2 S  2.32726246E+02 -0.024920
  2 S  7.17912097E+01 -0.117465
  2 S  1.11585346E+01  0.565033
  2 S  4.65481354E+00  0.562111
 
  3 S  6.80346292E+00 -0.230114
  3 S  1.12010764E+00  0.721032
 
  4 S  4.80801188E-01  1.000000
 
  5 S  8.51572750E-02  1.000000
 
  6 S  3.26574770E-02  1.000000
 
  7 P  1.06314747E+03  0.002469
  7 P  2.51565071E+02  0.019773
  7 P  8.04085549E+01  0.090988
  7 P  2.97681933E+01  0.255599
  7 P  1.17368306E+01  0.404894
  7 P  4.71423752E+00  0.236934
 
  8 P  1.77968037E+01 -0.027879
  8 P  2.42726987E+00  0.556729
  8 P  9.68234455E-01  1.005545
 
  9 P  3.70566942E-01  1.000000
 
 10 P  1.41800000E-01  1.000000
 
 11 P  5.42700000E-02  1.000000
 
 12 D  3.77133847E+01  0.011514
 12 D  1.06929312E+01  0.067246
 12 D  3.67284470E+00  0.214842
 12 D  1.35885903E+00  0.388909
 
 13 D  4.92132953E-01  1.000000
 
 14 D  1.63305207E-01  1.000000
 
 15 D  5.40000000E-02  1.000000
 
 16 F  2.53900000E-01  1.000000
 
 17 F  1.07500000E+00  1.000000
 
 18 G  6.34000000E-01  1.000000
 


 Summary of "ao basis" -> "ao basis" (cartesian)
 ------------------------------------------------------------------------------
       Tag                 Description            Shells   Functions and Types
 ---------------- ------------------------------  ------  ---------------------
 Ti                        def2-TZVPP               18       80   6s5p4d2f1g




 Summary of "ao basis" -> "ao basis" (cartesian)
 ------------------------------------------------------------------------------
       Tag                 Description            Shells   Functions and Types
 ---------------- ------------------------------  ------  ---------------------
 Ti                        def2-TZVPP               18       80   6s5p4d2f1g


  Caching 1-el integrals 
 
            General Information
            -------------------
          SCF calculation type: DFT
          Wavefunction type:  spin polarized.
          No. of atoms     :     1
          No. of electrons :    22
           Alpha electrons :    12
            Beta electrons :    10
          Charge           :     0
          Spin multiplicity:     3
          Use of symmetry is: off; symmetry adaption is: off
          Maximum number of iterations: ***
          AO basis - number of functions:    80
                     number of shells:    18
          Convergence on energy requested:  1.00D-06
          Convergence on density requested:  1.00D-05
          Convergence on gradient requested:  5.00D-04
 
              XC Information
              --------------
                  TPSS metaGGA Exchange Functional  1.000          
             TPSS03 metaGGA Correlation Functional  1.000          
 
             Grid Information
             ----------------
          Grid used for XC integration:  medium    
          Radial quadrature: Mura-Knowles        
          Angular quadrature: Lebedev. 
          Tag              B.-S. Rad. Rad. Pts. Rad. Cut. Ang. Pts.
          ---              ---------- --------- --------- ---------
          Ti                  1.40      112           8.0       590
          Grid pruning is: on 
          Number of quadrature shells:   112
          Spatial weights used:  Erf1
 
          Convergence Information
          -----------------------
          Convergence aids based upon iterative change in 
          total energy or number of iterations. 
          Levelshifting, if invoked, occurs when the 
          HOMO/LUMO gap drops below (HL_TOL):  1.00D-02
          DIIS, if invoked, will attempt to extrapolate 
          using up to (NFOCK): 10 stored Fock matrices.

                    Damping( 0%)  Levelshifting(0.5)       DIIS
                  --------------- ------------------- ---------------
          dE  on:    start            ASAP                start   
          dE off:    2 iters        *** iters           *** iters 

 
      Screening Tolerance Information
      -------------------------------
          Density screening/tol_rho:  1.00D-10
          AO Gaussian exp screening on grid/accAOfunc:  14
          CD Gaussian exp screening on grid/accCDfunc:  20
          XC Gaussian exp screening on grid/accXCfunc:  20
          Schwarz screening/accCoul:  1.00D-08

 
      Superposition of Atomic Density Guess
      -------------------------------------
 
 Sum of atomic energies:        -848.36611291
 
      Non-variational initial energy
      ------------------------------

 Total energy =    -847.863646
 1-e energy   =   -1162.670731
 2-e energy   =     314.807085
 HOMO         =       0.044502
 LUMO         =       0.044502
 
   Time after variat. SCF:     19.0
   Time prior to 1st pass:     19.0

 Integral file          = ./Ti.aoints.0
 Record size in doubles =    65536    No. of integs per rec  =    43688
 Max. records in memory =       43    Max. records in file   =  1478995
 No. of bits per label  =        8    No. of bits per value  =       64


 #quartets = 1.470D+04 #integrals = 8.286D+05 #direct =  0.0% #cached =100.0%


File balance: exchanges=     0  moved=     0  time=   0.0


 Grid_pts file          = ./Ti.gridpts.0
 Record size in doubles =  12289        No. of grid_pts per rec  =   3070
 Max. records in memory =      7        Max. recs in file   =   7887337


           Memory utilization after 1st SCF pass: 
           Heap Space remaining (MW):       10.20            10196518
          Stack Space remaining (MW):       13.11            13106460

   convergence    iter        energy       DeltaE   RMS-Dens  Diis-err    time
 ---------------- ----- ----------------- --------- --------- ---------  ------
 d= 0,ls=0.0,diis     1   -848.4715568147 -8.48D+02  7.99D-02  6.64D-01    28.1
                                                     2.57D-02  5.82D-01
 d= 0,ls=0.5,diis     2   -847.2039008529  1.27D+00  8.68D-03  7.53D+00    35.3
                                                     5.98D-03  5.06D+00
 d= 0,ls=0.5,diis     3   -847.9581300343 -7.54D-01  5.71D-03  4.01D+00    42.3
                                                     3.83D-03  2.61D+00
 d= 0,ls=0.5,diis     4   -848.4435253215 -4.85D-01  5.37D-03  2.22D+00    50.1
                                                     3.48D-03  1.40D+00
 d= 0,ls=0.5,diis     5   -848.7606135333 -3.17D-01  4.00D-03  1.17D+00    57.5
                                                     2.60D-03  7.28D-01
 d= 0,ls=0.5,diis     6   -848.9303016231 -1.70D-01  3.57D-03  6.63D-01    64.0
                                                     2.43D-03  4.11D-01
 d= 0,ls=0.5,diis     7   -849.0491106072 -1.19D-01  4.25D-03  3.27D-01    72.7
                                                     3.22D-03  2.00D-01
 d= 0,ls=0.5,diis     8   -849.1371453306 -8.80D-02  3.68D-03  1.03D-01    80.5
                                                     2.68D-03  5.95D-02
  Resetting Diis
 d= 0,ls=0.5,diis     9   -849.1828022354 -4.57D-02  2.97D-03  1.38D-02    84.5
                                                     2.23D-03  7.31D-03
 d= 0,ls=0.5,diis    10   -849.1976623408 -1.49D-02  2.05D-03  2.91D-03    88.3
                                                     1.85D-03  2.62D-03
 d= 0,ls=0.5,diis    11   -849.2043097971 -6.65D-03  1.49D-03  1.48D-03    94.3
                                                     1.34D-03  1.81D-03
 d= 0,ls=0.5,diis    12   -849.2101459540 -5.84D-03  1.27D-03  1.22D-03   101.9
                                                     1.37D-03  2.08D-03
 d= 0,ls=0.5,diis    13   -849.2178683970 -7.72D-03  1.32D-03  2.13D-03   107.8
                                                     1.48D-03  3.01D-03
 d= 0,ls=0.5,diis    14   -849.2271285665 -9.26D-03  1.51D-03  7.53D-03   110.7
                                                     1.69D-03  6.34D-03
 d= 0,ls=0.5,diis    15   -849.2389891127 -1.19D-02  1.85D-03  1.46D-02   116.0
                                                     1.96D-03  1.02D-02
 d= 0,ls=0.5,diis    16   -849.2522001876 -1.32D-02  2.16D-03  2.78D-02   119.8
                                                     2.03D-03  1.69D-02
 d= 0,ls=0.5,diis    17   -849.2665702755 -1.44D-02  2.33D-03  4.13D-02   128.2
                                                     2.23D-03  2.31D-02
 d= 0,ls=0.5,diis    18   -849.2786038461 -1.20D-02  2.49D-03  6.25D-02   134.6
                                                     2.33D-03  3.31D-02
 d= 0,ls=0.5,diis    19   -849.2850104006 -6.41D-03  2.59D-03  9.58D-02   139.6
                                                     2.07D-03  4.97D-02
 d= 0,ls=0.5,diis    20   -849.2893787117 -4.37D-03  2.43D-03  1.20D-01   145.0
                                                     2.01D-03  6.09D-02
 d= 0,ls=0.5,diis    21   -849.2873916026  1.99D-03  2.20D-03  1.53D-01   149.4
                                                     1.78D-03  7.72D-02
 d= 0,ls=0.5,diis    22   -849.2842798060  3.11D-03  2.47D-03  1.78D-01   155.5
                                                     1.47D-03  8.94D-02
 d= 0,ls=0.5,diis    23   -849.2860495306 -1.77D-03  1.99D-03  1.81D-01   163.2
                                                     1.25D-03  8.93D-02
 d= 0,ls=0.5,diis    24   -849.2877739736 -1.72D-03  1.95D-03  1.81D-01   172.5
                                                     1.10D-03  8.86D-02
 d= 0,ls=0.5,diis    25   -849.2910342095 -3.26D-03  2.51D-03  1.75D-01   178.3
                                                     3.16D-03  8.45D-02
 d= 0,ls=0.5,diis    26   -849.2968798541 -5.85D-03  1.98D-02  1.57D-01   188.1
                                                     1.38D-03  7.50D-02
 d= 0,ls=0.5,diis    27   -849.3014542140 -4.57D-03  9.26D-03  1.53D-01   194.3
                                                     1.69D-03  7.15D-02
 d= 0,ls=0.5,diis    28   -849.3334482723 -3.20D-02  3.99D-03  5.90D-02   200.6
                                                     1.32D-03  2.64D-02
 d= 0,ls=0.5,diis    29   -849.3528561359 -1.94D-02  1.55D-03  1.13D-02   207.6
                                                     1.96D-03  4.45D-03
 d= 0,ls=0.5,diis    30   -849.3589451407 -6.09D-03  9.11D-04  2.05D-03   211.9
                                                     2.48D-03  1.01D-03
 d= 0,ls=0.5,diis    31   -849.3609824881 -2.04D-03  7.02D-04  6.55D-04   216.2
                                                     1.56D-03  4.23D-04
 d= 0,ls=0.5,diis    32   -849.3616973745 -7.15D-04  5.56D-04  3.53D-04   223.1
                                                     1.06D-03  2.32D-04
 d= 0,ls=0.5,diis    33   -849.3620336442 -3.36D-04  4.46D-04  1.63D-04   230.5
                                                     7.66D-04  1.13D-04
 d= 0,ls=0.5,diis    34   -849.3621894239 -1.56D-04  3.62D-04  7.32D-05   234.7
                                                     5.60D-04  5.30D-05
 d= 0,ls=0.5,diis    35   -849.3622643179 -7.49D-05  2.88D-04  3.29D-05   241.5
                                                     4.07D-04  2.48D-05
 d= 0,ls=0.5,diis    36   -849.3623009794 -3.67D-05  2.28D-04  1.48D-05   247.4
                                                     3.04D-04  1.17D-05
 d= 0,ls=0.5,diis    37   -849.3623199754 -1.90D-05  1.74D-04  6.34D-06   259.9
                                                     2.25D-04  5.46D-06
 d= 0,ls=0.5,diis    38   -849.3623300768 -1.01D-05  1.34D-04  3.01D-06   265.1
                                                     1.69D-04  2.85D-06
 d= 0,ls=0.5,diis    39   -849.3623363746 -6.30D-06  1.01D-04  1.41D-06   275.1
                                                     1.27D-04  1.61D-06
 d= 0,ls=0.5,diis    40   -849.3623405637 -4.19D-06  7.69D-05  8.79D-07   278.6
                                                     9.52D-05  1.13D-06
 d= 0,ls=0.5,diis    41   -849.3623438231 -3.26D-06  5.85D-05  6.65D-07   282.5
                                                     7.20D-05  9.14D-07
 d= 0,ls=0.5,diis    42   -849.3623465223 -2.70D-06  4.48D-05  6.16D-07   287.4
                                                     5.49D-05  8.34D-07
 d= 0,ls=0.5,diis    43   -849.3623488988 -2.38D-06  3.49D-05  6.69D-07   296.5
                                                     4.23D-05  8.44D-07
 d= 0,ls=0.5,diis    44   -849.3623510771 -2.18D-06  2.79D-05  7.88D-07   304.4
                                                     3.34D-05  9.14D-07
 d= 0,ls=0.5,diis    45   -849.3623528892 -1.81D-06  2.24D-05  1.01D-06   310.5
                                                     2.65D-05  1.10D-06
 d= 0,ls=0.5,diis    46   -849.3623546159 -1.73D-06  1.85D-05  1.22D-06   315.4
                                                     2.15D-05  1.26D-06
 d= 0,ls=0.5,diis    47   -849.3623562047 -1.59D-06  1.55D-05  1.51D-06   321.3
                                                     1.76D-05  1.49D-06
 d= 0,ls=0.5,diis    48   -849.3623576604 -1.46D-06  1.40D-05  1.89D-06   325.1
                                                     1.55D-05  1.77D-06
 d= 0,ls=0.5,diis    49   -849.3623591381 -1.48D-06  1.20D-05  2.16D-06   331.1
                                                     1.29D-05  1.96D-06
 d= 0,ls=0.5,diis    50   -849.3623602578 -1.12D-06  1.10D-05  2.61D-06   341.9
                                                     1.16D-05  2.38D-06
 d= 0,ls=0.5,diis    51   -849.3623614416 -1.18D-06  1.06D-05  2.92D-06   346.4
                                                     1.09D-05  2.63D-06
 d= 0,ls=0.5,diis    52   -849.3623626394 -1.20D-06  9.93D-06  3.17D-06   352.1
                                                     1.00D-05  2.85D-06
 d= 0,ls=0.5,diis    53   -849.3623637281 -1.09D-06  9.57D-06  3.54D-06   357.2
                                                     9.60D-06  3.15D-06
 d= 0,ls=0.5,diis    54   -849.3623648058 -1.08D-06  9.11D-06  3.92D-06   363.1
                                                     8.97D-06  3.41D-06
 d= 0,ls=0.5,diis    55   -849.3623658368 -1.03D-06  8.10D-06  4.24D-06   380.4
                                                     7.52D-06  3.68D-06
 d= 0,ls=0.5,diis    56   -849.3623664890 -6.52D-07  7.16D-06  4.72D-06   388.4
                                                     6.48D-06  4.18D-06


         Total DFT energy =     -849.362367094743
      One electron energy =    -1163.084443409883
           Coulomb energy =      355.724403308244
          Exchange energy =      -41.122525316606
       Correlation energy =       -0.879801676498
 Nuclear repulsion energy =        0.000000000000

 Numeric. integr. density =       22.000000019565

     Total iterative time =    373.9s


 
                    DFT Final Alpha Molecular Orbital Analysis
                    ------------------------------------------
 
 Vector    1  Occ=1.000000D+00  E=-1.781896D+02
              MO Center= -1.2D-10, -3.5D-10,  9.9D-11, r^2= 1.8D-03
   Bfn.  Coefficient  Atom+Function         Bfn.  Coefficient  Atom+Function  
  ----- ------------  ---------------      ----- ------------  ---------------
     1      0.998262  1 Ti s                  4     -0.027238  1 Ti s          
 
 Vector    2  Occ=1.000000D+00  E=-1.958936D+01
              MO Center= -1.4D-07, -4.5D-07,  1.2D-07, r^2= 3.5D-02
   Bfn.  Coefficient  Atom+Function         Bfn.  Coefficient  Atom+Function  
  ----- ------------  ---------------      ----- ------------  ---------------
     2      1.015840  1 Ti s                  1     -0.306256  1 Ti s          
     4      0.069041  1 Ti s                 28     -0.061225  1 Ti dxx        
    71      0.061454  1 Ti gxxzz             33     -0.060535  1 Ti dzz        
    69      0.060799  1 Ti gxxyy             78      0.060194  1 Ti gyyzz      
    31     -0.059426  1 Ti dyy               66      0.030931  1 Ti gxxxx      
 
 Vector    3  Occ=1.000000D+00  E=-1.632379D+01
              MO Center=  2.1D-07,  1.6D-07, -1.9D-07, r^2= 2.9D-02
   Bfn.  Coefficient  Atom+Function         Bfn.  Coefficient  Atom+Function  
  ----- ------------  ---------------      ----- ------------  ---------------
     7      0.617946  1 Ti px                 9     -0.556864  1 Ti pz         
     8      0.534019  1 Ti py         
 
 Vector    4  Occ=1.000000D+00  E=-1.632345D+01
              MO Center= -5.6D-08, -2.7D-08, -2.4D-08, r^2= 2.9D-02
   Bfn.  Coefficient  Atom+Function         Bfn.  Coefficient  Atom+Function  
  ----- ------------  ---------------      ----- ------------  ---------------
     7      0.739181  1 Ti px                 9      0.623362  1 Ti pz         
     8     -0.205323  1 Ti py         
 
 Vector    5  Occ=1.000000D+00  E=-1.630919D+01
              MO Center= -7.0D-08,  1.6D-07,  1.4D-07, r^2= 2.9D-02
   Bfn.  Coefficient  Atom+Function         Bfn.  Coefficient  Atom+Function  
  ----- ------------  ---------------      ----- ------------  ---------------
     8      0.806219  1 Ti py                 9      0.527764  1 Ti pz         
     7     -0.221127  1 Ti px                11      0.026355  1 Ti py         
 
 Vector    6  Occ=1.000000D+00  E=-2.301325D+00
              MO Center= -8.2D-06, -1.8D-05,  7.3D-06, r^2= 3.3D-01
   Bfn.  Coefficient  Atom+Function         Bfn.  Coefficient  Atom+Function  
  ----- ------------  ---------------      ----- ------------  ---------------
     3      0.575283  1 Ti s                  2     -0.445696  1 Ti s          
     4      0.385877  1 Ti s                  1      0.112324  1 Ti s          
    22      0.054404  1 Ti dxx               27      0.052664  1 Ti dzz        
    25      0.049852  1 Ti dyy                5     -0.031566  1 Ti s          
    28      0.029483  1 Ti dxx               33      0.027579  1 Ti dzz        
 
 Vector    7  Occ=1.000000D+00  E=-1.444645D+00
              MO Center=  5.7D-06, -3.7D-09, -5.7D-06, r^2= 3.9D-01
   Bfn.  Coefficient  Atom+Function         Bfn.  Coefficient  Atom+Function  
  ----- ------------  ---------------      ----- ------------  ---------------
    10      0.532401  1 Ti px                12     -0.498848  1 Ti pz         
    11      0.472703  1 Ti py                 7     -0.222001  1 Ti px         
     9      0.208009  1 Ti pz                 8     -0.197107  1 Ti py         
    13      0.156953  1 Ti px                15     -0.147051  1 Ti pz         
    14      0.139349  1 Ti py                16      0.034384  1 Ti px         
 
 Vector    8  Occ=1.000000D+00  E=-1.444432D+00
              MO Center= -4.7D-06, -7.8D-06,  1.8D-06, r^2= 3.9D-01
   Bfn.  Coefficient  Atom+Function         Bfn.  Coefficient  Atom+Function  
  ----- ------------  ---------------      ----- ------------  ---------------
    10      0.659393  1 Ti px                12      0.539898  1 Ti pz         
     7     -0.274931  1 Ti px                 9     -0.225107  1 Ti pz         
    13      0.194147  1 Ti px                11     -0.172940  1 Ti py         
    15      0.158952  1 Ti pz                 8      0.072106  1 Ti py         
    14     -0.050918  1 Ti py                16      0.042622  1 Ti px         
 
 Vector    9  Occ=1.000000D+00  E=-1.427835D+00
              MO Center= -5.6D-06, -3.0D-06,  7.4D-06, r^2= 4.0D-01
   Bfn.  Coefficient  Atom+Function         Bfn.  Coefficient  Atom+Function  
  ----- ------------  ---------------      ----- ------------  ---------------
    11      0.702399  1 Ti py                12      0.460116  1 Ti pz         
     8     -0.293834  1 Ti py                14      0.218317  1 Ti py         
     9     -0.192480  1 Ti pz                10     -0.192513  1 Ti px         
    15      0.143007  1 Ti pz                 7      0.080534  1 Ti px         
    13     -0.059839  1 Ti px                17      0.049485  1 Ti py         
 
 Vector   10  Occ=1.000000D+00  E=-1.820495D-01
              MO Center= -1.6D-05, -3.0D-05,  9.9D-06, r^2= 9.6D-01
   Bfn.  Coefficient  Atom+Function         Bfn.  Coefficient  Atom+Function  
  ----- ------------  ---------------      ----- ------------  ---------------
    24      0.470994  1 Ti dxz               25      0.429762  1 Ti dyy        
    23      0.412708  1 Ti dxy               30      0.291325  1 Ti dxz        
    27     -0.284991  1 Ti dzz               31      0.265752  1 Ti dyy        
    29      0.255271  1 Ti dxy               36      0.229941  1 Ti dxz        
    37      0.209906  1 Ti dyy               35      0.201650  1 Ti dxy        
 
 Vector   11  Occ=1.000000D+00  E=-1.815149D-01
              MO Center= -5.1D-07, -2.0D-05,  6.0D-07, r^2= 9.6D-01
   Bfn.  Coefficient  Atom+Function         Bfn.  Coefficient  Atom+Function  
  ----- ------------  ---------------      ----- ------------  ---------------
    23      0.638714  1 Ti dxy               26      0.411339  1 Ti dyz        
    29      0.395022  1 Ti dxy               27      0.345060  1 Ti dzz        
    35      0.311145  1 Ti dxy               32      0.254384  1 Ti dyz        
    24      0.235068  1 Ti dxz               33      0.213516  1 Ti dzz        
    38      0.200412  1 Ti dyz               25     -0.186629  1 Ti dyy        
 
 Vector   12  Occ=1.000000D+00  E=-1.650611D-01
              MO Center= -7.7D-05, -2.0D-04,  5.7D-05, r^2= 3.9D+00
   Bfn.  Coefficient  Atom+Function         Bfn.  Coefficient  Atom+Function  
  ----- ------------  ---------------      ----- ------------  ---------------
     5      0.645416  1 Ti s                  4     -0.332446  1 Ti s          
     6      0.295824  1 Ti s                  3     -0.182739  1 Ti s          
    26      0.134410  1 Ti dyz                2      0.119800  1 Ti s          
    31      0.095892  1 Ti dyy               38      0.089240  1 Ti dyz        
    37      0.085850  1 Ti dyy               32      0.075272  1 Ti dyz        
 
 Vector   13  Occ=0.000000D+00  E=-1.542896D-01
              MO Center= -3.2D-05, -3.8D-05,  3.4D-05, r^2= 9.8D-01
   Bfn.  Coefficient  Atom+Function         Bfn.  Coefficient  Atom+Function  
  ----- ------------  ---------------      ----- ------------  ---------------
    26      0.488735  1 Ti dyz               22      0.475798  1 Ti dxx        
    27     -0.338048  1 Ti dzz               32      0.304505  1 Ti dyz        
    28      0.297027  1 Ti dxx               38      0.231868  1 Ti dyz        
    34      0.225618  1 Ti dxx               33     -0.210254  1 Ti dzz        
    24      0.167709  1 Ti dxz               39     -0.159831  1 Ti dzz        
 
 Vector   14  Occ=0.000000D+00  E=-1.542573D-01
              MO Center= -2.5D-05, -3.6D-05,  3.3D-05, r^2= 9.8D-01
   Bfn.  Coefficient  Atom+Function         Bfn.  Coefficient  Atom+Function  
  ----- ------------  ---------------      ----- ------------  ---------------
    24      0.805575  1 Ti dxz               23     -0.549142  1 Ti dxy        
    30      0.502206  1 Ti dxz               36      0.380955  1 Ti dxz        
    29     -0.342216  1 Ti dxy               35     -0.260925  1 Ti dxy        
    27      0.125085  1 Ti dzz               42      0.108385  1 Ti dxz        
    25     -0.093101  1 Ti dyy               33      0.079958  1 Ti dzz        
 
 Vector   15  Occ=0.000000D+00  E=-1.158408D-01
              MO Center= -6.7D-05, -9.0D-05,  7.4D-05, r^2= 1.3D+00
   Bfn.  Coefficient  Atom+Function         Bfn.  Coefficient  Atom+Function  
  ----- ------------  ---------------      ----- ------------  ---------------
    26      0.705017  1 Ti dyz               32      0.437810  1 Ti dyz        
    38      0.383961  1 Ti dyz               23     -0.291897  1 Ti dxy        
    25      0.275394  1 Ti dyy               22     -0.227436  1 Ti dxx        
    24     -0.201969  1 Ti dxz               29     -0.181345  1 Ti dxy        
    35     -0.160107  1 Ti dxy               31      0.158793  1 Ti dyy        
 
 Vector   16  Occ=0.000000D+00  E=-5.430199D-02
              MO Center= -9.0D-05, -6.3D-05,  1.1D-04, r^2= 5.9D+00
   Bfn.  Coefficient  Atom+Function         Bfn.  Coefficient  Atom+Function  
  ----- ------------  ---------------      ----- ------------  ---------------
    20      0.757564  1 Ti py                21      0.496549  1 Ti pz         
    19     -0.208510  1 Ti px                11     -0.193482  1 Ti py         
    47      0.143364  1 Ti fxxy              52      0.136885  1 Ti fyyy       
    54      0.134093  1 Ti fyzz              17     -0.132966  1 Ti py         
    12     -0.126802  1 Ti pz                48      0.094449  1 Ti fxxz       
 
 Vector   17  Occ=0.000000D+00  E=-4.740396D-02
              MO Center=  1.0D-04, -2.9D-06, -9.4D-05, r^2= 6.0D+00
   Bfn.  Coefficient  Atom+Function         Bfn.  Coefficient  Atom+Function  
  ----- ------------  ---------------      ----- ------------  ---------------
    19      0.606831  1 Ti px                21     -0.542774  1 Ti pz         
    20      0.522742  1 Ti py                16     -0.155285  1 Ti px         
    10     -0.141420  1 Ti px                18      0.138897  1 Ti pz         
    17     -0.133739  1 Ti py                51      0.129114  1 Ti fxzz       
    12      0.126488  1 Ti pz                49      0.124043  1 Ti fxyy       
 
 Vector   18  Occ=0.000000D+00  E=-4.643837D-02
              MO Center= -7.5D-05, -1.3D-04,  2.7D-05, r^2= 6.1D+00
   Bfn.  Coefficient  Atom+Function         Bfn.  Coefficient  Atom+Function  
  ----- ------------  ---------------      ----- ------------  ---------------
    19      0.725192  1 Ti px                21      0.614873  1 Ti pz         
    20     -0.203406  1 Ti py                16     -0.193614  1 Ti px         
    10     -0.167547  1 Ti px                49      0.165764  1 Ti fxyy       
    18     -0.164166  1 Ti pz                12     -0.142057  1 Ti pz         
    46      0.137975  1 Ti fxxx              51      0.138017  1 Ti fxzz       
 
 Vector   19  Occ=0.000000D+00  E= 1.683616D-02
              MO Center= -9.9D-05, -2.2D-04,  8.5D-05, r^2= 2.0D+01
   Bfn.  Coefficient  Atom+Function         Bfn.  Coefficient  Atom+Function  
  ----- ------------  ---------------      ----- ------------  ---------------
     6     11.715376  1 Ti s                  5     -5.092878  1 Ti s          
    40     -3.037175  1 Ti dxx               43     -3.019521  1 Ti dyy        
    45     -3.030455  1 Ti dzz               34     -0.419873  1 Ti dxx        
    37     -0.419679  1 Ti dyy               39     -0.419781  1 Ti dzz        
     4     -0.112327  1 Ti s                  3      0.088700  1 Ti s          
 
 Vector   20  Occ=0.000000D+00  E= 7.959713D-02
              MO Center=  3.8D-05,  6.9D-05, -2.1D-05, r^2= 9.3D+00
   Bfn.  Coefficient  Atom+Function         Bfn.  Coefficient  Atom+Function  
  ----- ------------  ---------------      ----- ------------  ---------------
    42      0.844546  1 Ti dxz               43      0.792337  1 Ti dyy        
    41      0.716405  1 Ti dxy               45     -0.538301  1 Ti dzz        
    44     -0.301676  1 Ti dyz               40     -0.255329  1 Ti dxx        
    24     -0.156657  1 Ti dxz               25     -0.147116  1 Ti dyy        
    23     -0.132960  1 Ti dxy               36     -0.101105  1 Ti dxz        
 
 Vector   21  Occ=0.000000D+00  E= 7.982797D-02
              MO Center= -1.8D-05,  3.2D-05,  1.6D-05, r^2= 9.3D+00
   Bfn.  Coefficient  Atom+Function         Bfn.  Coefficient  Atom+Function  
  ----- ------------  ---------------      ----- ------------  ---------------
    41      1.184118  1 Ti dxy               44      0.739178  1 Ti dyz        
    45      0.613894  1 Ti dzz               42      0.454590  1 Ti dxz        
    43     -0.315701  1 Ti dyy               40     -0.297560  1 Ti dxx        
    23     -0.219236  1 Ti dxy               35     -0.142374  1 Ti dxy        
    26     -0.136856  1 Ti dyz               29     -0.137416  1 Ti dxy        
 
 Vector   22  Occ=0.000000D+00  E= 8.387819D-02
              MO Center=  4.4D-05,  4.4D-05, -5.1D-05, r^2= 9.3D+00
   Bfn.  Coefficient  Atom+Function         Bfn.  Coefficient  Atom+Function  
  ----- ------------  ---------------      ----- ------------  ---------------
    42      1.456799  1 Ti dxz               41     -0.845926  1 Ti dxy        
    44      0.502534  1 Ti dyz               24     -0.270822  1 Ti dxz        
    40      0.254274  1 Ti dxx               43     -0.231084  1 Ti dyy        
    36     -0.196963  1 Ti dxz               30     -0.168439  1 Ti dxz        
    23      0.158483  1 Ti dxy               35      0.115426  1 Ti dxy        
 
 Vector   23  Occ=0.000000D+00  E= 8.388398D-02
              MO Center=  4.4D-05,  4.4D-05, -5.1D-05, r^2= 9.3D+00
   Bfn.  Coefficient  Atom+Function         Bfn.  Coefficient  Atom+Function  
  ----- ------------  ---------------      ----- ------------  ---------------
    40      0.825966  1 Ti dxx               44      0.768077  1 Ti dyz        
    45     -0.653726  1 Ti dzz               41      0.623476  1 Ti dxy        
    42     -0.265326  1 Ti dxz               43     -0.172201  1 Ti dyy        
    22     -0.153980  1 Ti dxx               26     -0.142744  1 Ti dyz        
    27      0.121793  1 Ti dzz               23     -0.116225  1 Ti dxy        
 
 Vector   24  Occ=0.000000D+00  E= 8.729086D-02
              MO Center=  5.2D-06,  1.5D-06, -8.8D-06, r^2= 9.2D+00
   Bfn.  Coefficient  Atom+Function         Bfn.  Coefficient  Atom+Function  
  ----- ------------  ---------------      ----- ------------  ---------------
    44      1.362895  1 Ti dyz               43      0.636992  1 Ti dyy        
    41     -0.534358  1 Ti dxy               42     -0.452426  1 Ti dxz        
    40     -0.359275  1 Ti dxx                6     -0.331853  1 Ti s          
    26     -0.283031  1 Ti dyz               38     -0.230254  1 Ti dyz        
    32     -0.178059  1 Ti dyz               23      0.112007  1 Ti dxy        
 
 Vector   25  Occ=0.000000D+00  E= 1.716723D-01
              MO Center=  1.2D-03, -4.4D-03, -2.9D-03, r^2= 8.9D+00
   Bfn.  Coefficient  Atom+Function         Bfn.  Coefficient  Atom+Function  
  ----- ------------  ---------------      ----- ------------  ---------------
    17      4.683555  1 Ti py                18      3.070464  1 Ti pz         
    20     -1.640348  1 Ti py                52     -1.467736  1 Ti fyyy       
    54     -1.472087  1 Ti fyzz              47     -1.457007  1 Ti fxxy       
    16     -1.289005  1 Ti px                21     -1.075357  1 Ti pz         
    14     -1.011880  1 Ti py                53     -0.981422  1 Ti fyyz       
 
 Vector   26  Occ=0.000000D+00  E= 1.733233D-01
              MO Center= -3.6D-03,  2.1D-03,  5.6D-03, r^2= 1.5D+01
   Bfn.  Coefficient  Atom+Function         Bfn.  Coefficient  Atom+Function  
  ----- ------------  ---------------      ----- ------------  ---------------
     6     16.324158  1 Ti s                 40     -5.383393  1 Ti dxx        
    43     -5.376903  1 Ti dyy               45     -5.380906  1 Ti dzz        
     5     -1.998949  1 Ti s                  4     -1.526032  1 Ti s          
    34     -1.489175  1 Ti dxx               37     -1.488098  1 Ti dyy        
    39     -1.488805  1 Ti dzz               78     -0.227751  1 Ti gyyzz      
 
 Vector   27  Occ=0.000000D+00  E= 1.777544D-01
              MO Center=  2.8D-03,  2.4D-03, -2.5D-03, r^2= 8.7D+00
   Bfn.  Coefficient  Atom+Function         Bfn.  Coefficient  Atom+Function  
  ----- ------------  ---------------      ----- ------------  ---------------
    16      3.649249  1 Ti px                18     -3.264554  1 Ti pz         
    17      3.144470  1 Ti py                19     -1.256201  1 Ti px         
    46     -1.155441  1 Ti fxxx              49     -1.140051  1 Ti fxyy       
    51     -1.132584  1 Ti fxzz              21      1.123769  1 Ti pz         
    20     -1.082463  1 Ti py                53      1.042381  1 Ti fyyz       
 
 Vector   28  Occ=0.000000D+00  E= 1.784436D-01
              MO Center= -3.4D-04,  9.0D-05, -2.9D-04, r^2= 8.7D+00
   Bfn.  Coefficient  Atom+Function         Bfn.  Coefficient  Atom+Function  
  ----- ------------  ---------------      ----- ------------  ---------------
    16      4.345498  1 Ti px                18      3.683525  1 Ti pz         
    19     -1.493118  1 Ti px                46     -1.375821  1 Ti fxxx       
    51     -1.375410  1 Ti fxzz              49     -1.334514  1 Ti fxyy       
    21     -1.265659  1 Ti pz                17     -1.218854  1 Ti py         
    48     -1.181533  1 Ti fxxz              53     -1.149735  1 Ti fyyz       
 
 Vector   29  Occ=0.000000D+00  E= 4.470214D-01
              MO Center=  1.7D-05,  2.6D-05,  6.5D-07, r^2= 4.8D+00
   Bfn.  Coefficient  Atom+Function         Bfn.  Coefficient  Atom+Function  
  ----- ------------  ---------------      ----- ------------  ---------------
    36      1.165508  1 Ti dxz               37      1.086577  1 Ti dyy        
    35      0.998311  1 Ti dxy               39     -0.732622  1 Ti dzz        
    42     -0.620448  1 Ti dxz               43     -0.578525  1 Ti dyy        
    41     -0.531444  1 Ti dxy               38     -0.406159  1 Ti dyz        
    45      0.389918  1 Ti dzz               34     -0.354187  1 Ti dxx        
 
 Vector   30  Occ=0.000000D+00  E= 4.474611D-01
              MO Center= -4.2D-05, -1.4D-05,  3.9D-05, r^2= 4.8D+00
   Bfn.  Coefficient  Atom+Function         Bfn.  Coefficient  Atom+Function  
  ----- ------------  ---------------      ----- ------------  ---------------
    35      1.619800  1 Ti dxy               38      1.019458  1 Ti dyz        
    41     -0.861669  1 Ti dxy               39      0.849383  1 Ti dzz        
    36      0.615379  1 Ti dxz               44     -0.542313  1 Ti dyz        
    23     -0.475609  1 Ti dxy               45     -0.451820  1 Ti dzz        
    37     -0.443272  1 Ti dyy               34     -0.406064  1 Ti dxx        
 
 Vector   31  Occ=0.000000D+00  E= 4.611331D-01
              MO Center=  2.1D-05, -7.6D-06, -3.2D-05, r^2= 4.7D+00
   Bfn.  Coefficient  Atom+Function         Bfn.  Coefficient  Atom+Function  
  ----- ------------  ---------------      ----- ------------  ---------------
    36      1.991333  1 Ti dxz               35     -1.141725  1 Ti dxy        
    42     -1.042129  1 Ti dxz               38      0.716441  1 Ti dyz        
    41      0.597487  1 Ti dxy               24     -0.575459  1 Ti dxz        
    34      0.373526  1 Ti dxx               44     -0.374900  1 Ti dyz        
    68     -0.333761  1 Ti gxxxz             23      0.330734  1 Ti dxy        
 
 Vector   32  Occ=0.000000D+00  E= 4.611514D-01
              MO Center=  2.0D-05, -9.7D-06, -3.1D-05, r^2= 4.7D+00
   Bfn.  Coefficient  Atom+Function         Bfn.  Coefficient  Atom+Function  
  ----- ------------  ---------------      ----- ------------  ---------------
    34      1.126067  1 Ti dxx               38      1.038013  1 Ti dyz        
    39     -0.896902  1 Ti dzz               35      0.883147  1 Ti dxy        
    40     -0.589038  1 Ti dxx               44     -0.543221  1 Ti dyz        
    45      0.469607  1 Ti dzz               41     -0.462169  1 Ti dxy        
    36     -0.411470  1 Ti dxz               22     -0.325661  1 Ti dxx        
 
 Vector   33  Occ=0.000000D+00  E= 4.707824D-01
              MO Center= -2.4D-05, -4.8D-06,  3.2D-05, r^2= 4.6D+00
   Bfn.  Coefficient  Atom+Function         Bfn.  Coefficient  Atom+Function  
  ----- ------------  ---------------      ----- ------------  ---------------
    38      1.857122  1 Ti dyz               44     -0.960259  1 Ti dyz        
    37      0.738815  1 Ti dyy               35     -0.726958  1 Ti dxy        
    34     -0.619488  1 Ti dxx               36     -0.619407  1 Ti dxz        
    26     -0.557967  1 Ti dyz               41      0.375872  1 Ti dxy        
    43     -0.359921  1 Ti dyy               40      0.342425  1 Ti dxx        
 
 Vector   34  Occ=0.000000D+00  E= 6.669603D-01
              MO Center=  2.7D-05,  5.8D-05, -2.2D-05, r^2= 2.4D+00
   Bfn.  Coefficient  Atom+Function         Bfn.  Coefficient  Atom+Function  
  ----- ------------  ---------------      ----- ------------  ---------------
    51      1.670450  1 Ti fxzz              49     -1.432752  1 Ti fxyy       
    50      1.380604  1 Ti fxyz              48     -0.606759  1 Ti fxxz       
    47      0.597154  1 Ti fxxy              54      0.437750  1 Ti fyzz       
    52     -0.432719  1 Ti fyyy              53      0.295031  1 Ti fyyz       
    17      0.115415  1 Ti py                18      0.112225  1 Ti pz         
 
 Vector   35  Occ=0.000000D+00  E= 6.669813D-01
              MO Center=  2.5D-05,  5.7D-05, -2.1D-05, r^2= 2.4D+00
   Bfn.  Coefficient  Atom+Function         Bfn.  Coefficient  Atom+Function  
  ----- ------------  ---------------      ----- ------------  ---------------
    47      1.227453  1 Ti fxxy              53      1.204662  1 Ti fyyz       
    48      0.978883  1 Ti fxxz              49      0.960690  1 Ti fxyy       
    55     -0.724020  1 Ti fzzz              46     -0.391359  1 Ti fxxx       
    52     -0.348186  1 Ti fyyy              51      0.263668  1 Ti fxzz       
    54     -0.175606  1 Ti fyzz              50      0.089948  1 Ti fxyz       
 
 Vector   36  Occ=0.000000D+00  E= 6.758393D-01
              MO Center=  1.3D-05,  3.5D-05, -3.6D-06, r^2= 3.3D+00
   Bfn.  Coefficient  Atom+Function         Bfn.  Coefficient  Atom+Function  
  ----- ------------  ---------------      ----- ------------  ---------------
    16      3.347811  1 Ti px                18     -3.013558  1 Ti pz         
    17      2.873792  1 Ti py                51     -2.000732  1 Ti fxzz       
    52     -1.973669  1 Ti fyyy              49     -1.779240  1 Ti fxyy       
    50     -1.633268  1 Ti fxyz              48      1.537026  1 Ti fxxz       
    55      1.510355  1 Ti fzzz              46     -1.301434  1 Ti fxxx       
 
 Vector   37  Occ=0.000000D+00  E= 6.764809D-01
              MO Center= -8.6D-06,  1.8D-05,  1.2D-05, r^2= 3.3D+00
   Bfn.  Coefficient  Atom+Function         Bfn.  Coefficient  Atom+Function  
  ----- ------------  ---------------      ----- ------------  ---------------
    16      4.040345  1 Ti px                18      3.419612  1 Ti pz         
    49     -2.947498  1 Ti fxyy              53     -1.853393  1 Ti fyyz       
    55     -1.705569  1 Ti fzzz              51     -1.643603  1 Ti fxzz       
    46     -1.561534  1 Ti fxxx              50     -1.204117  1 Ti fxyz       
    47      1.156836  1 Ti fxxy              13     -1.140296  1 Ti px         
 
 Vector   38  Occ=0.000000D+00  E= 6.799254D-01
              MO Center= -2.1D-06,  1.1D-05,  5.1D-06, r^2= 3.4D+00
   Bfn.  Coefficient  Atom+Function         Bfn.  Coefficient  Atom+Function  
  ----- ------------  ---------------      ----- ------------  ---------------
    17      4.795914  1 Ti py                18      3.132042  1 Ti pz         
    47     -2.981969  1 Ti fxxy              52     -2.088405  1 Ti fyyy       
    48     -1.916762  1 Ti fxxz              54     -1.808421  1 Ti fyzz       
    55     -1.787643  1 Ti fzzz              14     -1.351122  1 Ti py         
    16     -1.312994  1 Ti px                50     -1.251192  1 Ti fxyz       
 
 Vector   39  Occ=0.000000D+00  E= 6.949580D-01
              MO Center=  9.5D-06, -3.1D-05, -2.2D-05, r^2= 4.4D+00
   Bfn.  Coefficient  Atom+Function         Bfn.  Coefficient  Atom+Function  
  ----- ------------  ---------------      ----- ------------  ---------------
    17      6.886094  1 Ti py                18      4.488437  1 Ti pz         
    54     -3.483129  1 Ti fyzz              52     -3.276535  1 Ti fyyy       
    53     -3.133257  1 Ti fyyz              47     -2.672982  1 Ti fxxy       
    14     -1.922966  1 Ti py                16     -1.884320  1 Ti px         
    55     -1.848544  1 Ti fzzz              48     -1.740933  1 Ti fxxz       
 
 Vector   40  Occ=0.000000D+00  E= 6.966095D-01
              MO Center=  4.3D-05,  4.2D-05, -5.1D-05, r^2= 2.5D+00
   Bfn.  Coefficient  Atom+Function         Bfn.  Coefficient  Atom+Function  
  ----- ------------  ---------------      ----- ------------  ---------------
    50      1.942293  1 Ti fxyz              48      1.558049  1 Ti fxxz       
    51     -1.054427  1 Ti fxzz              49     -0.962831  1 Ti fxyy       
    47     -0.637923  1 Ti fxxy              54      0.487728  1 Ti fyzz       
    16      0.436095  1 Ti px                46      0.335180  1 Ti fxxx       
    55     -0.312006  1 Ti fzzz              18     -0.276413  1 Ti pz         
 
 Vector   41  Occ=0.000000D+00  E= 6.966109D-01
              MO Center=  4.3D-05,  4.2D-05, -5.2D-05, r^2= 2.5D+00
   Bfn.  Coefficient  Atom+Function         Bfn.  Coefficient  Atom+Function  
  ----- ------------  ---------------      ----- ------------  ---------------
    51      1.246468  1 Ti fxzz              47     -1.125515  1 Ti fxxy       
    50     -1.129490  1 Ti fxyz              48      1.021882  1 Ti fxxz       
    54      0.844241  1 Ti fyzz              53     -0.838922  1 Ti fyyz       
    46     -0.625311  1 Ti fxxx              18      0.394552  1 Ti pz         
    55     -0.366052  1 Ti fzzz              16      0.299290  1 Ti px         
 
 Vector   42  Occ=0.000000D+00  E= 7.045681D-01
              MO Center= -7.1D-05, -5.8D-05,  6.8D-05, r^2= 4.5D+00
   Bfn.  Coefficient  Atom+Function         Bfn.  Coefficient  Atom+Function  
  ----- ------------  ---------------      ----- ------------  ---------------
    16      5.478037  1 Ti px                18     -4.897004  1 Ti pz         
    17      4.702848  1 Ti py                54     -2.908991  1 Ti fyzz       
    46     -2.736019  1 Ti fxxx              47     -2.659369  1 Ti fxxy       
    53      2.606764  1 Ti fyyz              49     -2.361126  1 Ti fxyy       
    55      2.230753  1 Ti fzzz              51     -2.196189  1 Ti fxzz       
 
 Vector   43  Occ=0.000000D+00  E= 7.054910D-01
              MO Center= -3.2D-06, -8.9D-06,  2.2D-05, r^2= 4.5D+00
   Bfn.  Coefficient  Atom+Function         Bfn.  Coefficient  Atom+Function  
  ----- ------------  ---------------      ----- ------------  ---------------
    16      6.471687  1 Ti px                18      5.495370  1 Ti pz         
    51     -3.217050  1 Ti fxzz              46     -3.175342  1 Ti fxxx       
    48     -3.065555  1 Ti fxxz              55     -2.464800  1 Ti fzzz       
    49     -2.341365  1 Ti fxyy              53     -2.348886  1 Ti fyyz       
    17     -1.815866  1 Ti py                13     -1.802464  1 Ti px         
 
 Vector   44  Occ=0.000000D+00  E= 8.718006D-01
              MO Center=  6.5D-05,  1.4D-04, -6.0D-05, r^2= 1.2D+01
   Bfn.  Coefficient  Atom+Function         Bfn.  Coefficient  Atom+Function  
  ----- ------------  ---------------      ----- ------------  ---------------
     5     26.046671  1 Ti s                  6     18.252778  1 Ti s          
    34    -10.256511  1 Ti dxx               37    -10.256083  1 Ti dyy        
    39    -10.256348  1 Ti dzz                4     -7.503481  1 Ti s          
    40     -7.288639  1 Ti dxx               43     -7.289411  1 Ti dyy        
    45     -7.288928  1 Ti dzz               28     -2.266306  1 Ti dxx        
 
 Vector   45  Occ=0.000000D+00  E= 1.086282D+00
              MO Center= -2.1D-05, -4.9D-05,  1.8D-05, r^2= 7.6D+00
   Bfn.  Coefficient  Atom+Function         Bfn.  Coefficient  Atom+Function  
  ----- ------------  ---------------      ----- ------------  ---------------
     5     30.305975  1 Ti s                  6     12.197027  1 Ti s          
    34    -11.623199  1 Ti dxx               37    -11.623807  1 Ti dyy        
    39    -11.623433  1 Ti dzz                4     -9.834694  1 Ti s          
    40     -5.242867  1 Ti dxx               43     -5.242442  1 Ti dyy        
    45     -5.242707  1 Ti dzz               31     -1.116520  1 Ti dyy        
 
 Vector   46  Occ=0.000000D+00  E= 1.762308D+00
              MO Center= -5.5D-05, -9.7D-05,  2.3D-05, r^2= 1.8D+00
   Bfn.  Coefficient  Atom+Function         Bfn.  Coefficient  Atom+Function  
  ----- ------------  ---------------      ----- ------------  ---------------
    68      0.944415  1 Ti gxxxz             73      0.939937  1 Ti gxyyz      
    75      0.944065  1 Ti gxzzz             67      0.848568  1 Ti gxxxy      
    72      0.848486  1 Ti gxyyy             74      0.845002  1 Ti gxyzz      
    71     -0.840424  1 Ti gxxzz             76      0.838583  1 Ti gyyyy      
    36     -0.812177  1 Ti dxz               35     -0.729857  1 Ti dxy        
 
 Vector   47  Occ=0.000000D+00  E= 1.762566D+00
              MO Center=  2.4D-05, -5.0D-05, -1.6D-05, r^2= 1.8D+00
   Bfn.  Coefficient  Atom+Function         Bfn.  Coefficient  Atom+Function  
  ----- ------------  ---------------      ----- ------------  ---------------
    67      1.240973  1 Ti gxxxy             72      1.239092  1 Ti gxyyy      
    74      1.240631  1 Ti gxyzz             35     -1.067082  1 Ti dxy        
    70      0.823705  1 Ti gxxyz             77      0.821088  1 Ti gyyyz      
    79      0.818326  1 Ti gyzzz             38     -0.705830  1 Ti dyz        
    80      0.696703  1 Ti gzzzz             23     -0.691658  1 Ti dxy        
 
 Vector   48  Occ=0.000000D+00  E= 1.783272D+00
              MO Center= -7.6D-05, -8.1D-05,  9.1D-05, r^2= 1.8D+00
   Bfn.  Coefficient  Atom+Function         Bfn.  Coefficient  Atom+Function  
  ----- ------------  ---------------      ----- ------------  ---------------
    70      1.004621  1 Ti gxxyz             77      0.980842  1 Ti gyyyz      
    79      0.914884  1 Ti gyzzz             66      0.906902  1 Ti gxxxx      
    78     -0.869743  1 Ti gyyzz             38     -0.818936  1 Ti dyz        
    34     -0.784299  1 Ti dxx               69      0.674172  1 Ti gxxyy      
    80     -0.639041  1 Ti gzzzz             26     -0.538409  1 Ti dyz        
 
 Vector   49  Occ=0.000000D+00  E= 1.783291D+00
              MO Center= -7.9D-05, -8.2D-05,  9.0D-05, r^2= 1.8D+00
   Bfn.  Coefficient  Atom+Function         Bfn.  Coefficient  Atom+Function  
  ----- ------------  ---------------      ----- ------------  ---------------
    75      1.543879  1 Ti gxzzz             68      1.519022  1 Ti gxxxz      
    73      1.519172  1 Ti gxyyz             36     -1.310485  1 Ti dxz        
    72     -1.136496  1 Ti gxyyy             67     -1.070584  1 Ti gxxxy      
    74     -0.979959  1 Ti gxyzz             35      0.930184  1 Ti dxy        
    24     -0.861469  1 Ti dxz               23      0.611570  1 Ti dxy        
 
 Vector   50  Occ=0.000000D+00  E= 1.806731D+00
              MO Center= -9.4D-06, -1.8D-04, -3.1D-05, r^2= 1.7D+00
   Bfn.  Coefficient  Atom+Function         Bfn.  Coefficient  Atom+Function  
  ----- ------------  ---------------      ----- ------------  ---------------
    70      1.488721  1 Ti gxxyz             79      1.484516  1 Ti gyzzz      
    77      1.473564  1 Ti gyyyz             38     -1.245069  1 Ti dyz        
    26     -0.829416  1 Ti dyz               67     -0.620433  1 Ti gxxxy      
    72     -0.612228  1 Ti gxyyy             74     -0.612296  1 Ti gxyzz      
    76      0.575686  1 Ti gyyyy             71     -0.558057  1 Ti gxxzz      
 
 Vector   51  Occ=0.000000D+00  E= 1.835414D+00
              MO Center=  1.5D-04,  2.1D-04, -1.4D-04, r^2= 3.0D+00
   Bfn.  Coefficient  Atom+Function         Bfn.  Coefficient  Atom+Function  
  ----- ------------  ---------------      ----- ------------  ---------------
    16      5.765191  1 Ti px                18     -5.185886  1 Ti pz         
    17      4.914826  1 Ti py                46     -3.531391  1 Ti fxxx       
    49     -3.535392  1 Ti fxyy              51     -3.537470  1 Ti fxzz       
    48      3.179755  1 Ti fxxz              53      3.173786  1 Ti fyyz       
    55      3.179418  1 Ti fzzz              47     -3.005512  1 Ti fxxy       
 
 Vector   52  Occ=0.000000D+00  E= 1.835776D+00
              MO Center=  5.9D-05,  1.4D-04, -7.6D-05, r^2= 3.0D+00
   Bfn.  Coefficient  Atom+Function         Bfn.  Coefficient  Atom+Function  
  ----- ------------  ---------------      ----- ------------  ---------------
    16      6.848351  1 Ti px                18      5.809934  1 Ti pz         
    46     -4.195081  1 Ti fxxx              49     -4.206494  1 Ti fxyy       
    51     -4.195666  1 Ti fxzz              48     -3.555351  1 Ti fxxz       
    53     -3.563392  1 Ti fyyz              55     -3.562113  1 Ti fzzz       
    17     -1.902905  1 Ti py                47      1.171445  1 Ti fxxy       
 
 Vector   53  Occ=0.000000D+00  E= 1.837966D+00
              MO Center=  2.0D-05,  2.2D-04,  2.7D-05, r^2= 3.0D+00
   Bfn.  Coefficient  Atom+Function         Bfn.  Coefficient  Atom+Function  
  ----- ------------  ---------------      ----- ------------  ---------------
    17      7.526504  1 Ti py                18      4.867555  1 Ti pz         
    47     -4.618748  1 Ti fxxy              52     -4.612246  1 Ti fyyy       
    54     -4.609693  1 Ti fyzz              48     -2.987200  1 Ti fxxz       
    53     -2.971586  1 Ti fyyz              55     -2.985993  1 Ti fzzz       
    16     -2.038105  1 Ti px                46      1.251085  1 Ti fxxx       
 
 Vector   54  Occ=0.000000D+00  E= 2.553224D+00
              MO Center= -1.4D-06, -2.3D-06,  1.5D-06, r^2= 1.2D+00
   Bfn.  Coefficient  Atom+Function         Bfn.  Coefficient  Atom+Function  
  ----- ------------  ---------------      ----- ------------  ---------------
    73      3.633460  1 Ti gxyyz             71      2.248314  1 Ti gxxzz      
    72     -1.590417  1 Ti gxyyy             67      1.509414  1 Ti gxxxy      
    75     -1.487790  1 Ti gxzzz             78      0.894750  1 Ti gyyzz      
    70      0.800071  1 Ti gxxyz             80     -0.523962  1 Ti gzzzz      
    66     -0.385653  1 Ti gxxxx             68      0.277255  1 Ti gxxxz      
 
 Vector   55  Occ=0.000000D+00  E= 2.553229D+00
              MO Center= -1.4D-06, -2.3D-06,  1.5D-06, r^2= 1.2D+00
   Bfn.  Coefficient  Atom+Function         Bfn.  Coefficient  Atom+Function  
  ----- ------------  ---------------      ----- ------------  ---------------
    69      2.709969  1 Ti gxxyy             70     -1.896987  1 Ti gxxyz      
    75     -1.762024  1 Ti gxzzz             71     -1.537752  1 Ti gxxzz      
    68      1.390575  1 Ti gxxxz             77      1.258245  1 Ti gyyyz      
    73      1.113254  1 Ti gxyyz             74     -1.036562  1 Ti gxyzz      
    78     -1.015037  1 Ti gyyzz             79     -0.626384  1 Ti gyzzz      
 
 Vector   56  Occ=0.000000D+00  E= 2.569355D+00
              MO Center= -1.0D-06, -2.8D-06,  8.6D-07, r^2= 1.2D+00
   Bfn.  Coefficient  Atom+Function         Bfn.  Coefficient  Atom+Function  
  ----- ------------  ---------------      ----- ------------  ---------------
    74      2.427899  1 Ti gxyzz             78      1.944865  1 Ti gyyzz      
    69      1.880701  1 Ti gxxyy             70      1.628330  1 Ti gxxyz      
    79     -1.504635  1 Ti gyzzz             67     -1.325499  1 Ti gxxxy      
    68     -1.095924  1 Ti gxxxz             77      0.935293  1 Ti gyyyz      
    75      0.921952  1 Ti gxzzz             76     -0.633105  1 Ti gyyyy      
 
 Vector   57  Occ=0.000000D+00  E= 2.569364D+00
              MO Center= -1.2D-06, -2.8D-06,  8.3D-07, r^2= 1.2D+00
   Bfn.  Coefficient  Atom+Function         Bfn.  Coefficient  Atom+Function  
  ----- ------------  ---------------      ----- ------------  ---------------
    74      4.001463  1 Ti gxyzz             72     -2.139366  1 Ti gxyyy      
    70     -2.049504  1 Ti gxxyz             71     -1.657183  1 Ti gxxzz      
    79      1.274919  1 Ti gyzzz             69      1.064626  1 Ti gxxyy      
    67      0.836682  1 Ti gxxxy             77     -0.587702  1 Ti gyyyz      
    73     -0.568952  1 Ti gxyyz             75      0.446458  1 Ti gxzzz      
 
 Vector   58  Occ=0.000000D+00  E= 2.573557D+00
              MO Center= -1.6D-06, -4.0D-06,  6.1D-07, r^2= 1.2D+00
   Bfn.  Coefficient  Atom+Function         Bfn.  Coefficient  Atom+Function  
  ----- ------------  ---------------      ----- ------------  ---------------
    74      2.677813  1 Ti gxyzz             73      2.275384  1 Ti gxyyz      
    69     -1.937666  1 Ti gxxyy             77      1.881896  1 Ti gyyyz      
    70     -1.849057  1 Ti gxxyz             78     -1.550644  1 Ti gyyzz      
    79     -1.271842  1 Ti gyzzz             68     -0.759079  1 Ti gxxxz      
    76      0.590115  1 Ti gyyyy             67     -0.571358  1 Ti gxxxy      
 
 Vector   59  Occ=0.000000D+00  E= 2.574001D+00
              MO Center=  6.3D-07, -2.4D-06, -7.6D-07, r^2= 1.2D+00
   Bfn.  Coefficient  Atom+Function         Bfn.  Coefficient  Atom+Function  
  ----- ------------  ---------------      ----- ------------  ---------------
    70      3.046260  1 Ti gxxyz             73     -2.868125  1 Ti gxyyz      
    78     -2.539300  1 Ti gyyzz             79     -1.346179  1 Ti gyzzz      
    72     -1.210316  1 Ti gxyyy             69      1.124413  1 Ti gxxyy      
    67      0.993858  1 Ti gxxxy             71      0.926673  1 Ti gxxzz      
    75      0.657282  1 Ti gxzzz             74      0.571745  1 Ti gxyzz      
 
 Vector   60  Occ=0.000000D+00  E= 2.587917D+00
              MO Center= -1.2D-07, -4.0D-06, -8.2D-07, r^2= 1.2D+00
   Bfn.  Coefficient  Atom+Function         Bfn.  Coefficient  Atom+Function  
  ----- ------------  ---------------      ----- ------------  ---------------
    73      3.273405  1 Ti gxyyz             78     -2.135807  1 Ti gyyzz      
    70      2.077846  1 Ti gxxyz             77     -1.834891  1 Ti gyyyz      
    74      1.418466  1 Ti gxyzz             67     -1.197521  1 Ti gxxxy      
    69      1.092718  1 Ti gxxyy             79      1.079744  1 Ti gyzzz      
    68     -0.793312  1 Ti gxxxz             72      0.751179  1 Ti gxyyy      
 
 Vector   61  Occ=0.000000D+00  E= 2.590309D+00
              MO Center= -3.2D-06, -3.4D-06,  3.8D-06, r^2= 1.2D+00
   Bfn.  Coefficient  Atom+Function         Bfn.  Coefficient  Atom+Function  
  ----- ------------  ---------------      ----- ------------  ---------------
    70      4.072775  1 Ti gxxyz             71     -2.587852  1 Ti gxxzz      
    69     -1.302633  1 Ti gxxyy             75     -1.121250  1 Ti gxzzz      
    78      1.060553  1 Ti gyyzz             79     -0.950396  1 Ti gyzzz      
    68      0.910462  1 Ti gxxxz             74      0.829921  1 Ti gxyzz      
    66      0.648573  1 Ti gxxxx             73      0.629588  1 Ti gxyyz      
 
 Vector   62  Occ=0.000000D+00  E= 2.590317D+00
              MO Center= -3.2D-06, -3.4D-06,  3.8D-06, r^2= 1.2D+00
   Bfn.  Coefficient  Atom+Function         Bfn.  Coefficient  Atom+Function  
  ----- ------------  ---------------      ----- ------------  ---------------
    74      3.450701  1 Ti gxyzz             73     -2.371201  1 Ti gxyyz      
    68      2.140651  1 Ti gxxxz             71      1.579663  1 Ti gxxzz      
    67     -1.570338  1 Ti gxxxy             75     -1.349675  1 Ti gxzzz      
    69     -0.560065  1 Ti gxxyy             72      0.420043  1 Ti gxyyy      
    79      0.395110  1 Ti gyzzz             70     -0.332441  1 Ti gxxyz      
 
 Vector   63  Occ=0.000000D+00  E= 2.862065D+00
              MO Center=  7.1D-06,  1.6D-05, -6.2D-06, r^2= 7.7D-01
   Bfn.  Coefficient  Atom+Function         Bfn.  Coefficient  Atom+Function  
  ----- ------------  ---------------      ----- ------------  ---------------
    61     -1.719006  1 Ti fxzz              59      1.663916  1 Ti fxyy       
    60     -1.498765  1 Ti fxyz              58      0.710802  1 Ti fxxz       
    51      0.629079  1 Ti fxzz              49     -0.609311  1 Ti fxyy       
    50      0.548673  1 Ti fxyz              57     -0.549498  1 Ti fxxy       
    64     -0.537666  1 Ti fyzz              62      0.362626  1 Ti fyyy       
 
 Vector   64  Occ=0.000000D+00  E= 2.862097D+00
              MO Center=  7.0D-06,  1.6D-05, -6.1D-06, r^2= 7.7D-01
   Bfn.  Coefficient  Atom+Function         Bfn.  Coefficient  Atom+Function  
  ----- ------------  ---------------      ----- ------------  ---------------
    57      1.402453  1 Ti fxxy              63      1.320280  1 Ti fyyz       
    58      0.964147  1 Ti fxxz              59      0.810567  1 Ti fxyy       
    65     -0.761543  1 Ti fzzz              47     -0.513452  1 Ti fxxy       
    61      0.501280  1 Ti fxzz              53     -0.483421  1 Ti fyyz       
    56     -0.437277  1 Ti fxxx              62     -0.427470  1 Ti fyyy       
 
 Vector   65  Occ=0.000000D+00  E= 2.879117D+00
              MO Center=  1.1D-05,  1.6D-05, -1.2D-05, r^2= 7.7D-01
   Bfn.  Coefficient  Atom+Function         Bfn.  Coefficient  Atom+Function  
  ----- ------------  ---------------      ----- ------------  ---------------
    58      1.600666  1 Ti fxxz              57     -1.372211  1 Ti fxxy       
    61      1.252997  1 Ti fxzz              64      0.950025  1 Ti fyzz       
    60     -0.746015  1 Ti fxyz              63     -0.706090  1 Ti fyyz       
    48     -0.582167  1 Ti fxxz              47      0.498552  1 Ti fxxy       
    51     -0.456018  1 Ti fxzz              56     -0.380109  1 Ti fxxx       
 
 Vector   66  Occ=0.000000D+00  E= 2.879120D+00
              MO Center=  1.1D-05,  1.6D-05, -1.2D-05, r^2= 7.7D-01
   Bfn.  Coefficient  Atom+Function         Bfn.  Coefficient  Atom+Function  
  ----- ------------  ---------------      ----- ------------  ---------------
    60      2.306171  1 Ti fxyz              58      1.229386  1 Ti fxxz       
    61     -1.223716  1 Ti fxzz              50     -0.837762  1 Ti fxyz       
    59     -0.803504  1 Ti fxyy              56      0.675375  1 Ti fxxx       
    64      0.451591  1 Ti fyzz              48     -0.445809  1 Ti fxxz       
    51      0.443833  1 Ti fxzz              65     -0.410812  1 Ti fzzz       
 
 Vector   67  Occ=0.000000D+00  E= 2.891314D+00
              MO Center=  8.9D-06,  1.9D-05, -5.5D-06, r^2= 7.7D-01
   Bfn.  Coefficient  Atom+Function         Bfn.  Coefficient  Atom+Function  
  ----- ------------  ---------------      ----- ------------  ---------------
    60      2.027061  1 Ti fxyz              64     -1.417177  1 Ti fyzz       
    57     -1.020030  1 Ti fxxy              62      0.812139  1 Ti fyyy       
    50     -0.735972  1 Ti fxyz              63      0.681139  1 Ti fyyz       
    61      0.613255  1 Ti fxzz              54      0.524808  1 Ti fyzz       
    47      0.380561  1 Ti fxxy              59      0.342855  1 Ti fxyy       
 
 Vector   68  Occ=0.000000D+00  E= 2.891542D+00
              MO Center=  9.8D-07,  1.4D-05, -4.9D-07, r^2= 7.7D-01
   Bfn.  Coefficient  Atom+Function         Bfn.  Coefficient  Atom+Function  
  ----- ------------  ---------------      ----- ------------  ---------------
    64      1.747946  1 Ti fyzz              60      1.495420  1 Ti fxyz       
    59      1.374239  1 Ti fxyy              58     -0.899006  1 Ti fxxz       
    57     -0.752543  1 Ti fxxy              54     -0.639278  1 Ti fyzz       
    50     -0.543102  1 Ti fxyz              49     -0.483874  1 Ti fxyy       
    63      0.360678  1 Ti fyyz              56     -0.354587  1 Ti fxxx       
 
 Vector   69  Occ=0.000000D+00  E= 2.902035D+00
              MO Center=  4.0D-06,  1.6D-05, -1.6D-06, r^2= 7.7D-01
   Bfn.  Coefficient  Atom+Function         Bfn.  Coefficient  Atom+Function  
  ----- ------------  ---------------      ----- ------------  ---------------
    63      1.969448  1 Ti fyyz              60     -1.543865  1 Ti fxyz       
    57     -0.991610  1 Ti fxxy              59     -0.822512  1 Ti fxyy       
    53     -0.739686  1 Ti fyyz              58     -0.641894  1 Ti fxxz       
    50      0.557621  1 Ti fxyz              64      0.532988  1 Ti fyzz       
    65     -0.458772  1 Ti fzzz              56      0.334613  1 Ti fxxx       
 
 Vector   70  Occ=0.000000D+00  E= 4.064748D+00
              MO Center= -1.7D-05, -3.7D-05,  1.5D-05, r^2= 1.2D+00
   Bfn.  Coefficient  Atom+Function         Bfn.  Coefficient  Atom+Function  
  ----- ------------  ---------------      ----- ------------  ---------------
    71      3.971397  1 Ti gxxzz             69      3.937472  1 Ti gxxyy      
    78      3.927259  1 Ti gyyzz              6     -2.252609  1 Ti s          
    28     -2.201167  1 Ti dxx               33     -2.174633  1 Ti dzz        
    31     -2.131747  1 Ti dyy                4     -2.072576  1 Ti s          
     3      1.988816  1 Ti s                 66      1.996113  1 Ti gxxxx      
 
 Vector   71  Occ=0.000000D+00  E= 4.701743D+00
              MO Center= -2.1D-05, -5.7D-05,  2.1D-05, r^2= 1.3D+00
   Bfn.  Coefficient  Atom+Function         Bfn.  Coefficient  Atom+Function  
  ----- ------------  ---------------      ----- ------------  ---------------
    16      4.693966  1 Ti px                46     -3.214088  1 Ti fxxx       
    49     -3.216344  1 Ti fxyy              51     -3.214404  1 Ti fxzz       
    13      2.847863  1 Ti px                18      2.594205  1 Ti pz         
    56     -2.497445  1 Ti fxxx              59     -2.500321  1 Ti fxyy       
    61     -2.497956  1 Ti fxzz              48     -1.775449  1 Ti fxxz       
 
 Vector   72  Occ=0.000000D+00  E= 4.701766D+00
              MO Center= -1.1D-05, -4.0D-05,  1.0D-07, r^2= 1.3D+00
   Bfn.  Coefficient  Atom+Function         Bfn.  Coefficient  Atom+Function  
  ----- ------------  ---------------      ----- ------------  ---------------
    18      3.739187  1 Ti pz                17     -3.082876  1 Ti py         
    48     -2.560735  1 Ti fxxz              53     -2.560017  1 Ti fyyz       
    55     -2.560919  1 Ti fzzz              16     -2.335203  1 Ti px         
    15      2.268363  1 Ti pz                47      2.110291  1 Ti fxxy       
    52      2.112288  1 Ti fyyy              54      2.109025  1 Ti fyzz       
 
 Vector   73  Occ=0.000000D+00  E= 4.717603D+00
              MO Center= -3.1D-05, -4.8D-05,  3.2D-05, r^2= 1.3D+00
   Bfn.  Coefficient  Atom+Function         Bfn.  Coefficient  Atom+Function  
  ----- ------------  ---------------      ----- ------------  ---------------
    17      4.386404  1 Ti py                47     -3.005275  1 Ti fxxy       
    52     -3.003321  1 Ti fyyy              54     -3.002577  1 Ti fyzz       
    18      2.865650  1 Ti pz                14      2.657673  1 Ti py         
    57     -2.329950  1 Ti fxxy              62     -2.335542  1 Ti fyyy       
    64     -2.337610  1 Ti fyzz              48     -1.963384  1 Ti fxxz       
 
 Vector   74  Occ=0.000000D+00  E= 4.927309D+00
              MO Center=  3.2D-05,  3.3D-05, -3.8D-05, r^2= 7.8D-01
   Bfn.  Coefficient  Atom+Function         Bfn.  Coefficient  Atom+Function  
  ----- ------------  ---------------      ----- ------------  ---------------
    30     10.334365  1 Ti dxz               68     -7.135371  1 Ti gxxxz      
    73     -7.134464  1 Ti gxyyz             75     -7.131673  1 Ti gxzzz      
    29     -6.528271  1 Ti dxy               67      4.507227  1 Ti gxxxy      
    72      4.501493  1 Ti gxyyy             74      4.518502  1 Ti gxyzz      
    24     -2.417233  1 Ti dxz               23      1.526968  1 Ti dxy        
 
 Vector   75  Occ=0.000000D+00  E= 4.927322D+00
              MO Center=  3.2D-05,  3.6D-05, -3.7D-05, r^2= 7.8D-01
   Bfn.  Coefficient  Atom+Function         Bfn.  Coefficient  Atom+Function  
  ----- ------------  ---------------      ----- ------------  ---------------
    32      6.060898  1 Ti dyz               28      5.863604  1 Ti dxx        
    33     -4.259656  1 Ti dzz               70     -4.177888  1 Ti gxxyz      
    77     -4.180871  1 Ti gyyyz             79     -4.188561  1 Ti gyzzz      
    66     -4.048479  1 Ti gxxxx             78      4.051970  1 Ti gyyzz      
    69     -2.936727  1 Ti gxxyy             80      2.939370  1 Ti gzzzz      
 
 Vector   76  Occ=0.000000D+00  E= 4.928743D+00
              MO Center=  4.3D-05,  5.1D-05,  1.7D-06, r^2= 7.8D-01
   Bfn.  Coefficient  Atom+Function         Bfn.  Coefficient  Atom+Function  
  ----- ------------  ---------------      ----- ------------  ---------------
    29      7.874523  1 Ti dxy               30      6.362745  1 Ti dxz        
    67     -5.435707  1 Ti gxxxy             72     -5.434009  1 Ti gxyyy      
    74     -5.430764  1 Ti gxyzz             68     -4.392257  1 Ti gxxxz      
    73     -4.385646  1 Ti gxyyz             75     -4.391395  1 Ti gxzzz      
    31      4.192462  1 Ti dyy               71      2.892896  1 Ti gxxzz      
 
 Vector   77  Occ=0.000000D+00  E= 4.928786D+00
              MO Center= -2.0D-05,  4.0D-05, -1.1D-05, r^2= 7.8D-01
   Bfn.  Coefficient  Atom+Function         Bfn.  Coefficient  Atom+Function  
  ----- ------------  ---------------      ----- ------------  ---------------
    33      5.472358  1 Ti dzz               32      5.396893  1 Ti dyz        
    29      5.310694  1 Ti dxy               31     -4.178064  1 Ti dyy        
    69      3.775988  1 Ti gxxyy             80     -3.777056  1 Ti gzzzz      
    70     -3.727921  1 Ti gxxyz             77     -3.726171  1 Ti gyyyz      
    79     -3.721468  1 Ti gyzzz             67     -3.666005  1 Ti gxxxy      
 
 Vector   78  Occ=0.000000D+00  E= 4.954336D+00
              MO Center=  3.4D-07,  4.0D-05,  9.6D-06, r^2= 7.8D-01
   Bfn.  Coefficient  Atom+Function         Bfn.  Coefficient  Atom+Function  
  ----- ------------  ---------------      ----- ------------  ---------------
    32      9.398169  1 Ti dyz               70     -6.489921  1 Ti gxxyz      
    77     -6.477907  1 Ti gyyyz             79     -6.486805  1 Ti gyzzz      
    29     -3.918866  1 Ti dxy               31      3.619702  1 Ti dyy        
    28     -3.053542  1 Ti dxx               67      2.707160  1 Ti gxxxy      
    72      2.701190  1 Ti gxyyy             74      2.699218  1 Ti gxyzz      
 
 Vector   79  Occ=0.000000D+00  E= 3.232234D+01
              MO Center=  4.6D-07,  1.1D-06, -3.7D-07, r^2= 3.5D+00
   Bfn.  Coefficient  Atom+Function         Bfn.  Coefficient  Atom+Function  
  ----- ------------  ---------------      ----- ------------  ---------------
     4     65.135700  1 Ti s                 28    -30.504406  1 Ti dxx        
    31    -30.505929  1 Ti dyy               33    -30.504984  1 Ti dzz        
    69     23.613042  1 Ti gxxyy             71     23.612463  1 Ti gxxzz      
    78     23.613767  1 Ti gyyzz              3    -15.179677  1 Ti s          
    66     11.806060  1 Ti gxxxx             76     11.807082  1 Ti gyyyy      
 
 Vector   80  Occ=0.000000D+00  E= 3.765093D+01
              MO Center=  4.0D-09,  7.3D-09, -3.9D-09, r^2= 2.0D-01
   Bfn.  Coefficient  Atom+Function         Bfn.  Coefficient  Atom+Function  
  ----- ------------  ---------------      ----- ------------  ---------------
     3     35.007398  1 Ti s                 22    -19.392489  1 Ti dxx        
    25    -19.392427  1 Ti dyy               27    -19.392466  1 Ti dzz        
    69    -11.906498  1 Ti gxxyy             71    -11.906493  1 Ti gxxzz      
    78    -11.906182  1 Ti gyyzz             28     10.195969  1 Ti dxx        
    31     10.195750  1 Ti dyy               33     10.195887  1 Ti dzz        
 
 
                     DFT Final Beta Molecular Orbital Analysis
                     -----------------------------------------
 
 Vector    1  Occ=1.000000D+00  E=-1.781896D+02
              MO Center= -1.2D-10, -3.6D-10,  9.5D-11, r^2= 1.8D-03
   Bfn.  Coefficient  Atom+Function         Bfn.  Coefficient  Atom+Function  
  ----- ------------  ---------------      ----- ------------  ---------------
     1      0.998262  1 Ti s                  4     -0.027227  1 Ti s          
 
 Vector    2  Occ=1.000000D+00  E=-1.957078D+01
              MO Center= -1.4D-07, -4.5D-07,  1.2D-07, r^2= 3.5D-02
   Bfn.  Coefficient  Atom+Function         Bfn.  Coefficient  Atom+Function  
  ----- ------------  ---------------      ----- ------------  ---------------
     2      1.017102  1 Ti s                  1     -0.306394  1 Ti s          
     4      0.065353  1 Ti s                 28     -0.058441  1 Ti dxx        
    71      0.058099  1 Ti gxxzz             33     -0.057284  1 Ti dzz        
    69      0.056889  1 Ti gxxyy             78      0.056238  1 Ti gyyzz      
    31     -0.055418  1 Ti dyy               66      0.029424  1 Ti gxxxx      
 
 Vector    3  Occ=1.000000D+00  E=-1.631167D+01
              MO Center=  2.2D-07,  1.6D-07, -1.9D-07, r^2= 2.9D-02
   Bfn.  Coefficient  Atom+Function         Bfn.  Coefficient  Atom+Function  
  ----- ------------  ---------------      ----- ------------  ---------------
     7      0.618322  1 Ti px                 9     -0.557303  1 Ti pz         
     8      0.534089  1 Ti py         
 
 Vector    4  Occ=1.000000D+00  E=-1.631136D+01
              MO Center= -5.6D-08, -2.6D-08, -2.4D-08, r^2= 2.9D-02
   Bfn.  Coefficient  Atom+Function         Bfn.  Coefficient  Atom+Function  
  ----- ------------  ---------------      ----- ------------  ---------------
     7      0.739556  1 Ti px                 9      0.623763  1 Ti pz         
     8     -0.205321  1 Ti py         
 
 Vector    5  Occ=1.000000D+00  E=-1.628862D+01
              MO Center= -6.9D-08,  1.7D-07,  1.5D-07, r^2= 2.9D-02
   Bfn.  Coefficient  Atom+Function         Bfn.  Coefficient  Atom+Function  
  ----- ------------  ---------------      ----- ------------  ---------------
     8      0.806935  1 Ti py                 9      0.527891  1 Ti pz         
     7     -0.221211  1 Ti px         
 
 Vector    6  Occ=1.000000D+00  E=-2.242212D+00
              MO Center= -8.6D-06, -1.8D-05,  8.2D-06, r^2= 3.3D-01
   Bfn.  Coefficient  Atom+Function         Bfn.  Coefficient  Atom+Function  
  ----- ------------  ---------------      ----- ------------  ---------------
     3      0.566731  1 Ti s                  2     -0.446538  1 Ti s          
     4      0.386714  1 Ti s                  1      0.112217  1 Ti s          
    22      0.061286  1 Ti dxx               27      0.057918  1 Ti dzz        
    25      0.052477  1 Ti dyy                5     -0.037605  1 Ti s          
    28      0.032478  1 Ti dxx               33      0.027133  1 Ti dzz        
 
 Vector    7  Occ=1.000000D+00  E=-1.395411D+00
              MO Center=  5.5D-06,  7.5D-08, -5.0D-06, r^2= 3.9D-01
   Bfn.  Coefficient  Atom+Function         Bfn.  Coefficient  Atom+Function  
  ----- ------------  ---------------      ----- ------------  ---------------
    10      0.542397  1 Ti px                12     -0.487243  1 Ti pz         
    11      0.467037  1 Ti py                 7     -0.226003  1 Ti px         
     9      0.203022  1 Ti pz                 8     -0.194603  1 Ti py         
    13      0.160417  1 Ti px                15     -0.144105  1 Ti pz         
    14      0.138133  1 Ti py                16      0.036369  1 Ti px         
 
 Vector    8  Occ=1.000000D+00  E=-1.394779D+00
              MO Center= -5.1D-06, -7.5D-06,  2.1D-06, r^2= 3.9D-01
   Bfn.  Coefficient  Atom+Function         Bfn.  Coefficient  Atom+Function  
  ----- ------------  ---------------      ----- ------------  ---------------
    10      0.646273  1 Ti px                12      0.546621  1 Ti pz         
     7     -0.269322  1 Ti px                 9     -0.227794  1 Ti pz         
    13      0.191564  1 Ti px                11     -0.180282  1 Ti py         
    15      0.162027  1 Ti pz                 8      0.075129  1 Ti py         
    14     -0.053439  1 Ti py                16      0.043336  1 Ti px         
 
 Vector    9  Occ=1.000000D+00  E=-1.345611D+00
              MO Center= -4.8D-06, -3.6D-06,  5.9D-06, r^2= 3.9D-01
   Bfn.  Coefficient  Atom+Function         Bfn.  Coefficient  Atom+Function  
  ----- ------------  ---------------      ----- ------------  ---------------
    11      0.707271  1 Ti py                12      0.462304  1 Ti pz         
     8     -0.294503  1 Ti py                14      0.212020  1 Ti py         
    10     -0.193721  1 Ti px                 9     -0.192500  1 Ti pz         
    15      0.138582  1 Ti pz                 7      0.080664  1 Ti px         
    13     -0.058070  1 Ti px                17      0.050694  1 Ti py         
 
 Vector   10  Occ=1.000000D+00  E=-1.487652D-01
              MO Center= -1.1D-04, -1.8D-04,  1.1D-04, r^2= 4.1D+00
   Bfn.  Coefficient  Atom+Function         Bfn.  Coefficient  Atom+Function  
  ----- ------------  ---------------      ----- ------------  ---------------
     5      0.538540  1 Ti s                  6      0.336457  1 Ti s          
     4     -0.286405  1 Ti s                 26     -0.187703  1 Ti dyz        
     3     -0.170352  1 Ti s                 38     -0.157571  1 Ti dyz        
    32     -0.121505  1 Ti dyz                2      0.109903  1 Ti s          
    34      0.109555  1 Ti dxx               25     -0.094566  1 Ti dyy        
 
 Vector   11  Occ=0.000000D+00  E=-1.304161D-01
              MO Center= -4.3D-05, -5.1D-05,  4.8D-05, r^2= 1.1D+00
   Bfn.  Coefficient  Atom+Function         Bfn.  Coefficient  Atom+Function  
  ----- ------------  ---------------      ----- ------------  ---------------
    22      0.454092  1 Ti dxx               26      0.447301  1 Ti dyz        
    27     -0.341609  1 Ti dzz               28      0.287597  1 Ti dxx        
    32      0.283308  1 Ti dyz               23      0.244945  1 Ti dxy        
    34      0.243385  1 Ti dxx               38      0.239845  1 Ti dyz        
    33     -0.216423  1 Ti dzz               39     -0.183151  1 Ti dzz        
 
 Vector   12  Occ=0.000000D+00  E=-1.303885D-01
              MO Center= -5.0D-05, -5.6D-05,  5.3D-05, r^2= 1.1D+00
   Bfn.  Coefficient  Atom+Function         Bfn.  Coefficient  Atom+Function  
  ----- ------------  ---------------      ----- ------------  ---------------
    24      0.793086  1 Ti dxz               30      0.502359  1 Ti dxz        
    23     -0.487836  1 Ti dxy               36      0.425067  1 Ti dxz        
    29     -0.309016  1 Ti dxy               35     -0.261673  1 Ti dxy        
    26      0.157317  1 Ti dyz               42      0.154772  1 Ti dxz        
    25     -0.113335  1 Ti dyy               32      0.099681  1 Ti dyz        
 
 Vector   13  Occ=0.000000D+00  E=-9.927012D-02
              MO Center=  1.7D-05, -1.4D-04, -6.0D-05, r^2= 1.5D+00
   Bfn.  Coefficient  Atom+Function         Bfn.  Coefficient  Atom+Function  
  ----- ------------  ---------------      ----- ------------  ---------------
    26      0.708515  1 Ti dyz               32      0.435533  1 Ti dyz        
    38      0.341802  1 Ti dyz                6      0.319762  1 Ti s          
    23     -0.297018  1 Ti dxy               25      0.266557  1 Ti dyy        
    22     -0.235397  1 Ti dxx               24     -0.195225  1 Ti dxz        
[...]
 
 Vector   60  Occ=0.000000D+00  E= 2.622562D+00
              MO Center= -1.8D-06, -1.1D-06,  1.9D-06, r^2= 1.2D+00
   Bfn.  Coefficient  Atom+Function         Bfn.  Coefficient  Atom+Function  
  ----- ------------  ---------------      ----- ------------  ---------------
    74      2.793206  1 Ti gxyzz             73      2.440818  1 Ti gxyyz      
    77      1.880395  1 Ti gyyyz             69     -1.870290  1 Ti gxxyy      
    70     -1.717447  1 Ti gxxyz             78     -1.505201  1 Ti gyyzz      
    79     -1.324051  1 Ti gyzzz             68     -0.750832  1 Ti gxxxz      
    76      0.583282  1 Ti gyyyy             72     -0.458608  1 Ti gxyyy      
 
 Vector   61  Occ=0.000000D+00  E= 2.623542D+00
              MO Center= -7.7D-07, -1.1D-06,  8.5D-07, r^2= 1.2D+00
   Bfn.  Coefficient  Atom+Function         Bfn.  Coefficient  Atom+Function  
  ----- ------------  ---------------      ----- ------------  ---------------
    70      2.254572  1 Ti gxxyz             79     -1.802593  1 Ti gyzzz      
    78      1.698023  1 Ti gyyzz             67     -1.525094  1 Ti gxxxy      
    69      1.397487  1 Ti gxxyy             72      1.284527  1 Ti gxyyy      
    77      1.106437  1 Ti gyyyz             68     -0.916851  1 Ti gxxxz      
    74      0.800952  1 Ti gxyzz             75      0.699723  1 Ti gxzzz      
 
 Vector   62  Occ=0.000000D+00  E= 2.623544D+00
              MO Center= -7.7D-07, -1.1D-06,  8.4D-07, r^2= 1.2D+00
   Bfn.  Coefficient  Atom+Function         Bfn.  Coefficient  Atom+Function  
  ----- ------------  ---------------      ----- ------------  ---------------
    74      4.505710  1 Ti gxyzz             72     -1.860122  1 Ti gxyyy      
    69      1.696355  1 Ti gxxyy             71     -1.524764  1 Ti gxxzz      
    70     -1.263613  1 Ti gxxyz             78      1.057213  1 Ti gyyzz      
    75      0.813199  1 Ti gxzzz             79      0.657857  1 Ti gyzzz      
    68     -0.590598  1 Ti gxxxz             76     -0.465672  1 Ti gyyyy      
 
 Vector   63  Occ=0.000000D+00  E= 2.899360D+00
              MO Center=  1.1D-05,  1.5D-05, -1.2D-05, r^2= 7.7D-01
   Bfn.  Coefficient  Atom+Function         Bfn.  Coefficient  Atom+Function  
  ----- ------------  ---------------      ----- ------------  ---------------
    61      1.542115  1 Ti fxzz              60     -1.344407  1 Ti fxyz       
    57     -1.245309  1 Ti fxxy              58      1.217802  1 Ti fxxz       
    64      0.772321  1 Ti fyzz              63     -0.690003  1 Ti fyyz       
    51     -0.558326  1 Ti fxzz              56     -0.548268  1 Ti fxxx       
    50      0.486885  1 Ti fxyz              47      0.450991  1 Ti fxxy       
 
 Vector   64  Occ=0.000000D+00  E= 2.899361D+00
              MO Center=  1.1D-05,  1.5D-05, -1.2D-05, r^2= 7.7D-01
   Bfn.  Coefficient  Atom+Function         Bfn.  Coefficient  Atom+Function  
  ----- ------------  ---------------      ----- ------------  ---------------
    60      1.989400  1 Ti fxyz              58      1.616040  1 Ti fxxz       
    61     -0.842767  1 Ti fxzz              59     -0.815665  1 Ti fxyy       
    50     -0.720460  1 Ti fxyz              64      0.703429  1 Ti fyzz       
    57     -0.607049  1 Ti fxxy              48     -0.585515  1 Ti fxxz       
    56      0.552820  1 Ti fxxx              65     -0.478064  1 Ti fzzz       
 
 Vector   65  Occ=0.000000D+00  E= 2.939554D+00
              MO Center=  4.7D-06,  1.5D-05, -2.9D-06, r^2= 7.6D-01
   Bfn.  Coefficient  Atom+Function         Bfn.  Coefficient  Atom+Function  
  ----- ------------  ---------------      ----- ------------  ---------------
    63      1.976260  1 Ti fyyz              60     -1.536619  1 Ti fxyz       
    57     -0.973624  1 Ti fxxy              59     -0.848531  1 Ti fxyy       
    53     -0.735871  1 Ti fyyz              58     -0.651891  1 Ti fxxz       
    50      0.554572  1 Ti fxyz              64      0.544465  1 Ti fyzz       
    65     -0.450763  1 Ti fzzz              56      0.326407  1 Ti fxxx       
 
 Vector   66  Occ=0.000000D+00  E= 2.946194D+00
              MO Center=  8.7D-06,  1.7D-05, -6.0D-06, r^2= 7.6D-01
   Bfn.  Coefficient  Atom+Function         Bfn.  Coefficient  Atom+Function  
  ----- ------------  ---------------      ----- ------------  ---------------
    60      2.000690  1 Ti fxyz              64     -1.465417  1 Ti fyzz       
    57     -1.042580  1 Ti fxxy              62      0.808044  1 Ti fyyy       
    50     -0.720727  1 Ti fxyz              63      0.679063  1 Ti fyyz       
    61      0.566680  1 Ti fxzz              54      0.480330  1 Ti fyzz       
    52     -0.338647  1 Ti fyyy              47      0.327999  1 Ti fxxy       
 
 Vector   67  Occ=0.000000D+00  E= 2.946415D+00
              MO Center=  1.4D-06,  1.2D-05, -1.0D-06, r^2= 7.6D-01
   Bfn.  Coefficient  Atom+Function         Bfn.  Coefficient  Atom+Function  
  ----- ------------  ---------------      ----- ------------  ---------------
    64      1.741464  1 Ti fyzz              60      1.525395  1 Ti fxyz       
    59      1.337427  1 Ti fxyy              58     -0.925139  1 Ti fxxz       
    57     -0.790856  1 Ti fxxy              54     -0.608923  1 Ti fyzz       
    49     -0.547484  1 Ti fxyy              50     -0.549436  1 Ti fxyz       
    56     -0.380888  1 Ti fxxx              63      0.334801  1 Ti fyyz       
 
 Vector   68  Occ=0.000000D+00  E= 2.949088D+00
              MO Center=  6.9D-06,  1.5D-05, -6.2D-06, r^2= 7.6D-01
   Bfn.  Coefficient  Atom+Function         Bfn.  Coefficient  Atom+Function  
  ----- ------------  ---------------      ----- ------------  ---------------
    59      1.306821  1 Ti fxyy              63      1.223749  1 Ti fyyz       
    57      1.140996  1 Ti fxxy              58      1.123987  1 Ti fxxz       
    65     -0.782971  1 Ti fzzz              49     -0.471099  1 Ti fxyy       
    53     -0.440704  1 Ti fyyz              56     -0.414164  1 Ti fxxx       
    47     -0.410403  1 Ti fxxy              48     -0.404840  1 Ti fxxz       
 
 Vector   69  Occ=0.000000D+00  E= 2.949092D+00
              MO Center=  6.8D-06,  1.5D-05, -6.1D-06, r^2= 7.6D-01
   Bfn.  Coefficient  Atom+Function         Bfn.  Coefficient  Atom+Function  
  ----- ------------  ---------------      ----- ------------  ---------------
    61      1.799936  1 Ti fxzz              60      1.565530  1 Ti fxyz       
    59     -1.308116  1 Ti fxyy              57      0.966304  1 Ti fxxy       
    51     -0.648251  1 Ti fxzz              50     -0.562850  1 Ti fxyz       
    63      0.525898  1 Ti fyyz              49      0.469243  1 Ti fxyy       
    62     -0.470299  1 Ti fyyy              64      0.444081  1 Ti fyzz       
 
 Vector   70  Occ=0.000000D+00  E= 4.118815D+00
              MO Center= -2.0D-05, -4.0D-05,  1.8D-05, r^2= 1.2D+00
   Bfn.  Coefficient  Atom+Function         Bfn.  Coefficient  Atom+Function  
  ----- ------------  ---------------      ----- ------------  ---------------
    71      4.006461  1 Ti gxxzz             69      3.936356  1 Ti gxxyy      
    78      3.896750  1 Ti gyyzz             28     -2.250568  1 Ti dxx        
     6     -2.215582  1 Ti s                 33     -2.190746  1 Ti dzz        
    31     -2.093439  1 Ti dyy                4     -2.077644  1 Ti s          
    66      2.025002  1 Ti gxxxx              3      1.977310  1 Ti s          
 
 Vector   71  Occ=0.000000D+00  E= 4.748753D+00
              MO Center= -9.5D-06, -4.3D-05,  9.7D-06, r^2= 1.3D+00
   Bfn.  Coefficient  Atom+Function         Bfn.  Coefficient  Atom+Function  
  ----- ------------  ---------------      ----- ------------  ---------------
    16      3.362741  1 Ti px                18     -3.015250  1 Ti pz         
    17      2.885060  1 Ti py                46     -2.305607  1 Ti fxxx       
    49     -2.303712  1 Ti fxyy              51     -2.302776  1 Ti fxzz       
    48      2.065830  1 Ti fxxz              53      2.068572  1 Ti fyyz       
    55      2.066047  1 Ti fzzz              13      2.047032  1 Ti px         
 
 Vector   72  Occ=0.000000D+00  E= 4.749365D+00
              MO Center= -3.2D-05, -5.9D-05,  2.5D-05, r^2= 1.3D+00
   Bfn.  Coefficient  Atom+Function         Bfn.  Coefficient  Atom+Function  
  ----- ------------  ---------------      ----- ------------  ---------------
    16      3.998513  1 Ti px                18      3.389509  1 Ti pz         
    46     -2.741478  1 Ti fxxx              49     -2.736058  1 Ti fxyy       
    51     -2.741273  1 Ti fxzz              13      2.433789  1 Ti px         
    48     -2.325767  1 Ti fxxz              53     -2.321816  1 Ti fyyz       
    55     -2.322433  1 Ti fzzz              59     -2.146215  1 Ti fxyy       
 
 Vector   73  Occ=0.000000D+00  E= 4.773570D+00
              MO Center= -2.9D-05, -5.3D-05,  2.8D-05, r^2= 1.3D+00
   Bfn.  Coefficient  Atom+Function         Bfn.  Coefficient  Atom+Function  
  ----- ------------  ---------------      ----- ------------  ---------------
    17      4.346355  1 Ti py                47     -2.979593  1 Ti fxxy       
    52     -2.979847  1 Ti fyyy              54     -2.979931  1 Ti fyzz       
    18      2.834294  1 Ti pz                14      2.655564  1 Ti py         
    57     -2.331383  1 Ti fxxy              62     -2.333340  1 Ti fyyy       
    64     -2.334058  1 Ti fyzz              48     -1.943041  1 Ti fxxz       
 
 Vector   74  Occ=0.000000D+00  E= 4.964847D+00
              MO Center=  3.8D-05,  4.0D-05, -4.5D-05, r^2= 7.8D-01
   Bfn.  Coefficient  Atom+Function         Bfn.  Coefficient  Atom+Function  
  ----- ------------  ---------------      ----- ------------  ---------------
    32      5.967615  1 Ti dyz               28      5.928690  1 Ti dxx        
    33     -4.333573  1 Ti dzz               77     -4.116510  1 Ti gyyyz      
    79     -4.123883  1 Ti gyzzz             66     -4.093278  1 Ti gxxxx      
    70     -4.113434  1 Ti gxxyz             78      4.096278  1 Ti gyyzz      
    69     -2.988046  1 Ti gxxyy             80      2.990271  1 Ti gzzzz      
 
 Vector   75  Occ=0.000000D+00  E= 4.964856D+00
              MO Center=  3.8D-05,  4.0D-05, -4.5D-05, r^2= 7.8D-01
   Bfn.  Coefficient  Atom+Function         Bfn.  Coefficient  Atom+Function  
  ----- ------------  ---------------      ----- ------------  ---------------
    30     10.206809  1 Ti dxz               68     -7.046910  1 Ti gxxxz      
    73     -7.046529  1 Ti gxyyz             75     -7.043476  1 Ti gxzzz      
    29     -6.610990  1 Ti dxy               67      4.564197  1 Ti gxxxy      
    72      4.558652  1 Ti gxyyy             74      4.574746  1 Ti gxyzz      
    24     -2.389110  1 Ti dxz               23      1.547411  1 Ti dxy        
 
 Vector   76  Occ=0.000000D+00  E= 4.981510D+00
              MO Center=  1.9D-07,  4.8D-05,  1.2D-05, r^2= 7.8D-01
   Bfn.  Coefficient  Atom+Function         Bfn.  Coefficient  Atom+Function  
  ----- ------------  ---------------      ----- ------------  ---------------
    32      9.382931  1 Ti dyz               70     -6.476374  1 Ti gxxyz      
    77     -6.468727  1 Ti gyyyz             79     -6.474402  1 Ti gyzzz      
    29     -3.880740  1 Ti dxy               31      3.663170  1 Ti dyy        
    28     -3.022958  1 Ti dxx               30     -2.694786  1 Ti dxz        
    67      2.679262  1 Ti gxxxy             72      2.675464  1 Ti gxyyy      
 
 Vector   77  Occ=0.000000D+00  E= 5.001982D+00
              MO Center=  3.5D-05,  6.0D-05, -2.1D-05, r^2= 7.8D-01
   Bfn.  Coefficient  Atom+Function         Bfn.  Coefficient  Atom+Function  
  ----- ------------  ---------------      ----- ------------  ---------------
    30      5.782478  1 Ti dxz               31      5.477711  1 Ti dyy        
    29      4.937080  1 Ti dxy               68     -3.990052  1 Ti gxxxz      
    73     -3.981212  1 Ti gxyyz             75     -3.987676  1 Ti gxzzz      
    71      3.777782  1 Ti gxxzz             76     -3.775967  1 Ti gyyyy      
    33     -3.715169  1 Ti dzz               67     -3.406337  1 Ti gxxxy      
 
 Vector   78  Occ=0.000000D+00  E= 5.002405D+00
              MO Center= -1.2D-05,  2.7D-05,  9.7D-06, r^2= 7.8D-01
   Bfn.  Coefficient  Atom+Function         Bfn.  Coefficient  Atom+Function  
  ----- ------------  ---------------      ----- ------------  ---------------
    29      8.160421  1 Ti dxy               67     -5.630598  1 Ti gxxxy      
    72     -5.624271  1 Ti gxyyy             74     -5.629142  1 Ti gxyzz      
    32      5.080182  1 Ti dyz               33      4.229046  1 Ti dzz        
    70     -3.511916  1 Ti gxxyz             77     -3.504294  1 Ti gyyyz      
    79     -3.499779  1 Ti gyzzz             30      3.154527  1 Ti dxz        
 
 Vector   79  Occ=0.000000D+00  E= 3.235593D+01
              MO Center=  5.9D-07,  1.4D-06, -4.9D-07, r^2= 3.5D+00
   Bfn.  Coefficient  Atom+Function         Bfn.  Coefficient  Atom+Function  
  ----- ------------  ---------------      ----- ------------  ---------------
     4     65.138069  1 Ti s                 28    -30.500777  1 Ti dxx        
    31    -30.500857  1 Ti dyy               33    -30.500811  1 Ti dzz        
    69     23.609177  1 Ti gxxyy             71     23.609183  1 Ti gxxzz      
    78     23.609364  1 Ti gyyzz              3    -15.167851  1 Ti s          
    66     11.804593  1 Ti gxxxx             76     11.804635  1 Ti gyyyy      
 
 Vector   80  Occ=0.000000D+00  E= 3.767196D+01
              MO Center=  2.6D-09,  3.7D-09, -2.8D-09, r^2= 2.0D-01
   Bfn.  Coefficient  Atom+Function         Bfn.  Coefficient  Atom+Function  
  ----- ------------  ---------------      ----- ------------  ---------------
     3     35.013304  1 Ti s                 22    -19.389882  1 Ti dxx        
    25    -19.389836  1 Ti dyy               27    -19.389865  1 Ti dzz        
    69    -11.913203  1 Ti gxxyy             71    -11.913327  1 Ti gxxzz      
    78    -11.913032  1 Ti gyyzz             28     10.205618  1 Ti dxx        
    31     10.205350  1 Ti dyy               33     10.205516  1 Ti dzz        
 

   alpha - beta orbital overlaps 
   ----------------------------- 


   alpha      1      2      3      4      5      6      7      8      9     10
    beta      1      2      3      4      5      6      7      8      9     14
 overlap   1.000  1.000  1.000  1.000  1.000  1.000  1.000  1.000  1.000  0.994


   alpha     11     12     13     14     15     16     17     18     19     20
    beta     15     10     11     12     13     18     17     16     19     24
 overlap   0.994  0.868  0.978  0.977  0.869  0.995  0.999  0.999  0.995  0.993


   alpha     21     22     23     24     25     26     27     28     29     30
    beta     23     21     20     22     28     27     26     25     33     32
 overlap   0.990  0.969  0.971  0.992  0.994  0.996  0.998  0.998  0.998  0.998


   alpha     31     32     33     34     35     36     37     38     39     40
    beta     30     29     31     38     39     42     41     40     43     35
 overlap   0.964  0.965  0.996  0.991  1.000  0.997  0.997  0.892  0.899  0.973


   alpha     41     42     43     44     45     46     47     48     49     50
    beta     34     37     36     44     45     49     50     46     47     48
 overlap   0.974  0.996  0.996  0.997  0.997  0.999  0.999  0.970  0.970  1.000


   alpha     51     52     53     54     55     56     57     58     59     60
    beta     52     51     53     56     57     61     62     60     59     58
 overlap   1.000  1.000  1.000  0.986  0.987  0.932  0.932  0.997  0.997  0.999


   alpha     61     62     63     64     65     66     67     68     69     70
    beta     54     55     69     68     63     64     66     67     65     70
 overlap   0.793  0.793  0.949  0.949  0.963  0.963  1.000  1.000  1.000  1.000


   alpha     71     72     73     74     75     76     77     78     79     80
    beta     72     71     73     75     74     77     78     76     79     80
 overlap   0.972  0.972  1.000  1.000  1.000  0.915  0.915  1.000  1.000  1.000


     --------------------------
     Expectation value of S2:  
     --------------------------
      <S2> =      2.2480 (Exact =     2.0000)
 

 Parallel integral file used      21 records with       0 large values


 Task  times  cpu:      205.0s     wall:      411.6s
 
 
                                NWChem Input Module
                                -------------------
 
 
 Summary of allocated global arrays
-----------------------------------
  No active global arrays



                         GA Statistics for process    0
                         ------------------------------

       create   destroy   get      put      acc     scatter   gather  read&inc
calls: 1369     1369     1.21e+04 9689     1935        0        0       60     
number of processes/call 1.06e+00 1.03e+00 1.39e+00 0.00e+00 0.00e+00
bytes total:             2.27e+08 8.04e+07 9.91e+07 0.00e+00 0.00e+00 4.80e+02
bytes remote:            5.92e+06 1.75e+06 9.08e+06 0.00e+00 0.00e+00 0.00e+00
Max memory consumed for GA by this process: 3328000 bytes
 
MA_summarize_allocated_blocks: starting scan ...
MA_summarize_allocated_blocks: scan completed: 0 heap blocks, 0 stack blocks
MA usage statistics:

	allocation statistics:
					      heap	     stack
					      ----	     -----
	current number of blocks	         0	         0
	maximum number of blocks	        21	        51
	current total bytes		         0	         0
	maximum total bytes		  23284792	  29277432
	maximum total K-bytes		     23285	     29278
	maximum total M-bytes		        24	        30
 
 
                                     CITATION
                                     --------
                Please cite the following reference when publishing
                           results obtained with NWChem:
 
                 M. Valiev, E.J. Bylaska, N. Govind, K. Kowalski,
              T.P. Straatsma, H.J.J. van Dam, D. Wang, J. Nieplocha,
                        E. Apra, T.L. Windus, W.A. de Jong
                 "NWChem: a comprehensive and scalable open-source
                  solution for large scale molecular simulations"
                      Comput. Phys. Commun. 181, 1477 (2010)
                           doi:10.1016/j.cpc.2010.04.018
 
                                      AUTHORS
                                      -------
          E. Apra, E. J. Bylaska, W. A. de Jong, N. Govind, K. Kowalski,
       T. P. Straatsma, M. Valiev, H. J. J. van Dam, D. Wang, T. L. Windus,
        J. Hammond, J. Autschbach, K. Bhaskaran-Nair, J. Brabec, K. Lopata,
    S. A. Fischer, S. Krishnamoorthy, M. Jacquelin, W. Ma, M. Klemm, O. Villa,
      Y. Chen, V. Anisimov, F. Aquino, S. Hirata, M. T. Hackler, V. Konjkov,
            D. Mejia-Rodriguez, T. Risthaus, M. Malagoli, A. Marenich,
   A. Otero-de-la-Roza, J. Mullin, P. Nichols, R. Peverati, J. Pittner, Y. Zhao,
        P.-D. Fan, A. Fonari, M. J. Williamson, R. J. Harrison, J. R. Rehr,
      M. Dupuis, D. Silverstein, D. M. A. Smith, J. Nieplocha, V. Tipparaju,
    M. Krishnan, B. E. Van Kuiken, A. Vazquez-Mayagoitia, L. Jensen, M. Swart,
      Q. Wu, T. Van Voorhis, A. A. Auer, M. Nooijen, L. D. Crosby, E. Brown,
      G. Cisneros, G. I. Fann, H. Fruchtl, J. Garza, K. Hirao, R. A. Kendall,
      J. A. Nichols, K. Tsemekhman, K. Wolinski, J. Anchell, D. E. Bernholdt,
      P. Borowski, T. Clark, D. Clerc, H. Dachsel, M. J. O. Deegan, K. Dyall,
    D. Elwood, E. Glendening, M. Gutowski, A. C. Hess, J. Jaffe, B. G. Johnson,
     J. Ju, R. Kobayashi, R. Kutteh, Z. Lin, R. Littlefield, X. Long, B. Meng,
      T. Nakajima, S. Niu, L. Pollack, M. Rosing, K. Glaesemann, G. Sandrone,
      M. Stave, H. Taylor, G. Thomas, J. H. van Lenthe, A. T. Wong, Z. Zhang.

 Total times  cpu:      205.3s     wall:      412.1s
