  NWChem w/ OpenMP: maximum threads =  1
                                         
                                         
 
 
              Northwest Computational Chemistry Package (NWChem) 6.8
              ------------------------------------------------------
 
 
                    Environmental Molecular Sciences Laboratory
                       Pacific Northwest National Laboratory
                                Richland, WA 99352
 
                              Copyright (c) 1994-2017
                       Pacific Northwest National Laboratory
                            Battelle Memorial Institute
 
             NWChem is an open-source computational chemistry package
                        distributed under the terms of the
                      Educational Community License (ECL) 2.0
             A copy of the license is included with this distribution
                              in the LICENSE.TXT file
 
                                  ACKNOWLEDGMENT
                                  --------------

            This software and its documentation were developed at the
            EMSL at Pacific Northwest National Laboratory, a multiprogram
            national laboratory, operated for the U.S. Department of Energy
            by Battelle under Contract Number DE-AC05-76RL01830. Support
            for this work was provided by the Department of Energy Office
            of Biological and Environmental Research, Office of Basic
            Energy Sciences, and the Office of Advanced Scientific Computing.


           Job information
           ---------------

    hostname        = kohn
    program         = nwchem
    date            = Wed Sep 26 22:24:13 2018

    compiled        = Wed_Sep_26_21:04:37_2018
    source          = /home/kohn/softwares/nwchem/nwchem-6.8
    nwchem branch   = 6.8
    nwchem revision = v6.8-47-gdf6c956
    ga revision     = ga-5.6.3
    use scalapack   = F
    input           = nwchem.nw
    prefix          = V.
    data base       = ./V.db
    status          = startup
    nproc           =        4
    time left       =     -1s



           Memory information
           ------------------

    heap     =   13107198 doubles =    100.0 Mbytes
    stack    =   13107195 doubles =    100.0 Mbytes
    global   =   26214400 doubles =    200.0 Mbytes (distinct from heap & stack)
    total    =   52428793 doubles =    400.0 Mbytes
    verify   = yes
    hardfail = no 


           Directory information
           ---------------------
 
  0 permanent = .
  0 scratch   = .
 
 
 
 
                                NWChem Input Module
                                -------------------
 
 

 Scaling coordinates for geometry "geometry" by  1.889725989
 (inverse scale =  0.529177249)

 
 
                             Geometry "geometry" -> ""
                             -------------------------
 
 Output coordinates in angstroms (scale by  1.889725989 to convert to a.u.)
 
  No.       Tag          Charge          X              Y              Z
 ---- ---------------- ---------- -------------- -------------- --------------
    1 V                   23.0000     0.00000000     0.00000000     0.00000000
 
      Atomic Mass 
      ----------- 
 
      V                 50.944000
 

 Effective nuclear repulsion energy (a.u.)       0.0000000000

            Nuclear Dipole moment (a.u.) 
            ----------------------------
        X                 Y               Z
 ---------------- ---------------- ----------------
     0.0000000000     0.0000000000     0.0000000000
 
 
            XYZ format geometry
            -------------------
     1
 geometry
 V                     0.00000000     0.00000000     0.00000000
 


 Summary of "ao basis" -> "" (cartesian)
 ------------------------------------------------------------------------------
       Tag                 Description            Shells   Functions and Types
 ---------------- ------------------------------  ------  ---------------------
 *                         def2-TZVPP                 on all atoms 


 
                                 NWChem DFT Module
                                 -----------------
 
 
                      Basis "ao basis" -> "ao basis" (cartesian)
                      -----
  V (Vanadium)
  ------------
            Exponent  Coefficients 
       -------------- ---------------------------------------------------------
  1 S  2.32340651E+05  0.000231
  1 S  3.48288412E+04  0.001789
  1 S  7.92654487E+03  0.009299
  1 S  2.24377330E+03  0.037761
  1 S  7.30593229E+02  0.122559
  1 S  2.62322196E+02  0.289635
  1 S  1.01704038E+02  0.410047
  1 S  4.00647846E+01  0.211136
 
  2 S  2.55240150E+02 -0.024458
  2 S  7.88046470E+01 -0.115272
  2 S  1.23405989E+01  0.551747
  2 S  5.17420192E+00  0.545045
 
  3 S  7.65138945E+00 -0.229676
  3 S  1.26397599E+00  0.716838
 
  4 S  5.38617617E-01  1.000000
 
  5 S  9.27192961E-02  1.000000
 
  6 S  3.49980552E-02  1.000000
 
  7 P  1.18423692E+03  0.002445
  7 P  2.80230752E+02  0.019643
  7 P  8.96436271E+01  0.090797
  7 P  3.32424113E+01  0.256508
  7 P  1.31445145E+01  0.408154
  7 P  5.29485341E+00  0.238604
 
  8 P  2.01755869E+01 -0.028241
  8 P  2.76058652E+00  0.555746
  8 P  1.10089009E+00  0.993199
 
  9 P  4.20133107E-01  1.000000
 
 10 P  1.60300000E-01  1.000000
 
 11 P  6.11900000E-02  1.000000
 
 12 D  4.38611349E+01  0.011487
 12 D  1.25160219E+01  0.068247
 12 D  4.33138550E+00  0.218378
 12 D  1.61388558E+00  0.392452
 
 13 D  5.87495740E-01  1.000000
 
 14 D  1.95157230E-01  1.000000
 
 15 D  6.50000000E-02  1.000000
 
 16 F  1.70800000E+00  1.000000
 
 17 F  3.98000000E-01  1.000000
 
 18 G  1.00900000E+00  1.000000
 


 Summary of "ao basis" -> "ao basis" (cartesian)
 ------------------------------------------------------------------------------
       Tag                 Description            Shells   Functions and Types
 ---------------- ------------------------------  ------  ---------------------
 V                         def2-TZVPP               18       80   6s5p4d2f1g




 Summary of "ao basis" -> "ao basis" (cartesian)
 ------------------------------------------------------------------------------
       Tag                 Description            Shells   Functions and Types
 ---------------- ------------------------------  ------  ---------------------
 V                         def2-TZVPP               18       80   6s5p4d2f1g


  Caching 1-el integrals 
 
            General Information
            -------------------
          SCF calculation type: DFT
          Wavefunction type:  spin polarized.
          No. of atoms     :     1
          No. of electrons :    23
           Alpha electrons :    13
            Beta electrons :    10
          Charge           :     0
          Spin multiplicity:     4
          Use of symmetry is: off; symmetry adaption is: off
          Maximum number of iterations: ***
          AO basis - number of functions:    80
                     number of shells:    18
          Convergence on energy requested:  1.00D-06
          Convergence on density requested:  1.00D-05
          Convergence on gradient requested:  5.00D-04
 
              XC Information
              --------------
                  TPSS metaGGA Exchange Functional  1.000          
             TPSS03 metaGGA Correlation Functional  1.000          
 
             Grid Information
             ----------------
          Grid used for XC integration:  medium    
          Radial quadrature: Mura-Knowles        
          Angular quadrature: Lebedev. 
          Tag              B.-S. Rad. Rad. Pts. Rad. Cut. Ang. Pts.
          ---              ---------- --------- --------- ---------
          V                   1.35      112           8.0       590
          Grid pruning is: on 
          Number of quadrature shells:   112
          Spatial weights used:  Erf1
 
          Convergence Information
          -----------------------
          Convergence aids based upon iterative change in 
          total energy or number of iterations. 
          Levelshifting, if invoked, occurs when the 
          HOMO/LUMO gap drops below (HL_TOL):  1.00D-02
          DIIS, if invoked, will attempt to extrapolate 
          using up to (NFOCK): 10 stored Fock matrices.

                    Damping( 0%)  Levelshifting(0.5)       DIIS
                  --------------- ------------------- ---------------
          dE  on:    start            ASAP                start   
          dE off:    2 iters        *** iters           *** iters 

 
      Screening Tolerance Information
      -------------------------------
          Density screening/tol_rho:  1.00D-10
          AO Gaussian exp screening on grid/accAOfunc:  14
          CD Gaussian exp screening on grid/accCDfunc:  20
          XC Gaussian exp screening on grid/accXCfunc:  20
          Schwarz screening/accCoul:  1.00D-08

 
      Superposition of Atomic Density Guess
      -------------------------------------
 
 Sum of atomic energies:        -942.80293191
 
      Non-variational initial energy
      ------------------------------

 Total energy =    -942.077912
 1-e energy   =   -1294.077276
 2-e energy   =     351.999364
 HOMO         =      -0.011172
 LUMO         =      -0.011172
 
   Time after variat. SCF:     14.8
   Time prior to 1st pass:     14.8

 Integral file          = ./V.aoints.0
 Record size in doubles =    65536    No. of integs per rec  =    43688
 Max. records in memory =       43    Max. records in file   =  1478995
 No. of bits per label  =        8    No. of bits per value  =       64


 #quartets = 1.471D+04 #integrals = 8.297D+05 #direct =  0.0% #cached =100.0%


File balance: exchanges=     0  moved=     0  time=   0.0


 Grid_pts file          = ./V.gridpts.0
 Record size in doubles =  12289        No. of grid_pts per rec  =   3070
 Max. records in memory =      7        Max. recs in file   =   7887337


           Memory utilization after 1st SCF pass: 
           Heap Space remaining (MW):       10.20            10196518
          Stack Space remaining (MW):       13.11            13106460

   convergence    iter        energy       DeltaE   RMS-Dens  Diis-err    time
 ---------------- ----- ----------------- --------- --------- ---------  ------
 d= 0,ls=0.0,diis     1   -943.7772393143 -9.44D+02  2.62D-02  5.64D-01    26.1
                                                     1.48D-02  1.98D-01
 d= 0,ls=0.5,diis     2   -942.7391001496  1.04D+00  6.79D-03  4.48D+00    30.7
                                                     3.15D-03  2.66D+00
 d= 0,ls=0.5,diis     3   -943.2661679501 -5.27D-01  5.86D-03  1.84D+00    35.1
                                                     2.12D-03  1.02D+00
 d= 0,ls=0.5,diis     4   -943.5682834541 -3.02D-01  4.43D-03  6.70D-01    41.9
                                                     1.61D-03  3.55D-01
 d= 0,ls=0.5,diis     5   -943.7057415039 -1.37D-01  2.89D-03  2.27D-01    47.9
                                                     1.15D-03  1.17D-01
  Resetting Diis
 d= 0,ls=0.5,diis     6   -943.7526859098 -4.69D-02  2.09D-03  1.12D-01    53.6
                                                     9.95D-04  5.79D-02
 d= 0,ls=0.5,diis     7   -943.7776041384 -2.49D-02  5.44D-03  5.71D-02    59.3
                                                     2.23D-03  2.97D-02
 d= 0,ls=0.5,diis     8   -943.7862252862 -8.62D-03  2.26D-03  1.06D-01    63.9
                                                     1.23D-03  6.96D-02
 d= 0,ls=0.5,diis     9   -943.7998511470 -1.36D-02  1.35D-03  4.29D-02    67.0
                                                     7.74D-04  2.31D-02
 d= 0,ls=0.5,diis    10   -943.8099319019 -1.01D-02  1.02D-03  1.81D-02    76.6
                                                     6.91D-04  8.90D-03
 d= 0,ls=0.5,diis    11   -943.8172761113 -7.34D-03  9.02D-04  1.21D-02    83.0
                                                     6.72D-04  5.83D-03
 d= 0,ls=0.5,diis    12   -943.8238622340 -6.59D-03  9.70D-04  1.33D-02    87.0
                                                     7.77D-04  6.52D-03
 d= 0,ls=0.5,diis    13   -943.8308950914 -7.03D-03  1.07D-03  1.71D-02    90.8
                                                     8.79D-04  8.56D-03
 d= 0,ls=0.5,diis    14   -943.8391412723 -8.25D-03  1.16D-03  1.99D-02    96.5
                                                     9.61D-04  1.00D-02
 d= 0,ls=0.5,diis    15   -943.8485450506 -9.40D-03  1.33D-03  2.09D-02   102.7
                                                     1.12D-03  1.05D-02
 d= 0,ls=0.5,diis    16   -943.8598666999 -1.13D-02  1.31D-03  1.53D-02   112.3
                                                     1.11D-03  7.72D-03
 d= 0,ls=0.5,diis    17   -943.8703032463 -1.04D-02  1.80D-03  1.23D-02   116.4
                                                     1.11D-03  6.18D-03
 d= 0,ls=0.5,diis    18   -943.8810769570 -1.08D-02  1.27D-03  2.97D-03   121.4
                                                     9.42D-04  2.03D-03
 d= 0,ls=0.5,diis    19   -943.8882550208 -7.18D-03  1.02D-03  2.46D-03   127.4
                                                     7.70D-04  1.90D-03
 d= 0,ls=0.5,diis    20   -943.8942191163 -5.96D-03  9.22D-04  3.09D-03   131.7
                                                     6.82D-04  2.07D-03
 d= 0,ls=0.5,diis    21   -943.8992662854 -5.05D-03  1.06D-03  3.14D-03   135.9
                                                     5.94D-04  1.93D-03
 d= 0,ls=0.5,diis    22   -943.9034723292 -4.21D-03  9.33D-04  1.20D-03   142.2
                                                     4.74D-04  1.12D-03
 d= 0,ls=0.5,diis    23   -943.9061510950 -2.68D-03  1.08D-03  1.16D-03   150.0
                                                     4.69D-04  1.27D-03
 d= 0,ls=0.5,diis    24   -943.9071068089 -9.56D-04  7.68D-04  5.20D-03   157.3
                                                     5.02D-04  3.70D-03
 d= 0,ls=0.5,diis    25   -943.9078264130 -7.20D-04  5.39D-04  7.82D-03   161.7
                                                     4.06D-04  5.04D-03
 d= 0,ls=0.5,diis    26   -943.9088285695 -1.00D-03  3.94D-04  7.90D-03   166.6
                                                     3.61D-04  4.95D-03
 d= 0,ls=0.5,diis    27   -943.9099851730 -1.16D-03  3.33D-04  6.98D-03   174.7
                                                     3.02D-04  4.30D-03
 d= 0,ls=0.5,diis    28   -943.9107973840 -8.12D-04  2.72D-04  6.73D-03   181.2
                                                     3.20D-04  4.07D-03
 d= 0,ls=0.5,diis    29   -943.9115848755 -7.87D-04  2.96D-04  6.21D-03   190.7
                                                     2.93D-04  3.70D-03
 d= 0,ls=0.5,diis    30   -943.9119276202 -3.43D-04  2.24D-04  7.13D-03   195.4
                                                     2.51D-04  4.11D-03
 d= 0,ls=0.5,diis    31   -943.9124154311 -4.88D-04  1.65D-04  6.92D-03   200.5
                                                     2.72D-04  3.92D-03
 d= 0,ls=0.5,diis    32   -943.9133025081 -8.87D-04  1.46D-04  5.11D-03   206.6
                                                     2.29D-04  2.88D-03
 d= 0,ls=0.5,diis    33   -943.9140282488 -7.26D-04  1.35D-04  3.88D-03   217.4
                                                     1.95D-04  2.17D-03
 d= 0,ls=0.5,diis    34   -943.9144975216 -4.69D-04  1.28D-04  3.39D-03   225.8
                                                     1.71D-04  1.87D-03
 d= 0,ls=0.5,diis    35   -943.9148528091 -3.55D-04  1.03D-04  3.07D-03   231.4
                                                     1.56D-04  1.68D-03
 d= 0,ls=0.5,diis    36   -943.9152266367 -3.74D-04  1.59D-04  2.53D-03   239.9
                                                     1.56D-04  1.38D-03
 d= 0,ls=0.5,diis    37   -943.9152968781 -7.02D-05  1.15D-04  3.08D-03   247.0
                                                     1.48D-04  1.66D-03
 d= 0,ls=0.5,diis    38   -943.9154623931 -1.66D-04  8.87D-05  3.06D-03   252.5
                                                     1.35D-04  1.63D-03
 d= 0,ls=0.5,diis    39   -943.9156778162 -2.15D-04  8.64D-05  2.77D-03   255.7
                                                     1.35D-04  1.47D-03
 d= 0,ls=0.5,diis    40   -943.9158485351 -1.71D-04  6.85D-05  2.64D-03   260.3
                                                     1.20D-04  1.39D-03
 d= 0,ls=0.5,diis    41   -943.9160647029 -2.16D-04  6.00D-05  2.26D-03   268.2
                                                     1.09D-04  1.18D-03
 d= 0,ls=0.5,diis    42   -943.9162697597 -2.05D-04  5.93D-05  1.89D-03   274.2
                                                     1.04D-04  9.84D-04
 d= 0,ls=0.5,diis    43   -943.9164167359 -1.47D-04  5.39D-05  1.71D-03   284.5
                                                     1.00D-04  8.88D-04
 d= 0,ls=0.5,diis    44   -943.9165546306 -1.38D-04  7.51D-05  1.51D-03   290.7
                                                     1.21D-04  7.83D-04
 d= 0,ls=0.5,diis    45   -943.9166194640 -6.48D-05  4.97D-05  1.58D-03   294.5
                                                     1.04D-04  8.15D-04
 d= 0,ls=0.5,diis    46   -943.9167295672 -1.10D-04  4.59D-05  1.41D-03   299.1
                                                     1.01D-04  7.22D-04
 d= 0,ls=0.5,diis    47   -943.9168272831 -9.77D-05  4.89D-05  1.27D-03   304.8
                                                     9.74D-05  6.49D-04
 d= 0,ls=0.5,diis    48   -943.9168954019 -6.81D-05  3.99D-05  1.23D-03   311.3
                                                     8.89D-05  6.23D-04
 d= 0,ls=0.5,diis    49   -943.9169738579 -7.85D-05  3.77D-05  1.11D-03   319.4
                                                     7.57D-05  5.61D-04
 d= 0,ls=0.5,diis    50   -943.9170559971 -8.21D-05  3.55D-05  9.59D-04   324.4
                                                     6.88D-05  4.83D-04
 d= 0,ls=0.5,diis    51   -943.9171221997 -6.62D-05  3.25D-05  8.50D-04   331.9
                                                     7.04D-05  4.29D-04
 d= 0,ls=0.5,diis    52   -943.9171862717 -6.41D-05  4.63D-05  7.39D-04   339.8
                                                     9.78D-05  3.72D-04
 d= 0,ls=0.5,diis    53   -943.9172278047 -4.15D-05  2.93D-05  7.23D-04   343.8
                                                     7.38D-05  3.62D-04
 d= 0,ls=0.5,diis    54   -943.9172820389 -5.42D-05  3.00D-05  6.27D-04   352.2
                                                     7.46D-05  3.14D-04
 d= 0,ls=0.5,diis    55   -943.9173224272 -4.04D-05  2.54D-05  5.77D-04   360.0
                                                     6.74D-05  2.88D-04
 d= 0,ls=0.5,diis    56   -943.9173653739 -4.29D-05  2.34D-05  5.03D-04   364.3
                                                     6.27D-05  2.51D-04
 d= 0,ls=0.5,diis    57   -943.9174034961 -3.81D-05  2.67D-05  4.41D-04   368.4
                                                     6.90D-05  2.19D-04
 d= 0,ls=0.5,diis    58   -943.9174308038 -2.73D-05  2.36D-05  4.15D-04   373.5
                                                     6.18D-05  2.05D-04
 d= 0,ls=0.5,diis    59   -943.9174563861 -2.56D-05  1.95D-05  3.85D-04   380.2
                                                     5.49D-05  1.89D-04
 d= 0,ls=0.5,diis    60   -943.9174843532 -2.80D-05  2.59D-05  3.37D-04   388.9
                                                     7.31D-05  1.65D-04
 d= 0,ls=0.5,diis    61   -943.9175063648 -2.20D-05  1.78D-05  3.11D-04   393.1
                                                     5.39D-05  1.51D-04
 d= 0,ls=0.5,diis    62   -943.9175278853 -2.15D-05  1.84D-05  2.79D-04   398.1
                                                     5.51D-05  1.35D-04
 d= 0,ls=0.5,diis    63   -943.9175453111 -1.74D-05  1.57D-05  2.58D-04   410.2
                                                     5.46D-05  1.24D-04
 d= 0,ls=0.5,diis    64   -943.9175663264 -2.10D-05  1.30D-05  2.17D-04   414.4
                                                     4.62D-05  1.04D-04
 d= 0,ls=0.5,diis    65   -943.9175841467 -1.78D-05  1.34D-05  1.85D-04   419.5
                                                     5.03D-05  8.89D-05
 d= 0,ls=0.5,diis    66   -943.9175998644 -1.57D-05  1.20D-05  1.59D-04   422.7
                                                     4.84D-05  7.61D-05
 d= 0,ls=0.5,diis    67   -943.9176132699 -1.34D-05  9.95D-06  1.38D-04   425.4
                                                     4.30D-05  6.62D-05
 d= 0,ls=0.5,diis    68   -943.9176264041 -1.31D-05  9.07D-06  1.15D-04   431.4
                                                     3.99D-05  5.53D-05
 d= 0,ls=0.5,diis    69   -943.9176377294 -1.13D-05  1.13D-05  9.60D-05   438.6
                                                     3.95D-05  4.64D-05
 d= 0,ls=0.5,diis    70   -943.9176450694 -7.34D-06  1.08D-05  9.08D-05   448.6
                                                     3.82D-05  4.38D-05
 d= 0,ls=0.5,diis    71   -943.9176516847 -6.62D-06  9.86D-06  8.52D-05   453.5
                                                     3.69D-05  4.09D-05
 d= 0,ls=0.5,diis    72   -943.9176581212 -6.44D-06  1.18D-05  7.82D-05   458.3
                                                     3.78D-05  3.75D-05
 d= 0,ls=0.5,diis    73   -943.9176632363 -5.12D-06  1.10D-05  7.55D-05   464.9
                                                     3.58D-05  3.61D-05
 d= 0,ls=0.5,diis    74   -943.9176680193 -4.78D-06  8.65D-06  7.23D-05   473.0
                                                     3.20D-05  3.44D-05
 d= 0,ls=0.5,diis    75   -943.9176733363 -5.32D-06  1.04D-05  6.51D-05   480.4
                                                     3.27D-05  3.09D-05
 d= 0,ls=0.5,diis    76   -943.9176772311 -3.89D-06  9.21D-06  6.30D-05   487.3
                                                     3.17D-05  2.98D-05
 d= 0,ls=0.5,diis    77   -943.9176813734 -4.14D-06  7.94D-06  5.86D-05   491.9
                                                     2.97D-05  2.76D-05
 d= 0,ls=0.5,diis    78   -943.9176855890 -4.22D-06  1.61D-05  5.28D-05   500.5
                                                     4.01D-05  2.49D-05
 d= 0,ls=0.5,diis    79   -943.9176878331 -2.24D-06  1.21D-05  5.55D-05   506.0
                                                     3.67D-05  2.60D-05
 d= 0,ls=0.5,diis    80   -943.9176909917 -3.16D-06  9.31D-06  5.33D-05   512.5
                                                     3.20D-05  2.48D-05
 d= 0,ls=0.5,diis    81   -943.9176947438 -3.75D-06  8.45D-06  4.77D-05   516.1
                                                     2.99D-05  2.22D-05
 d= 0,ls=0.5,diis    82   -943.9176982953 -3.55D-06  8.26D-06  4.25D-05   521.6
                                                     2.94D-05  1.97D-05
 d= 0,ls=0.5,diis    83   -943.9177015279 -3.23D-06  7.85D-06  3.79D-05   526.9
                                                     2.67D-05  1.76D-05
 d= 0,ls=0.5,diis    84   -943.9177057162 -4.19D-06  6.49D-06  2.86D-05   534.5
                                                     2.42D-05  1.34D-05
 d= 0,ls=0.5,diis    85   -943.9177089741 -3.26D-06  6.01D-06  2.26D-05   545.1
                                                     2.31D-05  1.07D-05
 d= 0,ls=0.5,diis    86   -943.9177117924 -2.82D-06  5.90D-06  1.75D-05   549.9
                                                     2.07D-05  8.41D-06
 d= 0,ls=0.5,diis    87   -943.9177134008 -1.61D-06  6.81D-06  1.66D-05   553.7
                                                     2.31D-05  7.97D-06
 d= 0,ls=0.5,diis    88   -943.9177154327 -2.03D-06  6.54D-06  1.32D-05   558.4
                                                     2.20D-05  6.50D-06
 d= 0,ls=0.5,diis    89   -943.9177168576 -1.42D-06  6.45D-06  1.22D-05   563.7
                                                     2.06D-05  6.06D-06
 d= 0,ls=0.5,diis    90   -943.9177181162 -1.26D-06  6.28D-06  1.14D-05   569.5
                                                     1.90D-05  5.68D-06
 d= 0,ls=0.5,diis    91   -943.9177192888 -1.17D-06  7.97D-06  1.06D-05   574.6
                                                     2.16D-05  5.27D-06
 d= 0,ls=0.5,diis    92   -943.9177202772 -9.88D-07  7.33D-06  1.04D-05   578.3
                                                     1.98D-05  5.23D-06
 d= 0,ls=0.5,diis    93   -943.9177212846 -1.01D-06  6.38D-06  9.87D-06   582.4
                                                     1.74D-05  5.00D-06
 d= 0,ls=0.5,diis    94   -943.9177224050 -1.12D-06  8.47D-06  8.70D-06   588.8
                                                     2.00D-05  4.40D-06
 d= 0,ls=0.5,diis    95   -943.9177231264 -7.21D-07  8.40D-06  9.11D-06   598.6
                                                     1.98D-05  4.63D-06
 d= 0,ls=0.5,diis    96   -943.9177239513 -8.25D-07  7.48D-06  8.96D-06   606.7
                                                     1.78D-05  4.61D-06
 d= 0,ls=0.5,diis    97   -943.9177249140 -9.63D-07  9.61D-06  8.13D-06   612.3
                                                     2.07D-05  4.19D-06
 d= 0,ls=0.5,diis    98   -943.9177256044 -6.90D-07  1.56D-05  8.45D-06   617.3
                                                     2.91D-05  4.46D-06
 d= 0,ls=0.5,diis    99   -943.9177256029  1.51D-09  1.18D-05  1.17D-05   628.8
                                                     2.35D-05  6.20D-06
 d= 0,ls=0.5,diis   100   -943.9177262604 -6.58D-07  1.64D-05  1.21D-05   635.2
                                                     2.41D-05  6.30D-06
 d= 0,ls=0.5,diis   101   -943.9177287069 -2.45D-06  1.52D-05  5.11D-06   640.8
                                                     2.47D-05  2.62D-06
 d= 0,ls=0.5,diis   102   -943.9177301423 -1.44D-06  9.30D-06  1.71D-06   648.0
                                                     1.56D-05  9.20D-07
 d= 0,ls=0.5,diis   103   -943.9177306034 -4.61D-07  6.50D-06  2.03D-06   655.9
                                                     1.45D-05  1.18D-06
 d= 0,ls=0.5,diis   104   -943.9177311415 -5.38D-07  6.17D-06  1.85D-06   662.3
                                                     1.05D-05  1.14D-06
 d= 0,ls=0.5,diis   105   -943.9177317999 -6.58D-07  4.49D-06  8.55D-07   667.9
                                                     9.24D-06  5.77D-07


         Total DFT energy =     -943.917732256541
      One electron energy =    -1295.397043259504
           Coulomb energy =      396.739473692774
          Exchange energy =      -44.324803146436
       Correlation energy =       -0.935359543375
 Nuclear repulsion energy =        0.000000000000

 Numeric. integr. density =       23.000000010682

     Total iterative time =    654.9s


 
                    DFT Final Alpha Molecular Orbital Analysis
                    ------------------------------------------
 
 Vector    1  Occ=1.000000D+00  E=-1.961322D+02
              MO Center=  1.0D-11,  1.2D-11, -1.4D-11, r^2= 1.7D-03
   Bfn.  Coefficient  Atom+Function         Bfn.  Coefficient  Atom+Function  
  ----- ------------  ---------------      ----- ------------  ---------------
     1      0.997476  1 V  s          
 
 Vector    2  Occ=1.000000D+00  E=-2.190647D+01
              MO Center=  1.6D-08,  3.9D-08, -2.2D-08, r^2= 3.2D-02
   Bfn.  Coefficient  Atom+Function         Bfn.  Coefficient  Atom+Function  
  ----- ------------  ---------------      ----- ------------  ---------------
     2      1.039357  1 V  s                  1     -0.306413  1 V  s          
     4     -0.089828  1 V  s                  3      0.060538  1 V  s          
 
 Vector    3  Occ=1.000000D+00  E=-1.842522D+01
              MO Center=  8.0D-10,  2.8D-09,  1.9D-08, r^2= 2.6D-02
   Bfn.  Coefficient  Atom+Function         Bfn.  Coefficient  Atom+Function  
  ----- ------------  ---------------      ----- ------------  ---------------
     9      0.988504  1 V  pz                12      0.035255  1 V  pz         
 
 Vector    4  Occ=1.000000D+00  E=-1.842359D+01
              MO Center=  7.9D-10, -3.3D-08, -1.4D-09, r^2= 2.6D-02
   Bfn.  Coefficient  Atom+Function         Bfn.  Coefficient  Atom+Function  
  ----- ------------  ---------------      ----- ------------  ---------------
     8      0.988573  1 V  py                11      0.035040  1 V  py         
 
 Vector    5  Occ=1.000000D+00  E=-1.842063D+01
              MO Center= -1.4D-08,  2.9D-09, -1.4D-09, r^2= 2.6D-02
   Bfn.  Coefficient  Atom+Function         Bfn.  Coefficient  Atom+Function  
  ----- ------------  ---------------      ----- ------------  ---------------
     7      0.988482  1 V  px                10      0.035328  1 V  px         
 
 Vector    6  Occ=1.000000D+00  E=-2.548281D+00
              MO Center=  2.3D-07,  7.7D-07, -5.8D-07, r^2= 3.0D-01
   Bfn.  Coefficient  Atom+Function         Bfn.  Coefficient  Atom+Function  
  ----- ------------  ---------------      ----- ------------  ---------------
     3      0.573518  1 V  s                  2     -0.453994  1 V  s          
     4      0.421953  1 V  s                  1      0.113777  1 V  s          
    27      0.045179  1 V  dzz               22      0.044153  1 V  dxx        
     5     -0.042869  1 V  s                 25      0.040928  1 V  dyy        
 
 Vector    7  Occ=1.000000D+00  E=-1.610452D+00
              MO Center=  5.3D-08,  2.4D-07,  3.0D-07, r^2= 3.5D-01
   Bfn.  Coefficient  Atom+Function         Bfn.  Coefficient  Atom+Function  
  ----- ------------  ---------------      ----- ------------  ---------------
    12      0.870780  1 V  pz                 9     -0.367500  1 V  pz         
    15      0.273395  1 V  pz         
 
 Vector    8  Occ=1.000000D+00  E=-1.602529D+00
              MO Center= -4.4D-07,  2.6D-07, -2.3D-07, r^2= 3.4D-01
   Bfn.  Coefficient  Atom+Function         Bfn.  Coefficient  Atom+Function  
  ----- ------------  ---------------      ----- ------------  ---------------
    10      0.874597  1 V  px                 7     -0.368508  1 V  px         
    13      0.269253  1 V  px         
 
 Vector    9  Occ=1.000000D+00  E=-1.600950D+00
              MO Center=  6.4D-08, -6.6D-07, -2.4D-07, r^2= 3.5D-01
   Bfn.  Coefficient  Atom+Function         Bfn.  Coefficient  Atom+Function  
  ----- ------------  ---------------      ----- ------------  ---------------
    11      0.868515  1 V  py                 8     -0.366675  1 V  py         
    14      0.275527  1 V  py         
 
 Vector   10  Occ=1.000000D+00  E=-1.981458D-01
              MO Center= -2.4D-07,  5.8D-07, -5.4D-08, r^2= 8.2D-01
   Bfn.  Coefficient  Atom+Function         Bfn.  Coefficient  Atom+Function  
  ----- ------------  ---------------      ----- ------------  ---------------
    26      0.987283  1 V  dyz               32      0.625374  1 V  dyz        
    38      0.505701  1 V  dyz               44      0.112588  1 V  dyz        
    70      0.037467  1 V  gxxyz             79      0.028529  1 V  gyzzz      
    77      0.027319  1 V  gyyyz      
 
 Vector   11  Occ=1.000000D+00  E=-1.953035D-01
              MO Center= -2.8D-06, -1.3D-07, -1.4D-07, r^2= 7.8D-01
   Bfn.  Coefficient  Atom+Function         Bfn.  Coefficient  Atom+Function  
  ----- ------------  ---------------      ----- ------------  ---------------
    24      1.005754  1 V  dxz               30      0.627983  1 V  dxz        
    36      0.479825  1 V  dxz               42      0.104392  1 V  dxz        
    73      0.045770  1 V  gxyyz             75      0.033699  1 V  gxzzz      
 
 Vector   12  Occ=1.000000D+00  E=-1.886383D-01
              MO Center= -3.2D-06,  5.3D-07, -1.9D-07, r^2= 8.1D-01
   Bfn.  Coefficient  Atom+Function         Bfn.  Coefficient  Atom+Function  
  ----- ------------  ---------------      ----- ------------  ---------------
    23      0.995181  1 V  dxy               29      0.623178  1 V  dxy        
    35      0.497022  1 V  dxy               41      0.113751  1 V  dxy        
    74      0.051704  1 V  gxyzz             72      0.031040  1 V  gxyyy      
 
 Vector   13  Occ=1.000000D+00  E=-1.694424D-01
              MO Center= -1.8D-05,  2.2D-05,  4.9D-06, r^2= 3.2D+00
   Bfn.  Coefficient  Atom+Function         Bfn.  Coefficient  Atom+Function  
  ----- ------------  ---------------      ----- ------------  ---------------
     5      0.511686  1 V  s                  6      0.273049  1 V  s          
     4     -0.241148  1 V  s                 25      0.213785  1 V  dyy        
    37      0.204991  1 V  dyy               22     -0.189022  1 V  dxx        
     3     -0.186310  1 V  s                 31      0.169829  1 V  dyy        
     2      0.102930  1 V  s                 43      0.082448  1 V  dyy        
 
 Vector   14  Occ=0.000000D+00  E=-1.493420D-01
              MO Center= -1.1D-06, -4.5D-07, -1.5D-06, r^2= 1.1D+00
   Bfn.  Coefficient  Atom+Function         Bfn.  Coefficient  Atom+Function  
  ----- ------------  ---------------      ----- ------------  ---------------
    27      0.502528  1 V  dzz               25     -0.429630  1 V  dyy        
    33      0.307335  1 V  dzz               39      0.281664  1 V  dzz        
    31     -0.257706  1 V  dyy               37     -0.214165  1 V  dyy        
     5      0.137441  1 V  s                  6      0.107095  1 V  s          
    45      0.094148  1 V  dzz               22     -0.085566  1 V  dxx        
 
 Vector   15  Occ=0.000000D+00  E=-1.351640D-01
              MO Center= -9.0D-06,  1.7D-07, -6.1D-07, r^2= 1.3D+00
   Bfn.  Coefficient  Atom+Function         Bfn.  Coefficient  Atom+Function  
  ----- ------------  ---------------      ----- ------------  ---------------
    22      0.531471  1 V  dxx               28      0.324427  1 V  dxx        
    25     -0.291371  1 V  dyy               34      0.274767  1 V  dxx        
    27     -0.256491  1 V  dzz                6      0.186849  1 V  s          
     5      0.185744  1 V  s                 31     -0.174717  1 V  dyy        
    33     -0.148075  1 V  dzz               37     -0.134301  1 V  dyy        
 
 Vector   16  Occ=0.000000D+00  E=-4.929414D-02
              MO Center= -6.1D-06, -3.0D-05, -2.1D-06, r^2= 5.2D+00
   Bfn.  Coefficient  Atom+Function         Bfn.  Coefficient  Atom+Function  
  ----- ------------  ---------------      ----- ------------  ---------------
    20      0.908209  1 V  py                11     -0.229613  1 V  py         
    17      0.087405  1 V  py                 8      0.081055  1 V  py         
    14     -0.065569  1 V  py                64      0.062034  1 V  fyzz       
    62      0.055889  1 V  fyyy              57      0.044330  1 V  fxxy       
 
 Vector   17  Occ=0.000000D+00  E=-4.243104D-02
              MO Center= -6.9D-06, -3.2D-06, -4.6D-06, r^2= 5.4D+00
   Bfn.  Coefficient  Atom+Function         Bfn.  Coefficient  Atom+Function  
  ----- ------------  ---------------      ----- ------------  ---------------
    21      0.943790  1 V  pz                12     -0.220538  1 V  pz         
    63      0.085948  1 V  fyyz               9      0.077858  1 V  pz         
    58      0.060462  1 V  fxxz              15     -0.055268  1 V  pz         
    65      0.052717  1 V  fzzz              18      0.030562  1 V  pz         
 
 Vector   18  Occ=0.000000D+00  E=-3.041634D-02
              MO Center=  2.6D-05, -4.2D-06, -2.7D-06, r^2= 5.5D+00
   Bfn.  Coefficient  Atom+Function         Bfn.  Coefficient  Atom+Function  
  ----- ------------  ---------------      ----- ------------  ---------------
    19      0.978559  1 V  px                10     -0.212575  1 V  px         
    59      0.102175  1 V  fxyy              61      0.094380  1 V  fxzz       
     7      0.075385  1 V  px                56      0.056502  1 V  fxxx       
    13     -0.048522  1 V  px                16     -0.031869  1 V  px         
 
 Vector   19  Occ=0.000000D+00  E= 2.522487D-02
              MO Center= -7.2D-06, -4.7D-06, -2.8D-06, r^2= 1.7D+01
   Bfn.  Coefficient  Atom+Function         Bfn.  Coefficient  Atom+Function  
  ----- ------------  ---------------      ----- ------------  ---------------
     6      7.399989  1 V  s                 40     -2.053640  1 V  dxx        
    43     -2.030400  1 V  dyy               45     -2.025128  1 V  dzz        
     5     -1.371388  1 V  s                 37     -0.751714  1 V  dyy        
    39     -0.752863  1 V  dzz               34     -0.740837  1 V  dxx        
    28     -0.313362  1 V  dxx                4     -0.310837  1 V  s          
 
 Vector   20  Occ=0.000000D+00  E= 1.006536D-01
              MO Center= -6.5D-08, -3.8D-06,  1.4D-06, r^2= 7.8D+00
   Bfn.  Coefficient  Atom+Function         Bfn.  Coefficient  Atom+Function  
  ----- ------------  ---------------      ----- ------------  ---------------
    44      1.844913  1 V  dyz               26     -0.362428  1 V  dyz        
    38     -0.296553  1 V  dyz               70     -0.115279  1 V  gxxyz      
    79     -0.112902  1 V  gyzzz             77     -0.111348  1 V  gyyyz      
 
 Vector   21  Occ=0.000000D+00  E= 1.053537D-01
              MO Center=  1.0D-05,  5.0D-09,  2.1D-06, r^2= 7.9D+00
   Bfn.  Coefficient  Atom+Function         Bfn.  Coefficient  Atom+Function  
  ----- ------------  ---------------      ----- ------------  ---------------
    42      1.856858  1 V  dxz               24     -0.348024  1 V  dxz        
    36     -0.311592  1 V  dxz               73     -0.119501  1 V  gxyyz      
    75     -0.118836  1 V  gxzzz             68     -0.117653  1 V  gxxxz      
    30      0.044594  1 V  dxz        
 
 Vector   22  Occ=0.000000D+00  E= 1.055774D-01
              MO Center=  9.1D-06, -2.1D-06, -4.8D-09, r^2= 7.8D+00
   Bfn.  Coefficient  Atom+Function         Bfn.  Coefficient  Atom+Function  
  ----- ------------  ---------------      ----- ------------  ---------------
    41      1.852940  1 V  dxy               23     -0.358767  1 V  dxy        
    35     -0.311132  1 V  dxy               74     -0.120681  1 V  gxyzz      
    67     -0.116106  1 V  gxxxy             72     -0.115871  1 V  gxyyy      
    29      0.031698  1 V  dxy        
 
 Vector   23  Occ=0.000000D+00  E= 1.063541D-01
              MO Center= -4.0D-08, -3.5D-06,  7.5D-07, r^2= 7.8D+00
   Bfn.  Coefficient  Atom+Function         Bfn.  Coefficient  Atom+Function  
  ----- ------------  ---------------      ----- ------------  ---------------
    45     -0.943411  1 V  dzz               43      0.917001  1 V  dyy        
    25     -0.198328  1 V  dyy               37     -0.194785  1 V  dyy        
    27      0.187270  1 V  dzz               39      0.161155  1 V  dzz        
     6      0.088451  1 V  s                 40     -0.068143  1 V  dxx        
    71      0.068308  1 V  gxxzz             80      0.060532  1 V  gzzzz      
 
 Vector   24  Occ=0.000000D+00  E= 1.133950D-01
              MO Center=  5.8D-06, -1.5D-06,  2.9D-08, r^2= 7.9D+00
   Bfn.  Coefficient  Atom+Function         Bfn.  Coefficient  Atom+Function  
  ----- ------------  ---------------      ----- ------------  ---------------
    40      1.008215  1 V  dxx               45     -0.649927  1 V  dzz        
    43     -0.580984  1 V  dyy               34     -0.246470  1 V  dxx        
     6      0.217311  1 V  s                 22     -0.216692  1 V  dxx        
    27      0.112409  1 V  dzz               25      0.102527  1 V  dyy        
    39      0.089892  1 V  dzz               78      0.080097  1 V  gyyzz      
 
 Vector   25  Occ=0.000000D+00  E= 2.139255D-01
              MO Center= -7.8D-06, -5.7D-05, -1.6D-05, r^2= 1.4D+01
   Bfn.  Coefficient  Atom+Function         Bfn.  Coefficient  Atom+Function  
  ----- ------------  ---------------      ----- ------------  ---------------
     6     10.544409  1 V  s                  5      4.592086  1 V  s          
    40     -4.307863  1 V  dxx               43     -4.302189  1 V  dyy        
    45     -4.286385  1 V  dzz               34     -2.289159  1 V  dxx        
    37     -2.273926  1 V  dyy               39     -2.282138  1 V  dzz        
     4     -1.809618  1 V  s                 31     -0.953180  1 V  dyy        
 
 Vector   26  Occ=0.000000D+00  E= 2.333263D-01
              MO Center= -3.1D-06,  7.0D-05, -9.8D-07, r^2= 6.7D+00
   Bfn.  Coefficient  Atom+Function         Bfn.  Coefficient  Atom+Function  
  ----- ------------  ---------------      ----- ------------  ---------------
    17      2.844082  1 V  py                20     -1.633734  1 V  py         
    57     -0.593217  1 V  fxxy              62     -0.582163  1 V  fyyy       
    64     -0.569067  1 V  fyzz              11     -0.370159  1 V  py         
    14     -0.196387  1 V  py                 8      0.104733  1 V  py         
    54     -0.068788  1 V  fyzz              47     -0.068405  1 V  fxxy       
 
 Vector   27  Occ=0.000000D+00  E= 2.387355D-01
              MO Center= -4.3D-06,  2.5D-06,  1.8D-05, r^2= 6.6D+00
   Bfn.  Coefficient  Atom+Function         Bfn.  Coefficient  Atom+Function  
  ----- ------------  ---------------      ----- ------------  ---------------
    18      2.865623  1 V  pz                21     -1.617141  1 V  pz         
    65     -0.607334  1 V  fzzz              58     -0.591213  1 V  fxxz       
    63     -0.556448  1 V  fyyz              12     -0.374233  1 V  pz         
    15     -0.192542  1 V  pz                 9      0.105429  1 V  pz         
    48     -0.069959  1 V  fxxz              53     -0.069704  1 V  fyyz       
 
 Vector   28  Occ=0.000000D+00  E= 2.492586D-01
              MO Center=  8.7D-06,  1.8D-06, -1.1D-06, r^2= 6.5D+00
   Bfn.  Coefficient  Atom+Function         Bfn.  Coefficient  Atom+Function  
  ----- ------------  ---------------      ----- ------------  ---------------
    16      2.878545  1 V  px                19     -1.599802  1 V  px         
    56     -0.626853  1 V  fxxx              61     -0.566061  1 V  fxzz       
    59     -0.556190  1 V  fxyy              10     -0.377474  1 V  px         
    13     -0.192161  1 V  px                 7      0.106187  1 V  px         
    51     -0.070932  1 V  fxzz              49     -0.070325  1 V  fxyy       
 
 Vector   29  Occ=0.000000D+00  E= 5.487663D-01
              MO Center= -6.6D-07,  1.8D-06,  1.4D-06, r^2= 4.0D+00
   Bfn.  Coefficient  Atom+Function         Bfn.  Coefficient  Atom+Function  
  ----- ------------  ---------------      ----- ------------  ---------------
    38      2.619684  1 V  dyz               32     -1.662811  1 V  dyz        
    44     -1.340388  1 V  dyz               77      0.576979  1 V  gyyyz      
    79      0.572389  1 V  gyzzz             70      0.569296  1 V  gxxyz      
    26     -0.526086  1 V  dyz        
 
 Vector   30  Occ=0.000000D+00  E= 5.575183D-01
              MO Center=  1.6D-06,  2.0D-06, -2.9D-07, r^2= 4.0D+00
   Bfn.  Coefficient  Atom+Function         Bfn.  Coefficient  Atom+Function  
  ----- ------------  ---------------      ----- ------------  ---------------
    35      2.623025  1 V  dxy               29     -1.670879  1 V  dxy        
    41     -1.330418  1 V  dxy               72      0.583944  1 V  gxyyy      
    74      0.580006  1 V  gxyzz             67      0.576518  1 V  gxxxy      
    23     -0.521238  1 V  dxy        
 
 Vector   31  Occ=0.000000D+00  E= 5.592027D-01
              MO Center=  2.0D-06, -8.9D-07,  1.5D-06, r^2= 4.0D+00
   Bfn.  Coefficient  Atom+Function         Bfn.  Coefficient  Atom+Function  
  ----- ------------  ---------------      ----- ------------  ---------------
    36      2.625495  1 V  dxz               30     -1.664126  1 V  dxz        
    42     -1.325714  1 V  dxz               73      0.586521  1 V  gxyyz      
    68      0.578897  1 V  gxxxz             75      0.581697  1 V  gxzzz      
    24     -0.514688  1 V  dxz        
 
 Vector   32  Occ=0.000000D+00  E= 5.684132D-01
              MO Center= -6.2D-07,  3.0D-06,  8.2D-07, r^2= 3.9D+00
   Bfn.  Coefficient  Atom+Function         Bfn.  Coefficient  Atom+Function  
  ----- ------------  ---------------      ----- ------------  ---------------
    37      1.472174  1 V  dyy               39     -1.113394  1 V  dzz        
    31     -0.914324  1 V  dyy               33      0.784996  1 V  dzz        
    43     -0.674214  1 V  dyy               45      0.622471  1 V  dzz        
    71     -0.331605  1 V  gxxzz             76      0.318275  1 V  gyyyy      
    25     -0.285619  1 V  dyy               80     -0.269234  1 V  gzzzz      
 
 Vector   33  Occ=0.000000D+00  E= 5.855222D-01
              MO Center=  1.3D-06, -2.5D-07,  3.5D-07, r^2= 3.9D+00
   Bfn.  Coefficient  Atom+Function         Bfn.  Coefficient  Atom+Function  
  ----- ------------  ---------------      ----- ------------  ---------------
    34      1.467464  1 V  dxx               39     -1.010607  1 V  dzz        
    28     -0.987990  1 V  dxx               40     -0.764763  1 V  dxx        
    33      0.649703  1 V  dzz               37     -0.543948  1 V  dyy        
    45      0.455135  1 V  dzz               78     -0.347906  1 V  gyyzz      
    66      0.344726  1 V  gxxxx             31      0.334573  1 V  dyy        
 
 Vector   34  Occ=0.000000D+00  E= 6.896072D-01
              MO Center= -1.4D-06, -2.1D-06, -1.7D-06, r^2= 1.2D+01
   Bfn.  Coefficient  Atom+Function         Bfn.  Coefficient  Atom+Function  
  ----- ------------  ---------------      ----- ------------  ---------------
     5     27.240937  1 V  s                  6     11.532376  1 V  s          
    34     -9.219757  1 V  dxx               37     -9.208761  1 V  dyy        
    39     -9.220330  1 V  dzz               40     -6.090534  1 V  dxx        
    43     -6.098435  1 V  dyy               45     -6.092593  1 V  dzz        
     4     -5.513013  1 V  s                 31     -3.894497  1 V  dyy        
 
 Vector   35  Occ=0.000000D+00  E= 1.012157D+00
              MO Center=  1.5D-07, -2.3D-07, -6.5D-07, r^2= 3.6D+00
   Bfn.  Coefficient  Atom+Function         Bfn.  Coefficient  Atom+Function  
  ----- ------------  ---------------      ----- ------------  ---------------
    17      4.118531  1 V  py                64     -2.440212  1 V  fyzz       
    57     -2.157090  1 V  fxxy              62     -2.114463  1 V  fyyy       
    20     -1.069457  1 V  py                11      0.435432  1 V  py         
    14     -0.378431  1 V  py                54     -0.213284  1 V  fyzz       
    52     -0.205083  1 V  fyyy              47     -0.202461  1 V  fxxy       
 
 Vector   36  Occ=0.000000D+00  E= 1.013362D+00
              MO Center=  9.2D-08, -1.0D-06,  6.8D-08, r^2= 3.5D+00
   Bfn.  Coefficient  Atom+Function         Bfn.  Coefficient  Atom+Function  
  ----- ------------  ---------------      ----- ------------  ---------------
    18      4.059991  1 V  pz                63     -2.584308  1 V  fyyz       
    58     -2.221466  1 V  fxxz              65     -1.993219  1 V  fzzz       
    21     -1.052852  1 V  pz                12      0.430467  1 V  pz         
    15     -0.375787  1 V  pz                53     -0.218229  1 V  fyyz       
    48     -0.203136  1 V  fxxz              55     -0.198841  1 V  fzzz       
 
 Vector   37  Occ=0.000000D+00  E= 1.023268D+00
              MO Center=  2.4D-06, -9.5D-07, -6.4D-07, r^2= 3.5D+00
   Bfn.  Coefficient  Atom+Function         Bfn.  Coefficient  Atom+Function  
  ----- ------------  ---------------      ----- ------------  ---------------
    16      4.032800  1 V  px                59     -2.497445  1 V  fxyy       
    61     -2.467590  1 V  fxzz              56     -1.920626  1 V  fxxx       
    19     -1.043176  1 V  px                10      0.424748  1 V  px         
    13     -0.366137  1 V  px                49     -0.216065  1 V  fxyy       
    51     -0.213918  1 V  fxzz              46     -0.196661  1 V  fxxx       
 
 Vector   38  Occ=0.000000D+00  E= 1.053081D+00
              MO Center=  9.4D-07,  8.1D-07,  2.8D-07, r^2= 1.6D+00
   Bfn.  Coefficient  Atom+Function         Bfn.  Coefficient  Atom+Function  
  ----- ------------  ---------------      ----- ------------  ---------------
    60      3.819961  1 V  fxyz              50      0.151496  1 V  fxyz       
 
 Vector   39  Occ=0.000000D+00  E= 1.066588D+00
              MO Center=  3.9D-08,  5.7D-07,  4.2D-07, r^2= 1.6D+00
   Bfn.  Coefficient  Atom+Function         Bfn.  Coefficient  Atom+Function  
  ----- ------------  ---------------      ----- ------------  ---------------
    64      2.170408  1 V  fyzz              62     -0.847889  1 V  fyyy       
    57     -0.796360  1 V  fxxy              17      0.423792  1 V  py         
    20     -0.107715  1 V  py                54      0.067375  1 V  fyzz       
    47     -0.045702  1 V  fxxy              52     -0.045171  1 V  fyyy       
    11      0.042013  1 V  py                14     -0.030503  1 V  py         
 
 Vector   40  Occ=0.000000D+00  E= 1.067204D+00
              MO Center=  4.0D-07,  1.5D-06,  2.6D-07, r^2= 1.6D+00
   Bfn.  Coefficient  Atom+Function         Bfn.  Coefficient  Atom+Function  
  ----- ------------  ---------------      ----- ------------  ---------------
    63      1.948972  1 V  fyyz              58     -1.638933  1 V  fxxz       
    65     -0.617149  1 V  fzzz              18      0.556441  1 V  pz         
    21     -0.141449  1 V  pz                48     -0.080894  1 V  fxxz       
    12      0.068572  1 V  pz                53      0.055959  1 V  fyyz       
    15     -0.052800  1 V  pz                55     -0.041097  1 V  fzzz       
 
 Vector   41  Occ=0.000000D+00  E= 1.069876D+00
              MO Center=  9.3D-07,  1.0D-06,  2.1D-07, r^2= 1.6D+00
   Bfn.  Coefficient  Atom+Function         Bfn.  Coefficient  Atom+Function  
  ----- ------------  ---------------      ----- ------------  ---------------
    59      1.953004  1 V  fxyy              61     -1.860736  1 V  fxzz       
    56     -0.103358  1 V  fxxx              16      0.076995  1 V  px         
    51     -0.074525  1 V  fxzz              49      0.071877  1 V  fxyy       
 
 Vector   42  Occ=0.000000D+00  E= 1.083610D+00
              MO Center=  1.4D-06,  9.5D-07, -6.2D-08, r^2= 1.6D+00
   Bfn.  Coefficient  Atom+Function         Bfn.  Coefficient  Atom+Function  
  ----- ------------  ---------------      ----- ------------  ---------------
    57      2.317641  1 V  fxxy              62     -0.803319  1 V  fyyy       
    47      0.084809  1 V  fxxy              64     -0.074932  1 V  fyzz       
    17      0.064242  1 V  py                52     -0.031457  1 V  fyyy       
 
 Vector   43  Occ=0.000000D+00  E= 1.098076D+00
              MO Center=  9.8D-07,  2.4D-07,  2.3D-07, r^2= 1.6D+00
   Bfn.  Coefficient  Atom+Function         Bfn.  Coefficient  Atom+Function  
  ----- ------------  ---------------      ----- ------------  ---------------
    58      1.741502  1 V  fxxz              65     -1.197342  1 V  fzzz       
    18      0.495306  1 V  pz                63      0.477119  1 V  fyyz       
    21     -0.125009  1 V  pz                55     -0.062671  1 V  fzzz       
    12      0.055473  1 V  pz                48      0.052026  1 V  fxxz       
    15     -0.042078  1 V  pz         
 
 Vector   44  Occ=0.000000D+00  E= 1.106837D+00
              MO Center=  3.2D-07,  5.6D-07,  1.2D-07, r^2= 1.6D+00
   Bfn.  Coefficient  Atom+Function         Bfn.  Coefficient  Atom+Function  
  ----- ------------  ---------------      ----- ------------  ---------------
    56      1.449930  1 V  fxxx              61     -1.068161  1 V  fxzz       
    16     -0.868715  1 V  px                59     -0.824474  1 V  fxyy       
    19      0.217843  1 V  px                10     -0.104095  1 V  px         
    46      0.085406  1 V  fxxx              13      0.072387  1 V  px         
     7      0.043811  1 V  px         
 
 Vector   45  Occ=0.000000D+00  E= 1.362096D+00
              MO Center=  3.3D-07,  1.1D-06,  5.0D-07, r^2= 4.3D+00
   Bfn.  Coefficient  Atom+Function         Bfn.  Coefficient  Atom+Function  
  ----- ------------  ---------------      ----- ------------  ---------------
     5     20.755151  1 V  s                 34     -7.532620  1 V  dxx        
    37     -7.532583  1 V  dyy               39     -7.537047  1 V  dzz        
     4     -6.073585  1 V  s                  6      5.028370  1 V  s          
    40     -3.035825  1 V  dxx               43     -3.034424  1 V  dyy        
    45     -3.034300  1 V  dzz                3     -0.665772  1 V  s          
 
 Vector   46  Occ=0.000000D+00  E= 2.057284D+00
              MO Center= -8.9D-09,  8.3D-07,  5.6D-07, r^2= 1.7D+00
   Bfn.  Coefficient  Atom+Function         Bfn.  Coefficient  Atom+Function  
  ----- ------------  ---------------      ----- ------------  ---------------
    32      6.863104  1 V  dyz               70     -2.863618  1 V  gxxyz      
    77     -2.864517  1 V  gyyyz             79     -2.864315  1 V  gyzzz      
    38     -2.197774  1 V  dyz               26     -2.078162  1 V  dyz        
    44      0.684527  1 V  dyz        
 
 Vector   47  Occ=0.000000D+00  E= 2.060748D+00
              MO Center=  2.4D-07,  1.2D-07,  5.5D-07, r^2= 1.7D+00
   Bfn.  Coefficient  Atom+Function         Bfn.  Coefficient  Atom+Function  
  ----- ------------  ---------------      ----- ------------  ---------------
    30      6.859340  1 V  dxz               68     -2.872043  1 V  gxxxz      
    73     -2.842969  1 V  gxyyz             75     -2.853596  1 V  gxzzz      
    36     -2.195872  1 V  dxz               24     -2.073881  1 V  dxz        
    42      0.682584  1 V  dxz        
 
 Vector   48  Occ=0.000000D+00  E= 2.064860D+00
              MO Center=  1.2D-07,  7.6D-07,  5.2D-08, r^2= 1.7D+00
   Bfn.  Coefficient  Atom+Function         Bfn.  Coefficient  Atom+Function  
  ----- ------------  ---------------      ----- ------------  ---------------
    29      6.868733  1 V  dxy               67     -2.880697  1 V  gxxxy      
    72     -2.861982  1 V  gxyyy             74     -2.843485  1 V  gxyzz      
    35     -2.195755  1 V  dxy               23     -2.076297  1 V  dxy        
    41      0.682737  1 V  dxy        
 
 Vector   49  Occ=0.000000D+00  E= 2.084599D+00
              MO Center=  5.3D-09,  9.9D-07,  4.3D-07, r^2= 1.7D+00
   Bfn.  Coefficient  Atom+Function         Bfn.  Coefficient  Atom+Function  
  ----- ------------  ---------------      ----- ------------  ---------------
    31      3.656659  1 V  dyy               33     -3.177788  1 V  dzz        
    76     -1.532409  1 V  gyyyy             71      1.510161  1 V  gxxzz      
    80      1.333598  1 V  gzzzz             69     -1.325709  1 V  gxxyy      
    37     -1.170428  1 V  dyy               25     -1.106904  1 V  dyy        
    39      0.995498  1 V  dzz               27      0.961668  1 V  dzz        
 
 Vector   50  Occ=0.000000D+00  E= 2.096896D+00
              MO Center=  2.1D-07,  2.7D-07,  2.7D-07, r^2= 1.7D+00
   Bfn.  Coefficient  Atom+Function         Bfn.  Coefficient  Atom+Function  
  ----- ------------  ---------------      ----- ------------  ---------------
    28      3.958077  1 V  dxx               33     -2.376096  1 V  dzz        
    66     -1.665383  1 V  gxxxx             78      1.619510  1 V  gyyzz      
    31     -1.555554  1 V  dyy               34     -1.280632  1 V  dxx        
    22     -1.190274  1 V  dxx               80      0.995016  1 V  gzzzz      
    69     -0.978544  1 V  gxxyy             27      0.721753  1 V  dzz        
 
 Vector   51  Occ=0.000000D+00  E= 2.799992D+00
              MO Center=  7.0D-08, -2.3D-07, -4.8D-07, r^2= 1.9D+00
   Bfn.  Coefficient  Atom+Function         Bfn.  Coefficient  Atom+Function  
  ----- ------------  ---------------      ----- ------------  ---------------
    15      4.314348  1 V  pz                58     -3.725865  1 V  fxxz       
    63     -3.726103  1 V  fyyz              65     -3.724068  1 V  fzzz       
    18      3.402906  1 V  pz                12     -1.649286  1 V  pz         
    21     -0.660147  1 V  pz                48     -0.623572  1 V  fxxz       
    55     -0.620922  1 V  fzzz              53     -0.617187  1 V  fyyz       
 
 Vector   52  Occ=0.000000D+00  E= 2.804048D+00
              MO Center=  1.0D-07, -4.5D-07, -2.0D-07, r^2= 1.9D+00
   Bfn.  Coefficient  Atom+Function         Bfn.  Coefficient  Atom+Function  
  ----- ------------  ---------------      ----- ------------  ---------------
    14      4.314317  1 V  py                57     -3.725287  1 V  fxxy       
    62     -3.721613  1 V  fyyy              64     -3.729041  1 V  fyzz       
    17      3.403770  1 V  py                11     -1.650665  1 V  py         
    20     -0.660446  1 V  py                47     -0.625315  1 V  fxxy       
    52     -0.619589  1 V  fyyy              54     -0.619380  1 V  fyzz       
 
 Vector   53  Occ=0.000000D+00  E= 2.810599D+00
              MO Center=  3.5D-07, -2.0D-07, -1.9D-07, r^2= 1.9D+00
   Bfn.  Coefficient  Atom+Function         Bfn.  Coefficient  Atom+Function  
  ----- ------------  ---------------      ----- ------------  ---------------
    13      4.314309  1 V  px                56     -3.717697  1 V  fxxx       
    59     -3.723063  1 V  fxyy              61     -3.726608  1 V  fxzz       
    16      3.394526  1 V  px                10     -1.649180  1 V  px         
    19     -0.658000  1 V  px                46     -0.623480  1 V  fxxx       
    49     -0.613624  1 V  fxyy              51     -0.614013  1 V  fxzz       
 
 Vector   54  Occ=0.000000D+00  E= 4.010100D+00
              MO Center= -1.8D-07,  8.2D-07,  4.7D-07, r^2= 1.7D+00
   Bfn.  Coefficient  Atom+Function         Bfn.  Coefficient  Atom+Function  
  ----- ------------  ---------------      ----- ------------  ---------------
     5      8.101237  1 V  s                  4     -6.979511  1 V  s          
    71     -4.149627  1 V  gxxzz             69     -4.071289  1 V  gxxyy      
    78     -4.020014  1 V  gyyzz             33      3.676481  1 V  dzz        
    28      3.623756  1 V  dxx               31      3.630229  1 V  dyy        
    34     -3.246368  1 V  dxx               37     -3.249729  1 V  dyy        
 
 Vector   55  Occ=0.000000D+00  E= 4.031196D+00
              MO Center=  8.4D-08,  2.7D-07, -8.6D-08, r^2= 7.6D-01
   Bfn.  Coefficient  Atom+Function         Bfn.  Coefficient  Atom+Function  
  ----- ------------  ---------------      ----- ------------  ---------------
    74      6.674932  1 V  gxyzz             72     -1.472913  1 V  gxyyy      
    67     -0.692875  1 V  gxxxy             29     -0.047895  1 V  dxy        
 
 Vector   56  Occ=0.000000D+00  E= 4.033318D+00
              MO Center=  8.1D-08,  3.7D-07, -6.0D-08, r^2= 7.6D-01
   Bfn.  Coefficient  Atom+Function         Bfn.  Coefficient  Atom+Function  
  ----- ------------  ---------------      ----- ------------  ---------------
    73      6.605067  1 V  gxyyz             75     -1.596929  1 V  gxzzz      
    68     -0.638591  1 V  gxxxz      
 
 Vector   57  Occ=0.000000D+00  E= 4.036713D+00
              MO Center=  1.2D-07,  2.5D-07, -5.1D-08, r^2= 7.6D-01
   Bfn.  Coefficient  Atom+Function         Bfn.  Coefficient  Atom+Function  
  ----- ------------  ---------------      ----- ------------  ---------------
    70      6.702322  1 V  gxxyz             77     -1.234592  1 V  gyyyz      
    79     -1.001018  1 V  gyzzz      
 
 Vector   58  Occ=0.000000D+00  E= 4.043730D+00
              MO Center=  3.8D-08,  3.3D-07, -8.4D-08, r^2= 7.6D-01
   Bfn.  Coefficient  Atom+Function         Bfn.  Coefficient  Atom+Function  
  ----- ------------  ---------------      ----- ------------  ---------------
    78      3.838317  1 V  gyyzz             71     -2.642186  1 V  gxxzz      
    69      0.814702  1 V  gxxyy             76     -0.726584  1 V  gyyyy      
    66      0.294070  1 V  gxxxx             80     -0.180802  1 V  gzzzz      
    31     -0.067615  1 V  dyy                5     -0.048379  1 V  s          
     4      0.043293  1 V  s                 37      0.028302  1 V  dyy        
 
 Vector   59  Occ=0.000000D+00  E= 4.043787D+00
              MO Center=  2.8D-10,  3.9D-07, -1.1D-07, r^2= 7.6D-01
   Bfn.  Coefficient  Atom+Function         Bfn.  Coefficient  Atom+Function  
  ----- ------------  ---------------      ----- ------------  ---------------
    79     -3.024317  1 V  gyzzz             77      2.887131  1 V  gyyyz      
    70      0.240401  1 V  gxxyz             32      0.036926  1 V  dyz        
 
 Vector   60  Occ=0.000000D+00  E= 4.053209D+00
              MO Center=  9.6D-08,  2.9D-07, -7.1D-08, r^2= 7.6D-01
   Bfn.  Coefficient  Atom+Function         Bfn.  Coefficient  Atom+Function  
  ----- ------------  ---------------      ----- ------------  ---------------
    69      3.381662  1 V  gxxyy             71     -2.395566  1 V  gxxzz      
    78     -2.263394  1 V  gyyzz             80      0.783497  1 V  gzzzz      
    76     -0.161081  1 V  gyyyy             66     -0.139165  1 V  gxxxx      
     4      0.043608  1 V  s                  5     -0.041008  1 V  s          
    28     -0.035148  1 V  dxx               31     -0.032204  1 V  dyy        
 
 Vector   61  Occ=0.000000D+00  E= 4.054596D+00
              MO Center=  1.5D-07,  9.3D-09, -9.5D-08, r^2= 7.6D-01
   Bfn.  Coefficient  Atom+Function         Bfn.  Coefficient  Atom+Function  
  ----- ------------  ---------------      ----- ------------  ---------------
    68      3.072013  1 V  gxxxz             75     -2.765878  1 V  gxzzz      
    73     -1.114626  1 V  gxyyz             30      0.051579  1 V  dxz        
 
 Vector   62  Occ=0.000000D+00  E= 4.060423D+00
              MO Center=  1.6D-07,  4.0D-07, -2.4D-09, r^2= 7.6D-01
   Bfn.  Coefficient  Atom+Function         Bfn.  Coefficient  Atom+Function  
  ----- ------------  ---------------      ----- ------------  ---------------
    67      3.071156  1 V  gxxxy             72     -2.793232  1 V  gxyyy      
    74     -0.892801  1 V  gxyzz      
 
 Vector   63  Occ=0.000000D+00  E= 4.071895D+00
              MO Center=  5.3D-08,  2.2D-07, -5.2D-08, r^2= 7.7D-01
   Bfn.  Coefficient  Atom+Function         Bfn.  Coefficient  Atom+Function  
  ----- ------------  ---------------      ----- ------------  ---------------
    69      2.716844  1 V  gxxyy             71      2.542778  1 V  gxxzz      
    66     -1.006887  1 V  gxxxx             76     -0.731138  1 V  gyyyy      
    80     -0.704422  1 V  gzzzz             78      0.598785  1 V  gyyzz      
     5      0.377233  1 V  s                  4     -0.347746  1 V  s          
    31      0.205172  1 V  dyy               33      0.203597  1 V  dzz        
 
 Vector   64  Occ=0.000000D+00  E= 4.455739D+00
              MO Center= -8.5D-08, -4.1D-07,  2.2D-07, r^2= 4.9D-01
   Bfn.  Coefficient  Atom+Function         Bfn.  Coefficient  Atom+Function  
  ----- ------------  ---------------      ----- ------------  ---------------
    50      4.103978  1 V  fxyz              60     -1.507807  1 V  fxyz       
 
 Vector   65  Occ=0.000000D+00  E= 4.474616D+00
              MO Center= -9.5D-08, -3.3D-07,  2.5D-07, r^2= 4.9D-01
   Bfn.  Coefficient  Atom+Function         Bfn.  Coefficient  Atom+Function  
  ----- ------------  ---------------      ----- ------------  ---------------
    51      2.321944  1 V  fxzz              49     -1.705298  1 V  fxyy       
    61     -0.845850  1 V  fxzz              59      0.629874  1 V  fxyy       
    46     -0.201992  1 V  fxxx              56      0.080177  1 V  fxxx       
 
 Vector   66  Occ=0.000000D+00  E= 4.476726D+00
              MO Center= -8.7D-08, -4.1D-07,  2.2D-07, r^2= 4.9D-01
   Bfn.  Coefficient  Atom+Function         Bfn.  Coefficient  Atom+Function  
  ----- ------------  ---------------      ----- ------------  ---------------
    53     -2.081511  1 V  fyyz              48      2.021983  1 V  fxxz       
    63      0.755747  1 V  fyyz              58     -0.747408  1 V  fxxz       
 
 Vector   67  Occ=0.000000D+00  E= 4.477917D+00
              MO Center= -8.3D-08, -4.3D-07,  2.7D-07, r^2= 4.9D-01
   Bfn.  Coefficient  Atom+Function         Bfn.  Coefficient  Atom+Function  
  ----- ------------  ---------------      ----- ------------  ---------------
    54      2.393698  1 V  fyzz              47     -1.573462  1 V  fxxy       
    64     -0.867915  1 V  fyzz              57      0.584581  1 V  fxxy       
    52     -0.268728  1 V  fyyy              62      0.105506  1 V  fyyy       
 
 Vector   68  Occ=0.000000D+00  E= 4.490389D+00
              MO Center= -8.0D-08, -3.0D-07,  3.2D-07, r^2= 4.9D-01
   Bfn.  Coefficient  Atom+Function         Bfn.  Coefficient  Atom+Function  
  ----- ------------  ---------------      ----- ------------  ---------------
    48      1.625406  1 V  fxxz              53      1.552474  1 V  fyyz       
    55     -1.059848  1 V  fzzz              58     -0.593854  1 V  fxxz       
    63     -0.564878  1 V  fyyz              65      0.390549  1 V  fzzz       
 
 Vector   69  Occ=0.000000D+00  E= 4.495757D+00
              MO Center= -9.9D-08, -5.7D-07,  1.3D-07, r^2= 4.9D-01
   Bfn.  Coefficient  Atom+Function         Bfn.  Coefficient  Atom+Function  
  ----- ------------  ---------------      ----- ------------  ---------------
    47      2.063286  1 V  fxxy              52     -1.023407  1 V  fyyy       
    54      1.011700  1 V  fyzz              57     -0.753829  1 V  fxxy       
    62      0.372705  1 V  fyyy              64     -0.368300  1 V  fyzz       
 
 Vector   70  Occ=0.000000D+00  E= 4.497016D+00
              MO Center= -7.4D-08, -3.9D-07,  1.4D-07, r^2= 4.9D-01
   Bfn.  Coefficient  Atom+Function         Bfn.  Coefficient  Atom+Function  
  ----- ------------  ---------------      ----- ------------  ---------------
    49      1.960652  1 V  fxyy              51      1.169889  1 V  fxzz       
    46     -1.034286  1 V  fxxx              59     -0.697094  1 V  fxyy       
    61     -0.409402  1 V  fxzz              56      0.398342  1 V  fxxx       
 
 Vector   71  Occ=0.000000D+00  E= 5.483909D+00
              MO Center= -4.0D-08,  1.2D-07,  2.2D-07, r^2= 1.8D+00
   Bfn.  Coefficient  Atom+Function         Bfn.  Coefficient  Atom+Function  
  ----- ------------  ---------------      ----- ------------  ---------------
    30     15.012704  1 V  dxz               68    -10.173951  1 V  gxxxz      
    73    -10.180389  1 V  gxyyz             75    -10.161475  1 V  gxzzz      
    36     -2.315120  1 V  dxz               24     -1.017942  1 V  dxz        
    42      0.617439  1 V  dxz        
 
 Vector   72  Occ=0.000000D+00  E= 5.488594D+00
              MO Center= -4.5D-09,  5.8D-07,  2.4D-07, r^2= 1.8D+00
   Bfn.  Coefficient  Atom+Function         Bfn.  Coefficient  Atom+Function  
  ----- ------------  ---------------      ----- ------------  ---------------
    32     15.011345  1 V  dyz               70    -10.170273  1 V  gxxyz      
    77    -10.175520  1 V  gyyyz             79    -10.161616  1 V  gyzzz      
    38     -2.316374  1 V  dyz               26     -1.016462  1 V  dyz        
    44      0.617976  1 V  dyz        
 
 Vector   73  Occ=0.000000D+00  E= 5.493275D+00
              MO Center= -9.0D-08,  5.3D-07,  1.8D-08, r^2= 1.8D+00
   Bfn.  Coefficient  Atom+Function         Bfn.  Coefficient  Atom+Function  
  ----- ------------  ---------------      ----- ------------  ---------------
    29     15.007895  1 V  dxy               67    -10.168366  1 V  gxxxy      
    72    -10.170277  1 V  gxyyy             74    -10.156850  1 V  gxyzz      
    35     -2.314463  1 V  dxy               23     -1.016341  1 V  dxy        
    41      0.617268  1 V  dxy        
 
 Vector   74  Occ=0.000000D+00  E= 5.496747D+00
              MO Center= -2.6D-09,  4.7D-07,  2.2D-07, r^2= 1.8D+00
   Bfn.  Coefficient  Atom+Function         Bfn.  Coefficient  Atom+Function  
  ----- ------------  ---------------      ----- ------------  ---------------
    33      7.999940  1 V  dzz               31     -6.861088  1 V  dyy        
    69      5.431852  1 V  gxxyy             80     -5.422717  1 V  gzzzz      
    71     -4.629951  1 V  gxxzz             76      4.649636  1 V  gyyyy      
    39     -1.223139  1 V  dzz               28     -1.168425  1 V  dxx        
    37      1.066464  1 V  dyy               66      0.790183  1 V  gxxxx      
 
 Vector   75  Occ=0.000000D+00  E= 5.505805D+00
              MO Center= -1.0D-07,  3.4D-07,  5.5D-08, r^2= 1.8D+00
   Bfn.  Coefficient  Atom+Function         Bfn.  Coefficient  Atom+Function  
  ----- ------------  ---------------      ----- ------------  ---------------
    28      8.586998  1 V  dxx               66     -5.821701  1 V  gxxxx      
    78      5.795670  1 V  gyyzz             31     -5.282007  1 V  dyy        
    71     -3.579528  1 V  gxxzz             76      3.582312  1 V  gyyyy      
    33     -3.276056  1 V  dzz               69     -2.230750  1 V  gxxyy      
    80      2.220996  1 V  gzzzz             34     -1.319716  1 V  dxx        
 
 Vector   76  Occ=0.000000D+00  E= 8.006286D+00
              MO Center= -4.1D-09,  3.3D-08, -1.3D-07, r^2= 6.9D-01
   Bfn.  Coefficient  Atom+Function         Bfn.  Coefficient  Atom+Function  
  ----- ------------  ---------------      ----- ------------  ---------------
    15      3.614461  1 V  pz                48     -2.662482  1 V  fxxz       
    53     -2.661581  1 V  fyyz              55     -2.661296  1 V  fzzz       
    58     -2.290186  1 V  fxxz              63     -2.291185  1 V  fyyz       
    65     -2.289738  1 V  fzzz              12      1.858530  1 V  pz         
    18      1.730587  1 V  pz                 9     -0.605293  1 V  pz         
 
 Vector   77  Occ=0.000000D+00  E= 8.013603D+00
              MO Center= -6.5D-09,  1.5D-07,  4.1D-09, r^2= 6.9D-01
   Bfn.  Coefficient  Atom+Function         Bfn.  Coefficient  Atom+Function  
  ----- ------------  ---------------      ----- ------------  ---------------
    14      3.614181  1 V  py                47     -2.661676  1 V  fxxy       
    52     -2.662395  1 V  fyyy              54     -2.659261  1 V  fyzz       
    57     -2.290196  1 V  fxxy              62     -2.290355  1 V  fyyy       
    64     -2.291753  1 V  fyzz              11      1.858534  1 V  py         
    17      1.731398  1 V  py                 8     -0.605258  1 V  py         
 
 Vector   78  Occ=0.000000D+00  E= 8.014417D+00
              MO Center=  7.5D-08,  3.1D-08,  3.4D-09, r^2= 6.9D-01
   Bfn.  Coefficient  Atom+Function         Bfn.  Coefficient  Atom+Function  
  ----- ------------  ---------------      ----- ------------  ---------------
    13      3.615756  1 V  px                46     -2.662971  1 V  fxxx       
    49     -2.660427  1 V  fxyy              51     -2.658915  1 V  fxzz       
    56     -2.288878  1 V  fxxx              59     -2.291411  1 V  fxyy       
    61     -2.291971  1 V  fxzz              10      1.857552  1 V  px         
    16      1.729701  1 V  px                 7     -0.605020  1 V  px         
 
 Vector   79  Occ=0.000000D+00  E= 1.143862D+01
              MO Center= -7.6D-08, -3.2D-08,  1.5D-07, r^2= 7.4D-01
   Bfn.  Coefficient  Atom+Function         Bfn.  Coefficient  Atom+Function  
  ----- ------------  ---------------      ----- ------------  ---------------
     4     13.695748  1 V  s                  3    -12.316214  1 V  s          
    69     -6.362706  1 V  gxxyy             71     -6.356870  1 V  gxxzz      
    78     -6.361348  1 V  gyyzz              5      5.600195  1 V  s          
    66     -3.180923  1 V  gxxxx             76     -3.183368  1 V  gyyyy      
    80     -3.179579  1 V  gzzzz              2     -2.540372  1 V  s          
 
 Vector   80  Occ=0.000000D+00  E= 4.674828D+01
              MO Center= -2.5D-10,  2.0D-09,  1.8D-10, r^2= 1.5D-01
   Bfn.  Coefficient  Atom+Function         Bfn.  Coefficient  Atom+Function  
  ----- ------------  ---------------      ----- ------------  ---------------
     4     27.949877  1 V  s                  3     25.215712  1 V  s          
    22    -20.623010  1 V  dxx               25    -20.622892  1 V  dyy        
    27    -20.622947  1 V  dzz               28     -3.578936  1 V  dxx        
    31     -3.579212  1 V  dyy               33     -3.579225  1 V  dzz        
     2      3.206832  1 V  s                 69     -2.348852  1 V  gxxyy      
 
 
                     DFT Final Beta Molecular Orbital Analysis
                     -----------------------------------------
 
 Vector    1  Occ=1.000000D+00  E=-1.961325D+02
              MO Center=  1.4D-11,  1.2D-11, -1.4D-11, r^2= 1.7D-03
   Bfn.  Coefficient  Atom+Function         Bfn.  Coefficient  Atom+Function  
  ----- ------------  ---------------      ----- ------------  ---------------
     1      0.997477  1 V  s          
 
 Vector    2  Occ=1.000000D+00  E=-2.187341D+01
              MO Center=  1.8D-08,  3.8D-08, -2.2D-08, r^2= 3.2D-02
   Bfn.  Coefficient  Atom+Function         Bfn.  Coefficient  Atom+Function  
  ----- ------------  ---------------      ----- ------------  ---------------
     2      1.038845  1 V  s                  1     -0.306966  1 V  s          
     4     -0.075447  1 V  s                  3      0.055771  1 V  s          
 
 Vector    3  Occ=1.000000D+00  E=-1.839917D+01
              MO Center=  6.7D-10,  2.5D-09,  1.9D-08, r^2= 2.6D-02
   Bfn.  Coefficient  Atom+Function         Bfn.  Coefficient  Atom+Function  
  ----- ------------  ---------------      ----- ------------  ---------------
     9      0.989591  1 V  pz                12      0.031738  1 V  pz         
 
 Vector    4  Occ=1.000000D+00  E=-1.839563D+01
              MO Center= -1.7D-08,  2.4D-09, -1.4D-09, r^2= 2.6D-02
   Bfn.  Coefficient  Atom+Function         Bfn.  Coefficient  Atom+Function  
  ----- ------------  ---------------      ----- ------------  ---------------
     7      0.989713  1 V  px                10      0.031347  1 V  px         
 
 Vector    5  Occ=1.000000D+00  E=-1.839543D+01
              MO Center=  5.5D-10, -3.2D-08, -1.3D-09, r^2= 2.6D-02
   Bfn.  Coefficient  Atom+Function         Bfn.  Coefficient  Atom+Function  
  ----- ------------  ---------------      ----- ------------  ---------------
     8      0.989565  1 V  py                11      0.031826  1 V  py         
 
 Vector    6  Occ=1.000000D+00  E=-2.447534D+00
              MO Center=  1.9D-07,  6.6D-07, -5.4D-07, r^2= 3.0D-01
   Bfn.  Coefficient  Atom+Function         Bfn.  Coefficient  Atom+Function  
  ----- ------------  ---------------      ----- ------------  ---------------
     3      0.563105  1 V  s                  2     -0.454300  1 V  s          
     4      0.415035  1 V  s                  1      0.113671  1 V  s          
    27      0.053134  1 V  dzz               25      0.051348  1 V  dyy        
    22      0.047626  1 V  dxx                5     -0.045606  1 V  s          
 
 Vector    7  Occ=1.000000D+00  E=-1.510011D+00
              MO Center= -1.1D-07,  1.9D-07,  2.5D-07, r^2= 3.5D-01
   Bfn.  Coefficient  Atom+Function         Bfn.  Coefficient  Atom+Function  
  ----- ------------  ---------------      ----- ------------  ---------------
    12      0.869053  1 V  pz                 9     -0.366101  1 V  pz         
    15      0.276428  1 V  pz                18      0.030235  1 V  pz         
 
 Vector    8  Occ=1.000000D+00  E=-1.500140D+00
              MO Center= -1.2D-07, -5.1D-07, -2.0D-07, r^2= 3.5D-01
   Bfn.  Coefficient  Atom+Function         Bfn.  Coefficient  Atom+Function  
  ----- ------------  ---------------      ----- ------------  ---------------
    11      0.873491  1 V  py                 8     -0.367186  1 V  py         
    14      0.271102  1 V  py                17      0.026761  1 V  py         
 
 Vector    9  Occ=1.000000D+00  E=-1.498551D+00
              MO Center= -3.0D-07,  1.8D-07, -2.1D-07, r^2= 3.5D-01
   Bfn.  Coefficient  Atom+Function         Bfn.  Coefficient  Atom+Function  
  ----- ------------  ---------------      ----- ------------  ---------------
    10      0.864881  1 V  px                 7     -0.364695  1 V  px         
    13      0.279886  1 V  px                16      0.033368  1 V  px         
 
 Vector   10  Occ=1.000000D+00  E=-1.441988D-01
              MO Center=  3.2D-05,  6.0D-06,  3.2D-07, r^2= 3.7D+00
   Bfn.  Coefficient  Atom+Function         Bfn.  Coefficient  Atom+Function  
  ----- ------------  ---------------      ----- ------------  ---------------
     5      0.542519  1 V  s                  6      0.435457  1 V  s          
     4     -0.231033  1 V  s                 22      0.177117  1 V  dxx        
     3     -0.171733  1 V  s                 34      0.162576  1 V  dxx        
    25     -0.150463  1 V  dyy                2      0.090652  1 V  s          
    28      0.090503  1 V  dxx               40      0.085801  1 V  dxx        
 
 Vector   11  Occ=0.000000D+00  E=-1.103986D-01
              MO Center=  1.7D-07, -7.4D-07, -4.2D-06, r^2= 1.3D+00
   Bfn.  Coefficient  Atom+Function         Bfn.  Coefficient  Atom+Function  
  ----- ------------  ---------------      ----- ------------  ---------------
    27      0.487261  1 V  dzz               22     -0.427052  1 V  dxx        
    33      0.267499  1 V  dzz               39      0.268390  1 V  dzz        
    28     -0.253938  1 V  dxx               34     -0.246786  1 V  dxx        
     6      0.212429  1 V  s                  5      0.122698  1 V  s          
    40     -0.109898  1 V  dxx               45      0.108816  1 V  dzz        
 
 Vector   12  Occ=0.000000D+00  E=-9.498019D-02
              MO Center=  5.5D-07, -1.2D-05, -5.0D-07, r^2= 1.3D+00
   Bfn.  Coefficient  Atom+Function         Bfn.  Coefficient  Atom+Function  
  ----- ------------  ---------------      ----- ------------  ---------------
    25      0.532905  1 V  dyy                6      0.316290  1 V  s          
    31      0.307485  1 V  dyy               22     -0.289623  1 V  dxx        
    37      0.268140  1 V  dyy               27     -0.257283  1 V  dzz        
    28     -0.181583  1 V  dxx               34     -0.171493  1 V  dxx        
    33     -0.156145  1 V  dzz               39     -0.139898  1 V  dzz        
 
 Vector   13  Occ=0.000000D+00  E=-7.927262D-02
              MO Center=  6.2D-06, -2.9D-07, -3.6D-06, r^2= 1.2D+00
   Bfn.  Coefficient  Atom+Function         Bfn.  Coefficient  Atom+Function  
  ----- ------------  ---------------      ----- ------------  ---------------
    24      0.910288  1 V  dxz               36      0.568635  1 V  dxz        
    30      0.509491  1 V  dxz               42      0.316626  1 V  dxz        
    75      0.068599  1 V  gxzzz             68      0.068117  1 V  gxxxz      
    73      0.047518  1 V  gxyyz      
 
 Vector   14  Occ=0.000000D+00  E=-7.346606D-02
              MO Center= -3.0D-08, -8.0D-06, -2.1D-06, r^2= 1.1D+00
   Bfn.  Coefficient  Atom+Function         Bfn.  Coefficient  Atom+Function  
  ----- ------------  ---------------      ----- ------------  ---------------
    26      0.941835  1 V  dyz               32      0.547385  1 V  dyz        
    38      0.531578  1 V  dyz               44      0.275888  1 V  dyz        
    79      0.060350  1 V  gyzzz             77      0.050309  1 V  gyyyz      
    70      0.042058  1 V  gxxyz      
 
 Vector   15  Occ=0.000000D+00  E=-6.918455D-02
              MO Center=  5.1D-06, -1.5D-05, -2.1D-07, r^2= 1.2D+00
   Bfn.  Coefficient  Atom+Function         Bfn.  Coefficient  Atom+Function  
  ----- ------------  ---------------      ----- ------------  ---------------
    23      0.920173  1 V  dxy               35      0.554919  1 V  dxy        
[...]
  ----- ------------  ---------------      ----- ------------  ---------------
    71      4.743027  1 V  gxxzz             78      2.191252  1 V  gyyzz      
     5     -1.952798  1 V  s                 69      1.743877  1 V  gxxyy      
     4      1.676557  1 V  s                 31     -0.915895  1 V  dyy        
    28     -0.879585  1 V  dxx               33     -0.856291  1 V  dzz        
    37      0.789135  1 V  dyy               34      0.784712  1 V  dxx        
 
 Vector   56  Occ=0.000000D+00  E= 4.104982D+00
              MO Center=  7.1D-08,  2.5D-10, -8.1D-08, r^2= 7.6D-01
   Bfn.  Coefficient  Atom+Function         Bfn.  Coefficient  Atom+Function  
  ----- ------------  ---------------      ----- ------------  ---------------
    75     -3.002490  1 V  gxzzz             68      2.912720  1 V  gxxxz      
    73      0.087520  1 V  gxyyz             30      0.040289  1 V  dxz        
 
 Vector   57  Occ=0.000000D+00  E= 4.111731D+00
              MO Center=  3.7D-09,  4.3D-07, -8.2D-08, r^2= 7.6D-01
   Bfn.  Coefficient  Atom+Function         Bfn.  Coefficient  Atom+Function  
  ----- ------------  ---------------      ----- ------------  ---------------
    79      3.154791  1 V  gyzzz             77     -2.679229  1 V  gyyyz      
    70     -1.060477  1 V  gxxyz             32     -0.086020  1 V  dyz        
 
 Vector   58  Occ=0.000000D+00  E= 4.115070D+00
              MO Center=  2.3D-08,  4.2D-07, -6.6D-08, r^2= 7.7D-01
   Bfn.  Coefficient  Atom+Function         Bfn.  Coefficient  Atom+Function  
  ----- ------------  ---------------      ----- ------------  ---------------
    78      4.621737  1 V  gyyzz             71     -1.440968  1 V  gxxzz      
     5     -0.742449  1 V  s                  4      0.636180  1 V  s          
    66      0.594405  1 V  gxxxx             76     -0.426370  1 V  gyyyy      
    28     -0.362739  1 V  dxx               31     -0.344225  1 V  dyy        
    34      0.303011  1 V  dxx               33     -0.299764  1 V  dzz        
 
 Vector   59  Occ=0.000000D+00  E= 4.119928D+00
              MO Center=  7.7D-08,  4.0D-07, -4.1D-09, r^2= 7.6D-01
   Bfn.  Coefficient  Atom+Function         Bfn.  Coefficient  Atom+Function  
  ----- ------------  ---------------      ----- ------------  ---------------
    67      3.180964  1 V  gxxxy             72     -2.425264  1 V  gxyyy      
    74     -2.121586  1 V  gxyzz             29     -0.036469  1 V  dxy        
 
 Vector   60  Occ=0.000000D+00  E= 4.122937D+00
              MO Center=  8.2D-08,  4.5D-07, -1.1D-08, r^2= 7.6D-01
   Bfn.  Coefficient  Atom+Function         Bfn.  Coefficient  Atom+Function  
  ----- ------------  ---------------      ----- ------------  ---------------
    69      4.455446  1 V  gxxyy             71     -1.354660  1 V  gxxzz      
    76     -0.656656  1 V  gyyyy             66     -0.471987  1 V  gxxxx      
    80      0.334971  1 V  gzzzz              5     -0.160723  1 V  s          
     4      0.137073  1 V  s                 33     -0.109110  1 V  dzz        
    78     -0.103782  1 V  gyyzz             31     -0.071973  1 V  dyy        
 
 Vector   61  Occ=0.000000D+00  E= 4.129087D+00
              MO Center=  8.8D-08,  3.4D-07, -5.7D-08, r^2= 7.6D-01
   Bfn.  Coefficient  Atom+Function         Bfn.  Coefficient  Atom+Function  
  ----- ------------  ---------------      ----- ------------  ---------------
    74      6.367740  1 V  gxyzz             72     -1.993337  1 V  gxyyy      
    67     -0.103955  1 V  gxxxy      
 
 Vector   62  Occ=0.000000D+00  E= 4.130881D+00
              MO Center=  8.2D-08,  3.0D-07, -4.2D-08, r^2= 7.6D-01
   Bfn.  Coefficient  Atom+Function         Bfn.  Coefficient  Atom+Function  
  ----- ------------  ---------------      ----- ------------  ---------------
    70      6.613300  1 V  gxxyz             77     -1.595196  1 V  gyyyz      
    79     -0.613760  1 V  gyzzz      
 
 Vector   63  Occ=0.000000D+00  E= 4.133125D+00
              MO Center=  8.7D-08,  4.2D-07, -4.6D-08, r^2= 7.6D-01
   Bfn.  Coefficient  Atom+Function         Bfn.  Coefficient  Atom+Function  
  ----- ------------  ---------------      ----- ------------  ---------------
    73      6.667077  1 V  gxyyz             68     -1.208006  1 V  gxxxz      
    75     -1.107867  1 V  gxzzz             30      0.068568  1 V  dxz        
 
 Vector   64  Occ=0.000000D+00  E= 4.566998D+00
              MO Center= -8.6D-08, -3.7D-07,  2.9D-07, r^2= 4.9D-01
   Bfn.  Coefficient  Atom+Function         Bfn.  Coefficient  Atom+Function  
  ----- ------------  ---------------      ----- ------------  ---------------
    53      1.722374  1 V  fyyz              48      1.428788  1 V  fxxz       
    55     -1.067065  1 V  fzzz              63     -0.642067  1 V  fyyz       
    58     -0.534165  1 V  fxxz              65      0.372388  1 V  fzzz       
 
 Vector   65  Occ=0.000000D+00  E= 4.573377D+00
              MO Center= -7.0D-08, -6.4D-07,  2.2D-07, r^2= 4.9D-01
   Bfn.  Coefficient  Atom+Function         Bfn.  Coefficient  Atom+Function  
  ----- ------------  ---------------      ----- ------------  ---------------
    54      2.182830  1 V  fyzz              52     -1.001053  1 V  fyyy       
    47      0.807827  1 V  fxxy              64     -0.792369  1 V  fyzz       
    62      0.365014  1 V  fyyy              57     -0.291517  1 V  fxxy       
 
 Vector   66  Occ=0.000000D+00  E= 4.575043D+00
              MO Center= -1.8D-07, -2.4D-07,  2.0D-07, r^2= 4.9D-01
   Bfn.  Coefficient  Atom+Function         Bfn.  Coefficient  Atom+Function  
  ----- ------------  ---------------      ----- ------------  ---------------
    51      2.006985  1 V  fxzz              49      1.080737  1 V  fxyy       
    46     -1.037359  1 V  fxxx              61     -0.740622  1 V  fxzz       
    59     -0.404828  1 V  fxyy              56      0.362733  1 V  fxxx       
 
 Vector   67  Occ=0.000000D+00  E= 4.593231D+00
              MO Center= -1.4D-07, -4.6D-07,  1.5D-07, r^2= 4.9D-01
   Bfn.  Coefficient  Atom+Function         Bfn.  Coefficient  Atom+Function  
  ----- ------------  ---------------      ----- ------------  ---------------
    47      2.463340  1 V  fxxy              54     -1.404260  1 V  fyzz       
    57     -0.891552  1 V  fxxy              64      0.508032  1 V  fyzz       
    52     -0.358082  1 V  fyyy              62      0.128613  1 V  fyyy       
 
 Vector   68  Occ=0.000000D+00  E= 4.593609D+00
              MO Center= -1.2D-07, -4.2D-07,  2.0D-07, r^2= 4.9D-01
   Bfn.  Coefficient  Atom+Function         Bfn.  Coefficient  Atom+Function  
  ----- ------------  ---------------      ----- ------------  ---------------
    48      2.160387  1 V  fxxz              53     -1.933914  1 V  fyyz       
    58     -0.775206  1 V  fxxz              63      0.705130  1 V  fyyz       
    55     -0.076316  1 V  fzzz              65      0.032761  1 V  fzzz       
 
 Vector   69  Occ=0.000000D+00  E= 4.595897D+00
              MO Center= -1.3D-07, -5.3D-07,  1.7D-07, r^2= 4.9D-01
   Bfn.  Coefficient  Atom+Function         Bfn.  Coefficient  Atom+Function  
  ----- ------------  ---------------      ----- ------------  ---------------
    49      2.354755  1 V  fxyy              51     -1.644141  1 V  fxzz       
    59     -0.863178  1 V  fxyy              61      0.584426  1 V  fxzz       
    46     -0.242573  1 V  fxxx              56      0.076985  1 V  fxxx       
 
 Vector   70  Occ=0.000000D+00  E= 4.618719D+00
              MO Center= -1.3D-07, -4.4D-07,  2.0D-07, r^2= 4.8D-01
   Bfn.  Coefficient  Atom+Function         Bfn.  Coefficient  Atom+Function  
  ----- ------------  ---------------      ----- ------------  ---------------
    50      4.104944  1 V  fxyz              60     -1.480853  1 V  fxyz       
 
 Vector   71  Occ=0.000000D+00  E= 5.543635D+00
              MO Center=  1.0D-07,  7.0D-07,  2.3D-07, r^2= 1.8D+00
   Bfn.  Coefficient  Atom+Function         Bfn.  Coefficient  Atom+Function  
  ----- ------------  ---------------      ----- ------------  ---------------
    33      8.224588  1 V  dzz               31     -6.423640  1 V  dyy        
    69      5.597567  1 V  gxxyy             80     -5.571808  1 V  gzzzz      
    71     -4.351032  1 V  gxxzz             76      4.354951  1 V  gyyyy      
    28     -1.830500  1 V  dxx               39     -1.262338  1 V  dzz        
    66      1.238540  1 V  gxxxx             78     -1.241626  1 V  gyyzz      
 
 Vector   72  Occ=0.000000D+00  E= 5.554381D+00
              MO Center=  7.2D-07,  5.9D-07,  3.8D-08, r^2= 1.8D+00
   Bfn.  Coefficient  Atom+Function         Bfn.  Coefficient  Atom+Function  
  ----- ------------  ---------------      ----- ------------  ---------------
    28      8.474503  1 V  dxx               31     -5.785099  1 V  dyy        
    66     -5.740257  1 V  gxxxx             78      5.726830  1 V  gyyzz      
    71     -3.946572  1 V  gxxzz             76      3.924685  1 V  gyyyy      
    33     -2.644652  1 V  dzz               69     -1.827636  1 V  gxxyy      
    80      1.792132  1 V  gzzzz             34     -1.330937  1 V  dxx        
 
 Vector   73  Occ=0.000000D+00  E= 5.559672D+00
              MO Center=  8.4D-08,  9.6D-07,  2.1D-07, r^2= 1.8D+00
   Bfn.  Coefficient  Atom+Function         Bfn.  Coefficient  Atom+Function  
  ----- ------------  ---------------      ----- ------------  ---------------
    32     14.963136  1 V  dyz               70    -10.152040  1 V  gxxyz      
    77    -10.160282  1 V  gyyyz             79    -10.134713  1 V  gyzzz      
    38     -2.297562  1 V  dyz               26     -1.000868  1 V  dyz        
    44      0.611112  1 V  dyz        
 
 Vector   74  Occ=0.000000D+00  E= 5.565752D+00
              MO Center=  3.7D-07,  1.4D-07,  2.0D-07, r^2= 1.8D+00
   Bfn.  Coefficient  Atom+Function         Bfn.  Coefficient  Atom+Function  
  ----- ------------  ---------------      ----- ------------  ---------------
    30     14.973904  1 V  dxz               68    -10.155666  1 V  gxxxz      
    73    -10.173502  1 V  gxyyz             75    -10.141702  1 V  gxzzz      
    36     -2.302192  1 V  dxz               24     -1.001808  1 V  dxz        
    42      0.613116  1 V  dxz        
 
 Vector   75  Occ=0.000000D+00  E= 5.569733D+00
              MO Center=  3.5D-07,  9.4D-07,  1.5D-08, r^2= 1.8D+00
   Bfn.  Coefficient  Atom+Function         Bfn.  Coefficient  Atom+Function  
  ----- ------------  ---------------      ----- ------------  ---------------
    29     14.964919  1 V  dxy               67    -10.144080  1 V  gxxxy      
    72    -10.154043  1 V  gxyyy             74    -10.146881  1 V  gxyzz      
    35     -2.298622  1 V  dxy               23     -1.000462  1 V  dxy        
    41      0.611860  1 V  dxy        
 
 Vector   76  Occ=0.000000D+00  E= 8.100310D+00
              MO Center=  1.0D-08,  4.2D-08, -1.2D-07, r^2= 6.8D-01
   Bfn.  Coefficient  Atom+Function         Bfn.  Coefficient  Atom+Function  
  ----- ------------  ---------------      ----- ------------  ---------------
    15      3.598514  1 V  pz                48     -2.666155  1 V  fxxz       
    53     -2.664289  1 V  fyyz              55     -2.655613  1 V  fzzz       
    58     -2.275641  1 V  fxxz              63     -2.277005  1 V  fyyz       
    65     -2.279484  1 V  fzzz              12      1.864743  1 V  pz         
    18      1.720482  1 V  pz                 9     -0.605517  1 V  pz         
 
 Vector   77  Occ=0.000000D+00  E= 8.109420D+00
              MO Center=  9.4D-09,  1.8D-07,  2.0D-09, r^2= 6.8D-01
   Bfn.  Coefficient  Atom+Function         Bfn.  Coefficient  Atom+Function  
  ----- ------------  ---------------      ----- ------------  ---------------
    14      3.600630  1 V  py                47     -2.664377  1 V  fxxy       
    52     -2.657770  1 V  fyyy              54     -2.660639  1 V  fyzz       
    57     -2.276872  1 V  fxxy              62     -2.279538  1 V  fyyy       
    64     -2.279318  1 V  fyzz              11      1.863473  1 V  py         
    17      1.720243  1 V  py                 8     -0.605204  1 V  py         
 
 Vector   78  Occ=0.000000D+00  E= 8.115233D+00
              MO Center=  7.4D-09,  3.8D-08,  2.3D-09, r^2= 6.8D-01
   Bfn.  Coefficient  Atom+Function         Bfn.  Coefficient  Atom+Function  
  ----- ------------  ---------------      ----- ------------  ---------------
    13      3.597302  1 V  px                46     -2.657694  1 V  fxxx       
    49     -2.662477  1 V  fxyy              51     -2.660602  1 V  fxzz       
    56     -2.277183  1 V  fxxx              59     -2.275072  1 V  fxyy       
    61     -2.276154  1 V  fxzz              10      1.864907  1 V  px         
    16      1.718646  1 V  px                 7     -0.605406  1 V  px         
 
 Vector   79  Occ=0.000000D+00  E= 1.155029D+01
              MO Center=  6.6D-08, -2.6D-08,  1.4D-07, r^2= 7.3D-01
   Bfn.  Coefficient  Atom+Function         Bfn.  Coefficient  Atom+Function  
  ----- ------------  ---------------      ----- ------------  ---------------
     4     13.712988  1 V  s                  3    -12.316449  1 V  s          
    69     -6.356089  1 V  gxxyy             71     -6.355397  1 V  gxxzz      
    78     -6.350374  1 V  gyyzz              5      5.574264  1 V  s          
    66     -3.181459  1 V  gxxxx             76     -3.176616  1 V  gyyyy      
    80     -3.176402  1 V  gzzzz              2     -2.540568  1 V  s          
 
 Vector   80  Occ=0.000000D+00  E= 4.677787D+01
              MO Center=  1.8D-09,  2.7D-09,  1.1D-10, r^2= 1.5D-01
   Bfn.  Coefficient  Atom+Function         Bfn.  Coefficient  Atom+Function  
  ----- ------------  ---------------      ----- ------------  ---------------
     4     27.948366  1 V  s                  3     25.217493  1 V  s          
    22    -20.622939  1 V  dxx               25    -20.623059  1 V  dyy        
    27    -20.622983  1 V  dzz               28     -3.578921  1 V  dxx        
    31     -3.578635  1 V  dyy               33     -3.579151  1 V  dzz        
     2      3.206723  1 V  s                 69     -2.348465  1 V  gxxyy      
 

   alpha - beta orbital overlaps 
   ----------------------------- 


   alpha      1      2      3      4      5      6      7      8      9     10
    beta      1      2      3      5      4      6      7      9      8     14
 overlap   1.000  1.000  1.000  1.000  1.000  1.000  1.000  1.000  1.000  0.994


   alpha     11     12     13     14     15     16     17     18     19     20
    beta     13     15     10     11     10     18     17     16     19     24
 overlap   0.987  0.990  0.673  0.732  0.681  0.995  0.998  0.999  0.993  0.994


   alpha     21     22     23     24     25     26     27     28     29     30
    beta     21     22     23     20     25     28     27     26     33     32
 overlap   0.988  0.990  0.923  0.921  0.994  0.995  0.998  0.999  0.999  0.998


   alpha     31     32     33     34     35     36     37     38     39     40
    beta     30     31     29     34     37     36     35     44     43     41
 overlap   0.998  0.990  0.990  0.998  0.993  0.975  0.918  1.000  0.977  0.905


   alpha     41     42     43     44     45     46     47     48     49     50
    beta     42     40     39     38     45     48     49     50     47     46
 overlap   0.960  0.981  0.916  0.889  0.999  1.000  1.000  1.000  0.848  0.848


   alpha     51     52     53     54     55     56     57     58     59     60
    beta     51     53     52     54     61     63     62     58     57     60
 overlap   1.000  1.000  1.000  0.952  0.981  0.984  0.992  0.934  0.992  0.805


   alpha     61     62     63     64     65     66     67     68     69     70
    beta     56     59     55     70     69     68     67     64     65     66
 overlap   0.984  0.981  0.824  1.000  0.912  0.996  0.825  0.996  0.825  0.912


   alpha     71     72     73     74     75     76     77     78     79     80
    beta     74     73     75     71     72     76     77     78     79     80
 overlap   1.000  1.000  1.000  0.997  0.997  1.000  1.000  1.000  1.000  1.000


     --------------------------
     Expectation value of S2:  
     --------------------------
      <S2> =      4.2976 (Exact =     3.7500)
 

 Parallel integral file used      21 records with       0 large values


 Task  times  cpu:      341.3s     wall:      683.9s
 
 
                                NWChem Input Module
                                -------------------
 
 
 Summary of allocated global arrays
-----------------------------------
  No active global arrays



                         GA Statistics for process    0
                         ------------------------------

       create   destroy   get      put      acc     scatter   gather  read&inc
calls: 2447     2447     2.16e+04 1.67e+04 3611        0        0       66     
number of processes/call 1.05e+00 1.02e+00 1.37e+00 0.00e+00 0.00e+00
bytes total:             4.20e+08 1.49e+08 1.85e+08 0.00e+00 0.00e+00 5.28e+02
bytes remote:            1.04e+07 3.02e+06 1.66e+07 0.00e+00 0.00e+00 0.00e+00
Max memory consumed for GA by this process: 3328000 bytes
 
MA_summarize_allocated_blocks: starting scan ...
MA_summarize_allocated_blocks: scan completed: 0 heap blocks, 0 stack blocks
MA usage statistics:

	allocation statistics:
					      heap	     stack
					      ----	     -----
	current number of blocks	         0	         0
	maximum number of blocks	        21	        51
	current total bytes		         0	         0
	maximum total bytes		  23284792	  29277432
	maximum total K-bytes		     23285	     29278
	maximum total M-bytes		        24	        30
 
 
                                     CITATION
                                     --------
                Please cite the following reference when publishing
                           results obtained with NWChem:
 
                 M. Valiev, E.J. Bylaska, N. Govind, K. Kowalski,
              T.P. Straatsma, H.J.J. van Dam, D. Wang, J. Nieplocha,
                        E. Apra, T.L. Windus, W.A. de Jong
                 "NWChem: a comprehensive and scalable open-source
                  solution for large scale molecular simulations"
                      Comput. Phys. Commun. 181, 1477 (2010)
                           doi:10.1016/j.cpc.2010.04.018
 
                                      AUTHORS
                                      -------
          E. Apra, E. J. Bylaska, W. A. de Jong, N. Govind, K. Kowalski,
       T. P. Straatsma, M. Valiev, H. J. J. van Dam, D. Wang, T. L. Windus,
        J. Hammond, J. Autschbach, K. Bhaskaran-Nair, J. Brabec, K. Lopata,
    S. A. Fischer, S. Krishnamoorthy, M. Jacquelin, W. Ma, M. Klemm, O. Villa,
      Y. Chen, V. Anisimov, F. Aquino, S. Hirata, M. T. Hackler, V. Konjkov,
            D. Mejia-Rodriguez, T. Risthaus, M. Malagoli, A. Marenich,
   A. Otero-de-la-Roza, J. Mullin, P. Nichols, R. Peverati, J. Pittner, Y. Zhao,
        P.-D. Fan, A. Fonari, M. J. Williamson, R. J. Harrison, J. R. Rehr,
      M. Dupuis, D. Silverstein, D. M. A. Smith, J. Nieplocha, V. Tipparaju,
    M. Krishnan, B. E. Van Kuiken, A. Vazquez-Mayagoitia, L. Jensen, M. Swart,
      Q. Wu, T. Van Voorhis, A. A. Auer, M. Nooijen, L. D. Crosby, E. Brown,
      G. Cisneros, G. I. Fann, H. Fruchtl, J. Garza, K. Hirao, R. A. Kendall,
      J. A. Nichols, K. Tsemekhman, K. Wolinski, J. Anchell, D. E. Bernholdt,
      P. Borowski, T. Clark, D. Clerc, H. Dachsel, M. J. O. Deegan, K. Dyall,
    D. Elwood, E. Glendening, M. Gutowski, A. C. Hess, J. Jaffe, B. G. Johnson,
     J. Ju, R. Kobayashi, R. Kutteh, Z. Lin, R. Littlefield, X. Long, B. Meng,
      T. Nakajima, S. Niu, L. Pollack, M. Rosing, K. Glaesemann, G. Sandrone,
      M. Stave, H. Taylor, G. Thomas, J. H. van Lenthe, A. T. Wong, Z. Zhang.

 Total times  cpu:      341.6s     wall:      684.5s
