
 Sitting POTCAR..


rm: cannot remove ‘DATA’: No such file or directory
Initializing SCF run using PBE..


 running on   16 total cores
 distrk:  each k-point on   16 cores,    1 groups
 distr:  one band on    1 cores,   16 groups
 using from now: INCAR     
 vasp.5.4.4.18Apr17-6-g9f103f2a35 (build Jul 29 2018 09:17:02) complex          
  
 POSCAR found :  1 types and       2 ions
 scaLAPACK will be used

 ----------------------------------------------------------------------------- 
|                                                                             |
|           W    W    AA    RRRRR   N    N  II  N    N   GGGG   !!!           |
|           W    W   A  A   R    R  NN   N  II  NN   N  G    G  !!!           |
|           W    W  A    A  R    R  N N  N  II  N N  N  G       !!!           |
|           W WW W  AAAAAA  RRRRR   N  N N  II  N  N N  G  GGG   !            |
|           WW  WW  A    A  R   R   N   NN  II  N   NN  G    G                |
|           W    W  A    A  R    R  N    N  II  N    N   GGGG   !!!           |
|                                                                             |
|      For optimal performance we recommend to set                            |
|        NCORE= 4 - approx SQRT( number of cores)                             |
|      NCORE specifies how many cores store one orbital (NPAR=cpu/NCORE).     |
|      This setting can  greatly improve the performance of VASP for DFT.     |
|      The default,   NCORE=1            might be grossly inefficient         |
|      on modern multi-core architectures or massively parallel machines.     |
|      Do your own testing !!!!                                               |
|      Unfortunately you need to use the default for GW and RPA calculations. |
|      (for HF NCORE is supported but not extensively tested yet)             |
|                                                                             |
 ----------------------------------------------------------------------------- 

 LDA part: xc-table for Pade appr. of Perdew
 POSCAR, INCAR and KPOINTS ok, starting setup
 FFT: planning ...
 WAVECAR not read
 entering main loop
       N       E                     dE             d eps       ncg     rms          rms(c)
DAV:   1    -0.463536597475E+00   -0.46354E+00   -0.35751E+03 13056   0.448E+02
DAV:   2    -0.109464166112E+02   -0.10483E+02   -0.10297E+02 19024   0.384E+01
DAV:   3    -0.110181481578E+02   -0.71732E-01   -0.71732E-01 15312   0.401E+00
DAV:   4    -0.110183280524E+02   -0.17989E-03   -0.17989E-03 23760   0.219E-01
DAV:   5    -0.110183280658E+02   -0.13423E-07   -0.13414E-07 15264   0.155E-03    0.475E+00
DAV:   6    -0.109023679924E+02    0.11596E+00   -0.76090E-02 18080   0.721E-01    0.288E+00
DAV:   7    -0.108487765174E+02    0.53591E-01   -0.14373E-01 19632   0.106E+00    0.160E-01
DAV:   8    -0.108498392044E+02   -0.10627E-02   -0.28376E-03 15824   0.207E-01    0.812E-02
DAV:   9    -0.108500473114E+02   -0.20811E-03   -0.22902E-04 22368   0.598E-02    0.538E-02
DAV:  10    -0.108500602320E+02   -0.12921E-04   -0.85973E-06 11184   0.130E-02
   1 F= -.10850060E+02 E0= -.10850060E+02  d E =-.187675E-08
 writing wavefunctions
1. Meta-GGA scf run..


 running on   16 total cores
 distrk:  each k-point on   16 cores,    1 groups
 distr:  one band on    1 cores,   16 groups
 using from now: INCAR     
 vasp.5.4.4.18Apr17-6-g9f103f2a35 (build Jul 29 2018 09:17:02) complex          
  
 POSCAR found :  1 types and       2 ions
 scaLAPACK will be used

 ----------------------------------------------------------------------------- 
|                                                                             |
|           W    W    AA    RRRRR   N    N  II  N    N   GGGG   !!!           |
|           W    W   A  A   R    R  NN   N  II  NN   N  G    G  !!!           |
|           W    W  A    A  R    R  N N  N  II  N N  N  G       !!!           |
|           W WW W  AAAAAA  RRRRR   N  N N  II  N  N N  G  GGG   !            |
|           WW  WW  A    A  R   R   N   NN  II  N   NN  G    G                |
|           W    W  A    A  R    R  N    N  II  N    N   GGGG   !!!           |
|                                                                             |
|      For optimal performance we recommend to set                            |
|        NCORE= 4 - approx SQRT( number of cores)                             |
|      NCORE specifies how many cores store one orbital (NPAR=cpu/NCORE).     |
|      This setting can  greatly improve the performance of VASP for DFT.     |
|      The default,   NCORE=1            might be grossly inefficient         |
|      on modern multi-core architectures or massively parallel machines.     |
|      Do your own testing !!!!                                               |
|      Unfortunately you need to use the default for GW and RPA calculations. |
|      (for HF NCORE is supported but not extensively tested yet)             |
|                                                                             |
 ----------------------------------------------------------------------------- 

 LDA part: xc-table for Pade appr. of Perdew
 POSCAR, INCAR and KPOINTS ok, starting setup
 FFT: planning ...
 WAVECAR not read
 entering main loop
       N       E                     dE             d eps       ncg     rms          ort
DAV:   1    -0.462502800531E+00   -0.46250E+00   -0.47763E+03  6528   0.539E+02
DAV:   2    -0.109461847292E+02   -0.10484E+02   -0.10299E+02  6528   0.384E+01
DAV:   3    -0.110179004188E+02   -0.71716E-01   -0.71714E-01  6528   0.401E+00
DAV:   4    -0.110180803046E+02   -0.17989E-03   -0.17989E-03  6528   0.219E-01
DAV:   5    -0.110180803181E+02   -0.13563E-07   -0.13415E-07  6528   0.155E-03
 gam= 0.000 g(H,U,f)=  0.594E-01 0.338E-01-0.171E-05 ort(H,U,f) = 0.000E+00 0.000E+00 0.000E+00
SDA:   6    -0.107976989092E+02    0.22038E+00   -0.13415E-07  6528   0.932E-01 0.000E+00
 gam= 0.000 trial= 0.400  step= 0.919 mean= 0.400
 gam= 0.125 g(H,U,f)=  0.564E-02 0.604E-02-0.336E-06 ort(H,U,f) =-0.142E-01 0.144E-01-0.737E-06
CGA:   7    -0.108405485560E+02   -0.42850E-01   -0.42809E-01  6528   0.117E-01 0.159E-03
 gam= 0.125 trial= 0.426  step= 1.410 mean= 0.426
 gam= 0.171 g(H,U,f)=  0.182E-02 0.182E-03-0.122E-07 ort(H,U,f) =-0.138E-02 0.137E-02-0.861E-07
CGA:   8    -0.108487891163E+02   -0.82406E-02   -0.82409E-02  6528   0.200E-02-0.129E-04
 gam= 0.171 trial= 0.475  step= 1.024 mean= 0.475
 gam= 0.046 g(H,U,f)=  0.920E-04 0.536E-06-0.143E-11 ort(H,U,f) =-0.148E-04 0.130E-04-0.220E-09
CGA:   9    -0.108498117469E+02   -0.10226E-02   -0.10231E-02  6528   0.925E-04-0.176E-05
 gam= 0.046 trial= 0.503  step= 0.932 mean= 0.503
 gam= 0.056 g(H,U,f)=  0.489E-05 0.293E-06-0.274E-10 ort(H,U,f) = 0.216E-06-0.257E-06 0.612E-10
CGA:  10    -0.108498547923E+02   -0.43045E-04   -0.43055E-04  6528   0.518E-05-0.409E-07
 gam= 0.056 trial= 0.524  step= 1.169 mean= 0.524
 gam= 0.115 g(H,U,f)=  0.524E-06 0.701E-07-0.679E-11 ort(H,U,f) =-0.341E-06 0.135E-06-0.119E-10
CGA:  11    -0.108498577557E+02   -0.29634E-05   -0.30297E-05  6528   0.594E-06-0.206E-06
 gam= 0.115 trial= 0.556  step= 1.044 mean= 0.556
 gam= 0.103 g(H,U,f)=  0.453E-07 0.161E-07-0.154E-11 ort(H,U,f) =-0.175E-07 0.411E-07-0.389E-11
CGA:  12    -0.108498580603E+02   -0.30459E-06   -0.29786E-06  6528   0.614E-07 0.236E-07
 gam= 0.103 trial= 0.581  step= 2.472 mean= 0.581
 gam= 0.000 g(H,U,f)=  0.101E-06 0.134E-08-0.122E-12 ort(H,U,f) =-0.635E-07-0.516E-08 0.531E-12
CGA:  13    -0.108498580772E+02   -0.16935E-07   -0.78920E-07  6528   0.103E-06-0.686E-07
 gam= 0.000 trial= 0.675  step= 0.868 mean= 0.675
 gam= 0.055 g(H,U,f)=  0.514E-08 0.563E-09-0.541E-13 ort(H,U,f) = 0.375E-08 0.855E-09-0.810E-13
CGA:  14    -0.108498581223E+02   -0.45087E-07   -0.44632E-07  6528   0.570E-08 0.461E-08
 gam= 0.055 trial= 0.685  step= 0.430 mean= 0.685
 gam= 0.000 g(H,U,f)=  0.202E-08 0.361E-09-0.347E-13 ort(H,U,f) = 0.323E-08 0.488E-09-0.469E-13
CGA:  15    -0.108498581232E+02   -0.82991E-09   -0.12807E-08  6528   0.238E-08 0.372E-08
 gam= 0.000 trial= 0.672  step= 0.388 mean= 0.672
 final diagonalization
   1 F= -.10849858E+02 E0= -.10849994E+02  d E =0.407193E-03
 writing wavefunctions

3. Calcuing band structure..


 running on   16 total cores
 distrk:  each k-point on   16 cores,    1 groups
 distr:  one band on    1 cores,   16 groups
 using from now: INCAR     
 vasp.5.4.4.18Apr17-6-g9f103f2a35 (build Jul 29 2018 09:17:02) complex          
  
 POSCAR found :  1 types and       2 ions
 scaLAPACK will be used

 ----------------------------------------------------------------------------- 
|                                                                             |
|           W    W    AA    RRRRR   N    N  II  N    N   GGGG   !!!           |
|           W    W   A  A   R    R  NN   N  II  NN   N  G    G  !!!           |
|           W    W  A    A  R    R  N N  N  II  N N  N  G       !!!           |
|           W WW W  AAAAAA  RRRRR   N  N N  II  N  N N  G  GGG   !            |
|           WW  WW  A    A  R   R   N   NN  II  N   NN  G    G                |
|           W    W  A    A  R    R  N    N  II  N    N   GGGG   !!!           |
|                                                                             |
|      For optimal performance we recommend to set                            |
|        NCORE= 4 - approx SQRT( number of cores)                             |
|      NCORE specifies how many cores store one orbital (NPAR=cpu/NCORE).     |
|      This setting can  greatly improve the performance of VASP for DFT.     |
|      The default,   NCORE=1            might be grossly inefficient         |
|      on modern multi-core architectures or massively parallel machines.     |
|      Do your own testing !!!!                                               |
|      Unfortunately you need to use the default for GW and RPA calculations. |
|      (for HF NCORE is supported but not extensively tested yet)             |
|                                                                             |
 ----------------------------------------------------------------------------- 

 LDA part: xc-table for Pade appr. of Perdew
 POSCAR, INCAR and KPOINTS ok, starting setup
 FFT: planning ...
 WAVECAR not read
 entering main loop
       N       E                     dE             d eps       ncg     rms          ort
DAV:   1     0.429838265631E+01    0.42984E+01   -0.49275E+03  1536   0.537E+02
DAV:   2    -0.720669284323E+01   -0.11505E+02   -0.10718E+02  1536   0.387E+01
DAV:   3    -0.729603818584E+01   -0.89345E-01   -0.89203E-01  1536   0.420E+00
DAV:   4    -0.729629779884E+01   -0.25961E-03   -0.25961E-03  1536   0.254E-01
DAV:   5    -0.729629781923E+01   -0.20393E-07   -0.19841E-07  1536   0.185E-03
 gam= 0.000 g(H,U,f)=  0.129E+00 0.592E-01-0.171E-04 ort(H,U,f) = 0.000E+00 0.000E+00 0.000E+00
SDA:   6    -0.684878935109E+01    0.44751E+00   -0.19841E-07  1536   0.189E+00 0.000E+00
 gam= 0.000 trial= 0.400  step= 0.914 mean= 0.400
 gam= 0.117 g(H,U,f)=  0.106E-01 0.115E-01-0.133E-04 ort(H,U,f) =-0.269E-01 0.265E-01-0.317E-04
CGA:   7    -0.693490768690E+01   -0.86118E-01   -0.86222E-01  1536   0.221E-01-0.445E-03
 gam= 0.117 trial= 0.426  step= 1.398 mean= 0.426
 gam= 0.199 g(H,U,f)=  0.388E-02 0.525E-03-0.131E-04 ort(H,U,f) =-0.323E-02 0.315E-02-0.816E-04
CGA:   8    -0.695024578642E+01   -0.15338E-01   -0.15408E-01  1536   0.439E-02-0.158E-03
 gam= 0.199 trial= 0.474  step= 1.068 mean= 0.474
 gam= 0.045 g(H,U,f)=  0.197E-03 0.160E-05-0.115E-06 ort(H,U,f) =-0.341E-04 0.512E-04-0.393E-05
CGA:   9    -0.695257524691E+01   -0.23295E-02   -0.23259E-02  1536   0.199E-03 0.131E-04
 gam= 0.045 trial= 0.504  step= 0.947 mean= 0.504
 gam= 0.062 g(H,U,f)=  0.119E-04 0.398E-06 0.449E-09 ort(H,U,f) = 0.167E-05-0.383E-06-0.202E-07
CGA:  10    -0.695266982407E+01   -0.94577E-04   -0.94296E-04  1536   0.122E-04 0.127E-05
 gam= 0.062 trial= 0.526  step= 1.076 mean= 0.526
 gam= 0.105 g(H,U,f)=  0.117E-05 0.117E-06 0.305E-09 ort(H,U,f) =-0.868E-07 0.195E-06 0.465E-09
CGA:  11    -0.695267648949E+01   -0.66654E-05   -0.66351E-05  1536   0.129E-05 0.109E-06
 gam= 0.105 trial= 0.554  step= 0.947 mean= 0.554
 gam= 0.094 g(H,U,f)=  0.865E-07 0.350E-07 0.817E-10 ort(H,U,f) = 0.731E-07 0.751E-07 0.179E-09
CGA:  12    -0.695267713523E+01   -0.64573E-06   -0.61646E-06  1536   0.122E-06 0.148E-06
 gam= 0.094 trial= 0.573  step= 1.111 mean= 0.573
 gam= 0.161 g(H,U,f)=  0.117E-07 0.791E-08 0.665E-11 ort(H,U,f) =-0.134E-07 0.200E-07 0.314E-10
CGA:  13    -0.695267721122E+01   -0.75992E-07   -0.75294E-07  1536   0.196E-07 0.657E-08
 gam= 0.161 trial= 0.600  step=-2.989 mean= 0.600
 BOPT < 0, no correction made
 gam= 0.000 g(H,U,f)=  0.322E-08 0.344E-08-0.232E-11 ort(H,U,f) = 0.344E-08 0.733E-08 0.314E-11
CGA:  14    -0.695267722488E+01   -0.13659E-07    0.30912E-07  1536   0.666E-08 0.108E-07
 gam= 0.000 trial= 0.600  step=-0.558 mean= 0.600
 BOPT < 0, no correction made
 gam= 0.000 g(H,U,f)=  0.604E-09 0.197E-08-0.273E-11 ort(H,U,f) = 0.129E-08 0.261E-08-0.278E-11
CGA:  15    -0.695267723102E+01   -0.61422E-08    0.18585E-08  1536   0.257E-08 0.389E-08
 gam= 0.000 trial= 0.600  step=-0.586 mean= 0.600
 BOPT < 0, no correction made
 final diagonalization
   1 F= -.69526772E+01 E0= -.69545797E+01  d E =0.570750E-02
 writing wavefunctions
