Si                                      
   5.46800000000000     
     0.000000    0.500000    0.500000
     0.500000    0.000000    0.500000
     0.500000    0.500000    0.000000
   Si
     2
Direct
  0.875000  0.875000  0.875000
  0.125000  0.125000  0.125000
 
   24   24   24
  25.317      25.024      24.089      22.233      19.414      16.614      15.416      16.614      19.414      22.233    
  24.089      25.024      25.317      25.024      24.089      22.233      19.414      16.614      15.416      16.614    
  19.414      22.233      24.089      25.024      25.024      25.103      23.928      20.955      16.869      13.797    
  13.797      16.869      20.955      23.928      25.103      25.024      24.262      23.010      21.351      19.308    
  17.143      15.666      15.666      17.143      19.308      21.351      23.010      24.262      24.089      23.928    
  21.514      16.861      11.919      9.7568      11.919      16.861      21.514      23.928      24.089      23.010    
  21.397      19.548      17.632      15.801      14.386      13.840      14.386      15.801      17.632      19.548    
  21.397      23.010      22.233      20.955      16.861      11.102      6.7716      6.7716      11.102      16.861    
  20.955      22.233      21.351      19.548      17.475      15.475      13.710      12.318      11.524      11.524    
  12.318      13.710      15.475      17.475      19.548      21.351      19.414      16.869      11.919      6.7716    
  4.5519      6.7716      11.919      16.869      19.414      19.308      17.632      15.475      13.354      11.548    
  10.147      9.2303      8.9074      9.2303      10.147      11.548      13.354      15.475      17.632      19.308    
  16.614      13.797      9.7568      6.7716      6.7716      9.7568      13.797      16.614      17.143      15.801    
  13.710      11.548      9.6820      8.2437      7.2511      6.7372      6.7372      7.2511      8.2437      9.6820    
  11.548      13.710      15.801      17.143      15.416      13.797      11.919      11.102      11.919      13.797    
  15.416      15.666      14.386      12.318      10.147      8.2437      6.7698      5.7269      5.0988      4.8886    
  5.0988      5.7269      6.7698      8.2437      10.147      12.318      14.386      15.666      16.614      16.869    
  16.861      16.861      16.869      16.614      15.666      13.840      11.524      9.2303      7.2511      5.7269    
  4.6414      3.9417      3.5990      3.5990      3.9417      4.6414      5.7269      7.2511      9.2303      11.524    
  13.840      15.666      19.414      20.955      21.514      20.955      19.414      17.143      14.386      11.524    
  8.9074      6.7372      5.0988      3.9417      3.1767      2.7430      2.6035      2.7430      3.1767      3.9417    
  5.0988      6.7372      8.9074      11.524      14.386      17.143      22.233      23.928      23.928      22.233    
  19.308      15.801      12.318      9.2303      6.7372      4.8886      3.5990      2.7430      2.2257      1.9850    
  1.9850      2.2257      2.7430      3.5990      4.8886      6.7372      9.2303      12.318      15.801      19.308    
  24.089      25.103      24.089      21.351      17.632      13.710      10.147      7.2511      5.0988      3.5990    
  2.6035      1.9850      1.6530      1.5494      1.6530      1.9850      2.6035      3.5990      5.0988      7.2511    
  10.147      13.710      17.632      21.351      25.024      25.024      23.010      19.548      15.475      11.548    
  8.2437      5.7269      3.9417      2.7430      1.9850      1.5494      1.3528      1.3528      1.5494      1.9850    
  2.7430      3.9417      5.7269      8.2437      11.548      15.475      19.548      23.010      25.317      24.262    
  21.397      17.475      13.354      9.6820      6.7698      4.6414      3.1767      2.2257      1.6530      1.3528    
  1.2598      1.3528      1.6530      2.2257      3.1767      4.6414      6.7698      9.6820      13.354      17.475    
  21.397      24.262      25.024      23.010      19.548      15.475      11.548      8.2437      5.7269      3.9417    
  2.7430      1.9850      1.5494      1.3528      1.3528      1.5494      1.9850      2.7430      3.9417      5.7269    
  8.2437      11.548      15.475      19.548      23.010      25.024      24.089      21.351      17.632      13.710    
  10.147      7.2511      5.0988      3.5990      2.6035      1.9850      1.6530      1.5494      1.6530      1.9850    
  2.6035      3.5990      5.0988      7.2511      10.147      13.710      17.632      21.351      24.089      25.103    
  22.233      19.308      15.801      12.318      9.2303      6.7372      4.8886      3.5990      2.7430      2.2257    
  1.9850      1.9850      2.2257      2.7430      3.5990      4.8886      6.7372      9.2303      12.318      15.801    
  19.308      22.233      23.928      23.928      19.414      17.143      14.386      11.524      8.9074      6.7372    
  5.0988      3.9417      3.1767      2.7430      2.6035      2.7430      3.1767      3.9417      5.0988      6.7372    
  8.9074      11.524      14.386      17.143      19.414      20.955      21.514      20.955      16.614      15.666    
  13.840      11.524      9.2303      7.2511      5.7269      4.6414      3.9417      3.5990      3.5990      3.9417    
  4.6414      5.7269      7.2511      9.2303      11.524      13.840      15.666      16.614      16.869      16.861    
  16.861      16.869      15.416      15.666      14.386      12.318      10.147      8.2437      6.7698      5.7269    
  5.0988      4.8886      5.0988      5.7269      6.7698      8.2437      10.147      12.318      14.386      15.666    
  15.416      13.797      11.919      11.102      11.919      13.797      16.614      17.143      15.801      13.710    
  11.548      9.6820      8.2437      7.2511      6.7372      6.7372      7.2511      8.2437      9.6820      11.548    
  13.710      15.801      17.143      16.614      13.797      9.7568      6.7716      6.7716      9.7568      13.797    
  19.414      19.308      17.632      15.475      13.354      11.548      10.147      9.2303      8.9074      9.2303    
  10.147      11.548      13.354      15.475      17.632      19.308      19.414      16.869      11.919      6.7716    
  4.5519      6.7716      11.919      16.869      22.233      21.351      19.548      17.475      15.475      13.710    
  12.318      11.524      11.524      12.318      13.710      15.475      17.475      19.548      21.351      22.233    
  20.955      16.861      11.102      6.7716      6.7716      11.102      16.861      20.955      24.089      23.010    
  21.397      19.548      17.632      15.801      14.386      13.840      14.386      15.801      17.632      19.548    
  21.397      23.010      24.089      23.928      21.514      16.861      11.919      9.7568      11.919      16.861    
  21.514      23.928      25.024      24.262      23.010      21.351      19.308      17.143      15.666      15.666    
  17.143      19.308      21.351      23.010      24.262      25.024      25.103      23.928      20.955      16.869    
  13.797      13.797      16.869      20.955      23.928      25.103      25.024      25.103      23.928      20.955    
  16.869      13.797      13.797      16.869      20.955      23.928      25.103      25.024      24.262      23.010    
  21.351      19.308      17.143      15.666      15.666      17.143      19.308      21.351      23.010      24.262    
  25.103      24.880      22.219      17.118      11.691      9.3116      11.691      17.118      22.219      24.880    
  25.103      23.984      22.304      20.368      18.354      16.425      14.924      14.341      14.924      16.425    
  18.354      20.368      22.304      23.984      23.928      22.219      17.185      10.156      4.8621      4.8621    
  10.156      17.185      22.219      23.928      23.097      21.168      18.930      16.746      14.810      13.277    
  12.397      12.397      13.277      14.810      16.746      18.930      21.168      23.097      20.955      17.118    
  10.156      3.0021     -.76489E-01  3.0021      10.156      17.118      20.955      21.367      19.671      17.318    
  14.955      12.918      11.333      10.290      9.9211      10.290      11.333      12.918      14.955      17.318    
  19.671      21.367      16.869      11.691      4.8621     -.76489E-01 -.76485E-01  4.8621      11.691      16.869    
  18.761      17.856      15.666      13.264      11.133      9.4747      8.3278      7.7305      7.7305      8.3278    
  9.4747      11.133      13.264      15.666      17.856      18.761      13.797      9.3116      4.8621      3.0021    
  4.8621      9.3116      13.797      16.186      15.975      14.099      11.789      9.6368      7.9287      6.7136    
  5.9778      5.7298      5.9778      6.7136      7.9287      9.6368      11.789      14.099      15.975      16.186    
  13.797      11.691      10.156      10.156      11.691      13.797      15.087      14.709      12.906      10.635    
  8.4838      6.7478      5.4920      4.6761      4.2723      4.2723      4.6761      5.4920      6.7478      8.4838    
  10.635      12.906      14.709      15.087      16.869      17.118      17.185      17.118      16.869      16.186    
  14.709      12.452      9.9845      7.7366      5.9373      4.6340      3.7618      3.2603      3.0972      3.2603    
  3.7618      4.6340      5.9373      7.7366      9.9845      12.452      14.709      16.186      20.955      22.219    
  22.219      20.955      18.761      15.975      12.906      9.9845      7.4758      5.5219      4.1228      3.1800    
  2.6013      2.3285      2.3285      2.6013      3.1800      4.1228      5.5219      7.4758      9.9845      12.906    
  15.975      18.761      23.928      24.880      23.928      21.367      17.856      14.099      10.635      7.7366    
  5.5219      3.9534      2.8992      2.2337      1.8716      1.7580      1.8716      2.2337      2.8992      3.9534    
  5.5219      7.7366      10.635      14.099      17.856      21.367      25.103      25.103      23.097      19.671    
  15.666      11.789      8.4838      5.9373      4.1228      2.8992      2.1166      1.6612      1.4548      1.4548    
  1.6612      2.1166      2.8992      4.1228      5.9373      8.4838      11.789      15.666      19.671      23.097    
  25.024      23.984      21.168      17.318      13.264      9.6368      6.7478      4.6340      3.1800      2.2337    
  1.6612      1.3603      1.2670      1.3603      1.6612      2.2337      3.1800      4.6340      6.7478      9.6368    
  13.264      17.318      21.168      23.984      24.262      22.304      18.930      14.955      11.133      7.9287    
  5.4920      3.7618      2.6013      1.8716      1.4548      1.2670      1.2670      1.4548      1.8716      2.6013    
  3.7618      5.4920      7.9287      11.133      14.955      18.930      22.304      24.262      23.010      20.368    
  16.746      12.918      9.4747      6.7136      4.6761      3.2603      2.3285      1.7580      1.4548      1.3603    
  1.4548      1.7580      2.3285      3.2603      4.6761      6.7136      9.4747      12.918      16.746      20.368    
  23.010      23.984      21.351      18.354      14.810      11.333      8.3278      5.9778      4.2723      3.0972    
  2.3285      1.8716      1.6612      1.6612      1.8716      2.3285      3.0972      4.2723      5.9778      8.3278    
  11.333      14.810      18.354      21.351      23.097      23.097      19.308      16.425      13.277      10.290    
  7.7305      5.7298      4.2723      3.2603      2.6013      2.2337      2.1166      2.2337      2.6013      3.2603    
  4.2723      5.7298      7.7305      10.290      13.277      16.425      19.308      21.367      22.120      21.367    
  17.143      14.924      12.397      9.9211      7.7305      5.9778      4.6761      3.7618      3.1800      2.8992    
  2.8992      3.1800      3.7618      4.6761      5.9778      7.7305      9.9211      12.397      14.924      17.143    
  18.761      19.622      19.622      18.761      15.666      14.341      12.397      10.290      8.3278      6.7136    
  5.4920      4.6340      4.1228      3.9534      4.1228      4.6340      5.4920      6.7136      8.3278      10.290    
  12.397      14.341      15.666      16.186      16.201      16.142      16.201      16.186      15.666      14.924    
  13.277      11.333      9.4747      7.9287      6.7478      5.9373      5.5219      5.5219      5.9373      6.7478    
  7.9287      9.4747      11.333      13.277      14.924      15.666      15.087      13.641      12.445      12.445    
  13.641      15.087      17.143      16.425      14.810      12.918      11.133      9.6368      8.4838      7.7366    
  7.4758      7.7366      8.4838      9.6368      11.133      12.918      14.810      16.425      17.143      16.186    
  13.641      10.832      9.6009      10.832      13.641      16.186      19.308      18.354      16.746      14.955    
  13.264      11.789      10.635      9.9845      9.9845      10.635      11.789      13.264      14.955      16.746    
  18.354      19.308      18.761      16.201      12.445      9.6009      9.6009      12.445      16.201      18.761    
  21.351      20.368      18.930      17.318      15.666      14.099      12.906      12.452      12.906      14.099    
  15.666      17.318      18.930      20.368      21.351      21.367      19.622      16.142      12.445      10.832    
  12.445      16.142      19.622      21.367      23.010      22.304      21.168      19.671      17.856      15.975    
  14.709      14.709      15.975      17.856      19.671      21.168      22.304      23.010      23.097      22.120    
  19.622      16.201      13.641      13.641      16.201      19.622      22.120      23.097      24.262      23.984    
  23.097      21.367      18.761      16.186      15.087      16.186      18.761      21.367      23.097      23.984    
  24.262      23.984      23.097      21.367      18.761      16.186      15.087      16.186      18.761      21.367    
  23.097      23.984      24.089      23.928      21.514      16.861      11.919      9.7568      11.919      16.861    
  21.514      23.928      24.089      23.010      21.397      19.548      17.632      15.801      14.386      13.840    
  14.386      15.801      17.632      19.548      21.397      23.010      23.928      22.219      17.185      10.156    
  4.8621      4.8621      10.156      17.185      22.219      23.928      23.097      21.168      18.930      16.746    
  14.810      13.277      12.397      12.397      13.277      14.810      16.746      18.930      21.168      23.097    
  21.514      17.185      9.4383      1.4885     -1.9327      1.4885      9.4383      17.185      21.514      22.120    
  20.421      17.993      15.541      13.419      11.764      10.675      10.289      10.675      11.764      13.419    
  15.541      17.993      20.421      22.120      16.861      10.156      1.4885     -4.7503     -4.7503      1.4885    
  10.156      16.861      19.622      19.018      16.782      14.246      11.961      10.175      8.9386      8.2930    
  8.2930      8.9386      10.175      11.961      14.246      16.782      19.018      19.622      11.919      4.8621    
 -1.9327     -4.7503     -1.9327      4.8621      11.919      16.201      16.968      15.337      12.946      10.625    
  8.7491      7.4093      6.5963      6.3212      6.5963      7.4093      8.7491      10.625      12.946      15.337    
  16.968      16.201      9.7568      4.8621      1.4885      1.4885      4.8621      9.7568      13.641      14.973    
  13.905      11.734      9.4759      7.5737      6.1774      5.2659      4.8121      4.8121      5.2659      6.1774    
  7.5737      9.4759      11.734      13.905      14.973      13.641      11.919      10.156      9.4383      10.156    
  11.919      13.641      14.128      12.967      10.828      8.5927      6.6758      5.2451      4.2769      3.7149    
  3.5304      3.7149      4.2769      5.2451      6.6758      8.5927      10.828      12.967      14.128      13.641    
  16.861      17.185      17.185      16.861      16.201      14.973      12.967      10.488      8.1036      6.1030    
  4.6125      3.5910      2.9556      2.6521      2.6521      2.9556      3.5910      4.6125      6.1030      8.1036    
  10.488      12.967      14.973      16.201      21.514      22.219      21.514      19.622      16.968      13.905    
  10.828      8.1036      5.9058      4.2932      3.1889      2.4812      2.0906      1.9669      2.0906      2.4812    
  3.1889      4.2932      5.9058      8.1036      10.828      13.905      16.968      19.622      23.928      23.928    
  22.120      19.018      15.337      11.734      8.5927      6.1030      4.2932      3.0572      2.2554      1.7818    
  1.5654      1.5654      1.7818      2.2554      3.0572      4.2932      6.1030      8.5927      11.734      15.337    
  19.018      22.120      24.089      23.097      20.421      16.782      12.946      9.4759      6.6758      4.6125    
  3.1889      2.2554      1.6839      1.3812      1.2875      1.3812      1.6839      2.2554      3.1889      4.6125    
  6.6758      9.4759      12.946      16.782      20.421      23.097      23.010      21.168      17.993      14.246    
  10.625      7.5737      5.2451      3.5910      2.4812      1.7818      1.3812      1.2008      1.2008      1.3812    
  1.7818      2.4812      3.5910      5.2451      7.5737      10.625      14.246      17.993      21.168      23.010    
  21.397      18.930      15.541      11.961      8.7491      6.1774      4.2769      2.9556      2.0906      1.5654    
  1.2875      1.2008      1.2875      1.5654      2.0906      2.9556      4.2769      6.1774      8.7491      11.961    
  15.541      18.930      21.397      22.304      19.548      16.746      13.419      10.175      7.4093      5.2659    
  3.7149      2.6521      1.9669      1.5654      1.3812      1.3812      1.5654      1.9669      2.6521      3.7149    
  5.2659      7.4093      10.175      13.419      16.746      19.548      21.168      21.168      17.632      14.810    
  11.764      8.9386      6.5963      4.8121      3.5304      2.6521      2.0906      1.7818      1.6839      1.7818    
  2.0906      2.6521      3.5304      4.8121      6.5963      8.9386      11.764      14.810      17.632      19.671    
  20.421      19.671      15.801      13.277      10.675      8.2930      6.3212      4.8121      3.7149      2.9556    
  2.4812      2.2554      2.2554      2.4812      2.9556      3.7149      4.8121      6.3212      8.2930      10.675    
  13.277      15.801      17.856      19.018      19.018      17.856      14.386      12.397      10.289      8.2930    
  6.5963      5.2659      4.2769      3.5910      3.1889      3.0572      3.1889      3.5910      4.2769      5.2659    
  6.5963      8.2930      10.289      12.397      14.386      15.975      16.968      17.304      16.968      15.975    
  13.840      12.397      10.675      8.9386      7.4093      6.1774      5.2451      4.6125      4.2932      4.2932    
  4.6125      5.2451      6.1774      7.4093      8.9386      10.675      12.397      13.840      14.709      14.973    
  14.949      14.949      14.973      14.709      14.386      13.277      11.764      10.175      8.7491      7.5737    
  6.6758      6.1030      5.9058      6.1030      6.6758      7.5737      8.7491      10.175      11.764      13.277    
  14.386      14.709      14.128      13.194      12.747      13.194      14.128      14.709      15.801      14.810    
  13.419      11.961      10.625      9.4759      8.5927      8.1036      8.1036      8.5927      9.4759      10.625    
  11.961      13.419      14.810      15.801      15.975      14.973      13.194      11.781      11.781      13.194    
  14.973      15.975      17.632      16.746      15.541      14.246      12.946      11.734      10.828      10.488    
  10.828      11.734      12.946      14.246      15.541      16.746      17.632      17.856      16.968      14.949    
  12.747      11.781      12.747      14.949      16.968      17.856      19.548      18.930      17.993      16.782    
  15.337      13.905      12.967      12.967      13.905      15.337      16.782      17.993      18.930      19.548    
  19.671      19.018      17.304      14.949      13.194      13.194      14.949      17.304      19.018      19.671    
  21.397      21.168      20.421      19.018      16.968      14.973      14.128      14.973      16.968      19.018    
  20.421      21.168      21.397      21.168      20.421      19.018      16.968      14.973      14.128      14.973    
  16.968      19.018      20.421      21.168      23.010      23.097      22.120      19.622      16.201      13.641    
  13.641      16.201      19.622      22.120      23.097      23.010      22.304      21.168      19.671      17.856    
  15.975      14.709      14.709      15.975      17.856      19.671      21.168      22.304      22.233      20.955    
  16.861      11.102      6.7716      6.7716      11.102      16.861      20.955      22.233      21.351      19.548    
  17.475      15.475      13.710      12.318      11.524      11.524      12.318      13.710      15.475      17.475    
  19.548      21.351      20.955      17.118      10.156      3.0021     -.76489E-01  3.0021      10.156      17.118    
  20.955      21.367      19.671      17.318      14.955      12.918      11.333      10.290      9.9211      10.290    
  11.333      12.918      14.955      17.318      19.671      21.367      16.861      10.156      1.4886     -4.7503    
 -4.7503      1.4885      10.156      16.861      19.622      19.018      16.782      14.246      11.961      10.175    
  8.9386      8.2930      8.2930      8.9386      10.175      11.961      14.246      16.782      19.018      19.622    
  11.102      3.0021     -4.7503     -7.9597     -4.7503      3.0021      11.102      16.142      17.304      15.784    
  13.365      10.984      9.0467      7.6611      6.8198      6.5349      6.8198      7.6611      9.0467      10.984    
  13.365      15.784      17.304      16.142      6.7716     -.76489E-01 -4.7503     -4.7503     -.76486E-01  6.7716    
  12.445      14.949      14.414      12.339      10.033      8.0391      6.5626      5.5966      5.1144      5.1144    
  5.5966      6.5626      8.0391      10.033      12.339      14.414      14.949      12.445      6.7716      3.0021    
  1.4885      3.0021      6.7716      10.832      13.194      13.118      11.355      9.1713      7.1876      5.6695    
  4.6336      4.0289      3.8295      4.0289      4.6336      5.6695      7.1876      9.1713      11.355      13.118    
  13.194      10.832      11.102      10.156      10.156      11.102      12.445      13.194      12.576      10.736    
  8.5470      6.5501      4.9976      3.9152      3.2352      2.9071      2.9071      3.2352      3.9152      4.9976    
  6.5501      8.5470      10.736      12.576      13.194      12.445      16.861      17.118      16.861      16.142    
  14.949      13.118      10.736      8.3171      6.2057      4.5779      3.4369      2.6957      2.2810      2.1484    
  2.2810      2.6957      3.4369      4.5779      6.2057      8.3171      10.736      13.118      14.949      16.142    
  20.955      20.955      19.622      17.304      14.414      11.355      8.5470      6.2057      4.4355      3.1993    
  2.3850      1.8969      1.6714      1.6714      1.8969      2.3850      3.1993      4.4355      6.2057      8.5470    
  11.355      14.414      17.304      19.622      22.233      21.367      19.018      15.784      12.339      9.1713    
  6.5501      4.5779      3.1993      2.2841      1.7155      1.4112      1.3167      1.4112      1.7155      2.2841    
  3.1993      4.5779      6.5501      9.1713      12.339      15.784      19.018      21.367      21.351      19.671    
  16.782      13.365      10.033      7.1876      4.9976      3.4369      2.3850      1.7155      1.3287      1.1542    
  1.1542      1.3287      1.7155      2.3850      3.4369      4.9976      7.1876      10.033      13.365      16.782    
  19.671      21.351      19.548      17.318      14.246      10.984      8.0391      5.6695      3.9152      2.6957    
  1.8969      1.4112      1.1542      1.0741      1.1542      1.4112      1.8969      2.6957      3.9152      5.6695    
  8.0391      10.984      14.246      17.318      19.548      20.368      17.475      14.955      11.961      9.0467    
  6.5626      4.6336      3.2352      2.2810      1.6714      1.3167      1.1542      1.1542      1.3167      1.6714    
  2.2810      3.2352      4.6336      6.5626      9.0467      11.961      14.955      17.475      18.930      18.930    
  15.475      12.918      10.175      7.6611      5.5966      4.0289      2.9071      2.1484      1.6714      1.4112    
  1.3287      1.4112      1.6714      2.1484      2.9071      4.0289      5.5966      7.6611      10.175      12.918    
  15.475      17.318      17.993      17.318      13.710      11.333      8.9386      6.8198      5.1144      3.8295    
  2.9071      2.2810      1.8969      1.7155      1.7155      1.8969      2.2810      2.9071      3.8295      5.1144    
  6.8198      8.9386      11.333      13.710      15.666      16.782      16.782      15.666      12.318      10.290    
  8.2930      6.5349      5.1144      4.0289      3.2352      2.6957      2.3850      2.2841      2.3850      2.6957    
  3.2352      4.0289      5.1144      6.5349      8.2930      10.290      12.318      14.099      15.337      15.784    
  15.337      14.099      11.524      9.9211      8.2930      6.8198      5.5966      4.6336      3.9152      3.4369    
  3.1993      3.1993      3.4369      3.9152      4.6336      5.5966      6.8198      8.2930      9.9211      11.524    
  12.906      13.905      14.414      14.414      13.905      12.906      11.524      10.290      8.9386      7.6611    
  6.5626      5.6695      4.9976      4.5779      4.4355      4.5779      4.9976      5.6695      6.5626      7.6611    
  8.9386      10.290      11.524      12.452      12.967      13.118      13.128      13.118      12.967      12.452    
  12.318      11.333      10.175      9.0467      8.0391      7.1876      6.5501      6.2057      6.2057      6.5501    
  7.1876      8.0391      9.0467      10.175      11.333      12.318      12.906      12.967      12.576      12.164    
  12.164      12.576      12.967      12.906      13.710      12.918      11.961      10.984      10.033      9.1713    
  8.5470      8.3171      8.5470      9.1713      10.033      10.984      11.961      12.918      13.710      14.099    
  13.905      13.118      12.164      11.732      12.164      13.118      13.905      14.099      15.475      14.955    
  14.246      13.365      12.339      11.355      10.736      10.736      11.355      12.339      13.365      14.246    
  14.955      15.475      15.666      15.337      14.414      13.128      12.164      12.164      13.128      14.414    
  15.337      15.666      17.475      17.318      16.782      15.784      14.414      13.118      12.576      13.118    
  14.414      15.784      16.782      17.318      17.475      17.318      16.782      15.784      14.414      13.118    
  12.576      13.118      14.414      15.784      16.782      17.318      19.548      19.671      19.018      17.304    
  14.949      13.194      13.194      14.949      17.304      19.018      19.671      19.548      18.930      17.993    
  16.782      15.337      13.905      12.967      12.967      13.905      15.337      16.782      17.993      18.930    
  21.351      21.367      19.622      16.142      12.445      10.832      12.445      16.142      19.622      21.367    
  21.351      20.368      18.930      17.318      15.666      14.099      12.906      12.452      12.906      14.099    
  15.666      17.318      18.930      20.368      19.414      16.869      11.919      6.7716      4.5519      6.7716    
  11.919      16.869      19.414      19.308      17.632      15.475      13.354      11.548      10.147      9.2303    
  8.9074      9.2303      10.147      11.548      13.354      15.475      17.632      19.308      16.869      11.691    
  4.8621     -.76497E-01 -.76487E-01  4.8621      11.691      16.869      18.761      17.856      15.666      13.264    
  11.133      9.4747      8.3278      7.7305      7.7305      8.3278      9.4747      11.133      13.264      15.666    
  17.856      18.761      11.919      4.8621     -1.9327     -4.7503     -1.9327      4.8621      11.919      16.201    
  16.968      15.337      12.946      10.625      8.7491      7.4093      6.5963      6.3212      6.5963      7.4093    
  8.7491      10.625      12.946      15.337      16.968      16.201      6.7716     -.76497E-01 -4.7503     -4.7503    
 -.76488E-01  6.7716      12.445      14.949      14.414      12.339      10.033      8.0391      6.5626      5.5966    
  5.1144      5.1144      5.5966      6.5626      8.0391      10.033      12.339      14.414      14.949      12.445    
  4.5519     -.76487E-01 -1.9327     -.76488E-01  4.5519      9.6009      12.747      13.128      11.533      9.3760    
  7.3712      5.8219      4.7614      4.1413      3.9364      4.1413      4.7614      5.8219      7.3712      9.3760    
  11.533      13.128      12.747      9.6009      6.7716      4.8621      4.8621      6.7716      9.6009      11.781    
  12.164      10.814      8.7720      6.7935      5.2108      4.0949      3.3900      3.0481      3.0481      3.3900    
  4.0949      5.2108      6.7935      8.7720      10.814      12.164      11.781      9.6009      11.919      11.691    