Si                                      
   5.46800000000000     
     0.000000    0.500000    0.500000
     0.500000    0.000000    0.500000
     0.500000    0.500000    0.000000
   Si
     2
Direct
  0.875000  0.875000  0.875000
  0.125000  0.125000  0.125000
 
   24   24   24
 0.25317478740E+02 0.25023703562E+02 0.24088682855E+02 0.22233047697E+02 0.19414243412E+02
 0.16614459962E+02 0.15416414973E+02 0.16614459728E+02 0.19414249090E+02 0.22233047175E+02
 0.24088679349E+02 0.25023703385E+02 0.25317481749E+02 0.25023703385E+02 0.24088679349E+02
 0.22233047175E+02 0.19414249090E+02 0.16614459728E+02 0.15416414973E+02 0.16614459962E+02
 0.19414243412E+02 0.22233047697E+02 0.24088682855E+02 0.25023703562E+02 0.25023703562E+02
 0.25103274658E+02 0.23928463178E+02 0.20955371951E+02 0.16869101748E+02 0.13796715293E+02
 0.13796710386E+02 0.16869101386E+02 0.20955381480E+02 0.23928462964E+02 0.25103269769E+02
 0.25023703365E+02 0.24261735339E+02 0.23009937068E+02 0.21351089277E+02 0.19308376310E+02
 0.17142621531E+02 0.15666327032E+02 0.15666326010E+02 0.17142620685E+02 0.19308376637E+02
 0.21351090687E+02 0.23009936688E+02 0.24261733898E+02 0.24088682855E+02 0.23928463178E+02
 0.21513777058E+02 0.16860610863E+02 0.11919314723E+02 0.97568170224E+01 0.11919306859E+02
 0.16860610942E+02 0.21513786662E+02 0.23928463290E+02 0.24088678632E+02 0.23009937304E+02
 0.21396884372E+02 0.19548172699E+02 0.17632307674E+02 0.15800843742E+02 0.14386288304E+02
 0.13839778742E+02 0.14386288766E+02 0.15800843195E+02 0.17632307566E+02 0.19548172743E+02
 0.21396884667E+02 0.23009936688E+02 0.22233047697E+02 0.20955371951E+02 0.16860610863E+02
 0.11102404445E+02 0.67716046109E+01 0.67716033967E+01 0.11102394401E+02 0.16860610525E+02
 0.20955380662E+02 0.22233047456E+02 0.21351088961E+02 0.19548172676E+02 0.17475462734E+02
 0.15474678384E+02 0.13710222605E+02 0.12317739473E+02 0.11523567638E+02 0.11523566904E+02
 0.12317739415E+02 0.13710222299E+02 0.15474678989E+02 0.17475462306E+02 0.19548172743E+02
 0.21351090687E+02 0.19414243412E+02 0.16869101748E+02 0.11919314723E+02 0.67716046109E+01
 0.45519202426E+01 0.67716052358E+01 0.11919305500E+02 0.16869100894E+02 0.19414249206E+02
 0.19308376256E+02 0.17632308529E+02 0.15474677868E+02 0.13353998131E+02 0.11547731367E+02
 0.10146853114E+02 0.92302723354E+01 0.89073626450E+01 0.92302726326E+01 0.10146853024E+02
 0.11547731344E+02 0.13353997472E+02 0.15474678989E+02 0.17632307566E+02 0.19308376637E+02
 0.16614459962E+02 0.13796715293E+02 0.97568170224E+01 0.67716033967E+01 0.67716052358E+01
 0.97568148320E+01 0.13796710961E+02 0.16614460201E+02 0.17142621999E+02 0.15800843141E+02
 0.13710222985E+02 0.11547731644E+02 0.96820073327E+01 0.82436924559E+01 0.72511430549E+01
 0.67372024727E+01 0.67372019027E+01 0.72511434748E+01 0.82436917994E+01 0.96820081016E+01
 0.11547731344E+02 0.13710222299E+02 0.15800843195E+02 0.17142620685E+02 0.15416414973E+02
 0.13796710386E+02 0.11919306859E+02 0.11102394401E+02 0.11919305500E+02 0.13796710961E+02
 0.15416413602E+02 0.15666326478E+02 0.14386288668E+02 0.12317739685E+02 0.10146852301E+02
 0.82436928181E+01 0.67697903800E+01 0.57269412111E+01 0.50988390175E+01 0.48886079743E+01
 0.50988390840E+01 0.57269411084E+01 0.67697908459E+01 0.82436917994E+01 0.10146853024E+02
 0.12317739415E+02 0.14386288766E+02 0.15666326010E+02 0.16614459728E+02 0.16869101386E+02
 0.16860610942E+02 0.16860610525E+02 0.16869100894E+02 0.16614460201E+02 0.15666326478E+02
 0.13839778944E+02 0.11523567090E+02 0.92302729842E+01 0.72511431372E+01 0.57269408386E+01
 0.46413705080E+01 0.39416773406E+01 0.35990399136E+01 0.35990395803E+01 0.39416777663E+01
 0.46413699644E+01 0.57269411084E+01 0.72511434748E+01 0.92302726326E+01 0.11523566904E+02
 0.13839778742E+02 0.15666327032E+02 0.19414249090E+02 0.20955381480E+02 0.21513786662E+02
 0.20955380662E+02 0.19414249206E+02 0.17142621999E+02 0.14386288668E+02 0.11523567090E+02
 0.89073625776E+01 0.67372020960E+01 0.50988394361E+01 0.39416773734E+01 0.31767103602E+01
 0.27430295280E+01 0.26035361198E+01 0.27430295023E+01 0.31767102324E+01 0.39416777663E+01
 0.50988390840E+01 0.67372019027E+01 0.89073626450E+01 0.11523567638E+02 0.14386288304E+02
 0.17142621531E+02 0.22233047175E+02 0.23928462964E+02 0.23928463290E+02 0.22233047456E+02
 0.19308376256E+02 0.15800843141E+02 0.12317739685E+02 0.92302729842E+01 0.67372020960E+01
 0.48886077319E+01 0.35990397394E+01 0.27430295745E+01 0.22256709620E+01 0.19850364840E+01
 0.19850364913E+01 0.22256710491E+01 0.27430295023E+01 0.35990395803E+01 0.48886079743E+01
 0.67372024727E+01 0.92302723354E+01 0.12317739473E+02 0.15800843742E+02 0.19308376310E+02
 0.24088679349E+02 0.25103269769E+02 0.24088678632E+02 0.21351088961E+02 0.17632308529E+02
 0.13710222985E+02 0.10146852301E+02 0.72511431372E+01 0.50988394361E+01 0.35990397394E+01
 0.26035360577E+01 0.19850365020E+01 0.16530481456E+01 0.15493965783E+01 0.16530480727E+01
 0.19850364913E+01 0.26035361198E+01 0.35990399136E+01 0.50988390175E+01 0.72511430549E+01
 0.10146853114E+02 0.13710222605E+02 0.17632307674E+02 0.21351089277E+02 0.25023703385E+02
 0.25023703365E+02 0.23009937304E+02 0.19548172676E+02 0.15474677868E+02 0.11547731644E+02
 0.82436928181E+01 0.57269408386E+01 0.39416773734E+01 0.27430295745E+01 0.19850365020E+01
 0.15493965347E+01 0.13528109915E+01 0.13528109755E+01 0.15493965783E+01 0.19850364840E+01
 0.27430295280E+01 0.39416773406E+01 0.57269412111E+01 0.82436924559E+01 0.11547731367E+02
 0.15474678384E+02 0.19548172699E+02 0.23009937068E+02 0.25317481749E+02 0.24261735339E+02
 0.21396884372E+02 0.17475462734E+02 0.13353998131E+02 0.96820073327E+01 0.67697903800E+01
 0.46413705080E+01 0.31767103602E+01 0.22256709620E+01 0.16530481456E+01 0.13528109915E+01
 0.12597673042E+01 0.13528109915E+01 0.16530481456E+01 0.22256709620E+01 0.31767103602E+01
 0.46413705080E+01 0.67697903800E+01 0.96820073327E+01 0.13353998131E+02 0.17475462734E+02
 0.21396884372E+02 0.24261735339E+02 0.25023703385E+02 0.23009937068E+02 0.19548172699E+02
 0.15474678384E+02 0.11547731367E+02 0.82436924559E+01 0.57269412111E+01 0.39416773406E+01
 0.27430295280E+01 0.19850364840E+01 0.15493965783E+01 0.13528109755E+01 0.13528109915E+01
 0.15493965347E+01 0.19850365020E+01 0.27430295745E+01 0.39416773734E+01 0.57269408386E+01
 0.82436928181E+01 0.11547731644E+02 0.15474677868E+02 0.19548172676E+02 0.23009937304E+02
 0.25023703365E+02 0.24088679349E+02 0.21351089277E+02 0.17632307674E+02 0.13710222605E+02
 0.10146853114E+02 0.72511430549E+01 0.50988390175E+01 0.35990399136E+01 0.26035361198E+01
 0.19850364913E+01 0.16530480727E+01 0.15493965783E+01 0.16530481456E+01 0.19850365020E+01
 0.26035360577E+01 0.35990397394E+01 0.50988394361E+01 0.72511431372E+01 0.10146852301E+02
 0.13710222985E+02 0.17632308529E+02 0.21351088961E+02 0.24088678632E+02 0.25103269769E+02
 0.22233047175E+02 0.19308376310E+02 0.15800843742E+02 0.12317739473E+02 0.92302723354E+01
 0.67372024727E+01 0.48886079743E+01 0.35990395803E+01 0.27430295023E+01 0.22256710491E+01
 0.19850364913E+01 0.19850364840E+01 0.22256709620E+01 0.27430295745E+01 0.35990397394E+01
 0.48886077319E+01 0.67372020960E+01 0.92302729842E+01 0.12317739685E+02 0.15800843141E+02
 0.19308376256E+02 0.22233047456E+02 0.23928463290E+02 0.23928462964E+02 0.19414249090E+02
 0.17142621531E+02 0.14386288304E+02 0.11523567638E+02 0.89073626450E+01 0.67372019027E+01
 0.50988390840E+01 0.39416777663E+01 0.31767102324E+01 0.27430295023E+01 0.26035361198E+01
 0.27430295280E+01 0.31767103602E+01 0.39416773734E+01 0.50988394361E+01 0.67372020960E+01
 0.89073625776E+01 0.11523567090E+02 0.14386288668E+02 0.17142621999E+02 0.19414249206E+02
 0.20955380662E+02 0.21513786662E+02 0.20955381480E+02 0.16614459728E+02 0.15666327032E+02
 0.13839778742E+02 0.11523566904E+02 0.92302726326E+01 0.72511434748E+01 0.57269411084E+01
 0.46413699644E+01 0.39416777663E+01 0.35990395803E+01 0.35990399136E+01 0.39416773406E+01
 0.46413705080E+01 0.57269408386E+01 0.72511431372E+01 0.92302729842E+01 0.11523567090E+02
 0.13839778944E+02 0.15666326478E+02 0.16614460201E+02 0.16869100894E+02 0.16860610525E+02
 0.16860610942E+02 0.16869101386E+02 0.15416414973E+02 0.15666326010E+02 0.14386288766E+02
 0.12317739415E+02 0.10146853024E+02 0.82436917994E+01 0.67697908459E+01 0.57269411084E+01
 0.50988390840E+01 0.48886079743E+01 0.50988390175E+01 0.57269412111E+01 0.67697903800E+01
 0.82436928181E+01 0.10146852301E+02 0.12317739685E+02 0.14386288668E+02 0.15666326478E+02
 0.15416413602E+02 0.13796710961E+02 0.11919305500E+02 0.11102394401E+02 0.11919306859E+02
 0.13796710386E+02 0.16614459962E+02 0.17142620685E+02 0.15800843195E+02 0.13710222299E+02
 0.11547731344E+02 0.96820081016E+01 0.82436917994E+01 0.72511434748E+01 0.67372019027E+01
 0.67372024727E+01 0.72511430549E+01 0.82436924559E+01 0.96820073327E+01 0.11547731644E+02
 0.13710222985E+02 0.15800843141E+02 0.17142621999E+02 0.16614460201E+02 0.13796710961E+02
 0.97568148320E+01 0.67716052358E+01 0.67716033967E+01 0.97568170224E+01 0.13796715293E+02
 0.19414243412E+02 0.19308376637E+02 0.17632307566E+02 0.15474678989E+02 0.13353997472E+02
 0.11547731344E+02 0.10146853024E+02 0.92302726326E+01 0.89073626450E+01 0.92302723354E+01
 0.10146853114E+02 0.11547731367E+02 0.13353998131E+02 0.15474677868E+02 0.17632308529E+02
 0.19308376256E+02 0.19414249206E+02 0.16869100894E+02 0.11919305500E+02 0.67716052358E+01
 0.45519202426E+01 0.67716046109E+01 0.11919314723E+02 0.16869101748E+02 0.22233047697E+02
 0.21351090687E+02 0.19548172743E+02 0.17475462306E+02 0.15474678989E+02 0.13710222299E+02
 0.12317739415E+02 0.11523566904E+02 0.11523567638E+02 0.12317739473E+02 0.13710222605E+02
 0.15474678384E+02 0.17475462734E+02 0.19548172676E+02 0.21351088961E+02 0.22233047456E+02
 0.20955380662E+02 0.16860610525E+02 0.11102394401E+02 0.67716033967E+01 0.67716046109E+01
 0.11102404445E+02 0.16860610863E+02 0.20955371951E+02 0.24088682855E+02 0.23009936688E+02
 0.21396884667E+02 0.19548172743E+02 0.17632307566E+02 0.15800843195E+02 0.14386288766E+02
 0.13839778742E+02 0.14386288304E+02 0.15800843742E+02 0.17632307674E+02 0.19548172699E+02
 0.21396884372E+02 0.23009937304E+02 0.24088678632E+02 0.23928463290E+02 0.21513786662E+02
 0.16860610942E+02 0.11919306859E+02 0.97568170224E+01 0.11919314723E+02 0.16860610863E+02
 0.21513777058E+02 0.23928463178E+02 0.25023703562E+02 0.24261733898E+02 0.23009936688E+02
 0.21351090687E+02 0.19308376637E+02 0.17142620685E+02 0.15666326010E+02 0.15666327032E+02
 0.17142621531E+02 0.19308376310E+02 0.21351089277E+02 0.23009937068E+02 0.24261735339E+02
 0.25023703365E+02 0.25103269769E+02 0.23928462964E+02 0.20955381480E+02 0.16869101386E+02
 0.13796710386E+02 0.13796715293E+02 0.16869101748E+02 0.20955371951E+02 0.23928463178E+02
 0.25103274658E+02 0.25023705691E+02 0.25103270035E+02 0.23928459623E+02 0.20955380263E+02
 0.16869106238E+02 0.13796711009E+02 0.13796709165E+02 0.16869100954E+02 0.20955381205E+02
 0.23928463002E+02 0.25103269581E+02 0.25023703410E+02 0.24261735244E+02 0.23009937068E+02
 0.21351089091E+02 0.19308376455E+02 0.17142621259E+02 0.15666326964E+02 0.15666324789E+02
 0.17142621847E+02 0.19308381128E+02 0.21351089389E+02 0.23009933134E+02 0.24261735356E+02
 0.25103270035E+02 0.24879751152E+02 0.22218740671E+02 0.17118473705E+02 0.11691142568E+02
 0.93116168082E+01 0.11691143157E+02 0.17118464023E+02 0.22218740269E+02 0.24879756944E+02
 0.25103269481E+02 0.23984198227E+02 0.22304278589E+02 0.20367587818E+02 0.18354168193E+02
 0.16424811035E+02 0.14923782110E+02 0.14340818650E+02 0.14923782280E+02 0.16424812016E+02
 0.18354168368E+02 0.20367585906E+02 0.22304279170E+02 0.23984199463E+02 0.23928459623E+02
 0.22218740671E+02 0.17185403368E+02 0.10156422540E+02 0.48621037337E+01 0.48621127073E+01
 0.10156422951E+02 0.17185393050E+02 0.22218740625E+02 0.23928463782E+02 0.23097162539E+02
 0.21168121707E+02 0.18929853639E+02 0.16746002682E+02 0.14810261164E+02 0.13276536723E+02
 0.12397320721E+02 0.12397320199E+02 0.13276537398E+02 0.14810260328E+02 0.16746003454E+02
 0.18929853279E+02 0.21168122099E+02 0.23097162249E+02 0.20955380263E+02 0.17118473705E+02
 0.10156422540E+02 0.30021035543E+01 -.76488521153E-01 0.30021127697E+01 0.10156423228E+02
 0.17118465597E+02 0.20955381127E+02 0.21366657141E+02 0.19670928233E+02 0.17317967006E+02
 0.14955034841E+02 0.12918341574E+02 0.11332639272E+02 0.10290264256E+02 0.99211024307E+01
 0.10290264515E+02 0.11332638982E+02 0.12918342643E+02 0.14955033793E+02 0.17317967687E+02
 0.19670927276E+02 0.21366656672E+02 0.16869106238E+02 0.11691142568E+02 0.48621037337E+01
 -.76488521153E-01 -.76485378439E-01 0.48621114865E+01 0.11691144220E+02 0.16869100716E+02
 0.18760852814E+02 0.17856053640E+02 0.15666005333E+02 0.13264483769E+02 0.11132511279E+02
 0.94747177003E+01 0.83277989228E+01 0.77305499895E+01 0.77305491972E+01 0.83277999186E+01
 0.94747168136E+01 0.11132511801E+02 0.13264483680E+02 0.15666005456E+02 0.17856053911E+02
 0.18760852405E+02 0.13796711009E+02 0.93116168082E+01 0.48621127073E+01 0.30021127697E+01
 0.48621114865E+01 0.93116234817E+01 0.13796711229E+02 0.16186070071E+02 0.15974969742E+02
 0.14098710572E+02 0.11788902988E+02 0.96367985221E+01 0.79287080581E+01 0.67135864676E+01
 0.59778091736E+01 0.57298183447E+01 0.59778093000E+01 0.67135859826E+01 0.79287088617E+01
 0.96367979064E+01 0.11788903484E+02 0.14098710377E+02 0.15974970669E+02 0.16186071433E+02
 0.13796709165E+02 0.11691143157E+02 0.10156422951E+02 0.10156423228E+02 0.11691144220E+02
 0.13796711229E+02 0.15087427483E+02 0.14708575291E+02 0.12905975676E+02 0.10635240164E+02
 0.84838348977E+01 0.67477540906E+01 0.54920103941E+01 0.46761236367E+01 0.42723328703E+01
 0.42723322998E+01 0.46761242586E+01 0.54920100001E+01 0.67477541817E+01 0.84838349260E+01
 0.10635240355E+02 0.12905975975E+02 0.14708574715E+02 0.15087428706E+02 0.16869100954E+02
 0.17118464023E+02 0.17185393050E+02 0.17118465597E+02 0.16869100716E+02 0.16186070071E+02
 0.14708575291E+02 0.12452240668E+02 0.99845407843E+01 0.77365830147E+01 0.59372691188E+01
 0.46340305549E+01 0.37617617296E+01 0.32603323155E+01 0.30972368871E+01 0.32603324239E+01
 0.37617614061E+01 0.46340309073E+01 0.59372688663E+01 0.77365832837E+01 0.99845402687E+01
 0.12452241531E+02 0.14708574679E+02 0.16186070642E+02 0.20955381205E+02 0.22218740269E+02
 0.22218740625E+02 0.20955381127E+02 0.18760852814E+02 0.15974969742E+02 0.12905975676E+02
 0.99845407843E+01 0.74758410430E+01 0.55219326171E+01 0.41227516433E+01 0.31799989572E+01
 0.26012933331E+01 0.23285110050E+01 0.23285107095E+01 0.26012936254E+01 0.31799988028E+01
 0.41227518321E+01 0.55219323265E+01 0.74758413447E+01 0.99845407491E+01 0.12905975972E+02
 0.15974969703E+02 0.18760852390E+02 0.23928463002E+02 0.24879756944E+02 0.23928463782E+02
 0.21366657141E+02 0.17856053640E+02 0.14098710572E+02 0.10635240164E+02 0.77365830147E+01
 0.55219326171E+01 0.39534235414E+01 0.28992122757E+01 0.22336996377E+01 0.18716486018E+01
 0.17580377202E+01 0.18716486264E+01 0.22336996073E+01 0.28992121714E+01 0.39534235510E+01
 0.55219327790E+01 0.77365829403E+01 0.10635239937E+02 0.14098710499E+02 0.17856054316E+02
 0.21366657245E+02 0.25103269581E+02 0.25103269481E+02 0.23097162539E+02 0.19670928233E+02
 0.15666005333E+02 0.11788902988E+02 0.84838348977E+01 0.59372691188E+01 0.41227516433E+01
 0.28992122757E+01 0.21166397480E+01 0.16612304351E+01 0.14548181919E+01 0.14548182538E+01
 0.16612303651E+01 0.21166398658E+01 0.28992123119E+01 0.41227516172E+01 0.59372687577E+01
 0.84838353876E+01 0.11788903288E+02 0.15666004851E+02 0.19670927963E+02 0.23097162976E+02
 0.25023703410E+02 0.23984198227E+02 0.21168121707E+02 0.17317967006E+02 0.13264483769E+02
 0.96367985221E+01 0.67477540906E+01 0.46340305549E+01 0.31799989572E+01 0.22336996377E+01
 0.16612304351E+01 0.13602518119E+01 0.12670110337E+01 0.13602518634E+01 0.16612303892E+01
 0.22336995734E+01 0.31799988278E+01 0.46340309338E+01 0.67477540176E+01 0.96367978827E+01
 0.13264484180E+02 0.17317967613E+02 0.21168121292E+02 0.23984197763E+02 0.24261735244E+02
 0.22304278589E+02 0.18929853639E+02 0.14955034841E+02 0.11132511279E+02 0.79287080581E+01
 0.54920103941E+01 0.37617617296E+01 0.26012933331E+01 0.18716486018E+01 0.14548181919E+01
 0.12670110337E+01 0.12670109537E+01 0.14548182458E+01 0.18716486056E+01 0.26012934927E+01
 0.37617615045E+01 0.54920102694E+01 0.79287085329E+01 0.11132511304E+02 0.14955034175E+02
 0.18929853747E+02 0.22304279024E+02 0.24261735407E+02 0.23009937068E+02 0.20367587818E+02
 0.16746002682E+02 0.12918341574E+02 0.94747177003E+01 0.67135864676E+01 0.46761236367E+01
 0.32603323155E+01 0.23285110050E+01 0.17580377202E+01 0.14548182538E+01 0.13602518634E+01
 0.14548182458E+01 0.17580377172E+01 0.23285108564E+01 0.32603325181E+01 0.46761237338E+01
 0.67135860952E+01 0.94747176907E+01 0.12918342025E+02 0.16746002565E+02 0.20367587594E+02
 0.23009937024E+02 0.23984197807E+02 0.21351089091E+02 0.18354168193E+02 0.14810261164E+02
 0.11332639272E+02 0.83277989228E+01 0.59778091736E+01 0.42723328703E+01 0.30972368871E+01
 0.23285107095E+01 0.18716486264E+01 0.16612303651E+01 0.16612303892E+01 0.18716486056E+01
 0.23285108564E+01 0.30972367540E+01 0.42723326542E+01 0.59778096827E+01 0.83277989095E+01
 0.11332638656E+02 0.14810261241E+02 0.18354168407E+02 0.21351089209E+02 0.23097163175E+02
 0.23097162974E+02 0.19308376455E+02 0.16424811035E+02 0.13276536723E+02 0.10290264256E+02
 0.77305499895E+01 0.57298183447E+01 0.42723322998E+01 0.32603324239E+01 0.26012936254E+01
 0.22336996073E+01 0.21166398658E+01 0.22336995734E+01 0.26012934927E+01 0.32603325181E+01
 0.42723326542E+01 0.57298178786E+01 0.77305496456E+01 0.10290265151E+02 0.13276536767E+02
 0.16424810089E+02 0.19308376527E+02 0.21366657456E+02 0.22119620640E+02 0.21366657139E+02
 0.17142621259E+02 0.14923782110E+02 0.12397320721E+02 0.99211024307E+01 0.77305491972E+01
 0.59778093000E+01 0.46761242586E+01 0.37617614061E+01 0.31799988028E+01 0.28992121714E+01
 0.28992123119E+01 0.31799988278E+01 0.37617615045E+01 0.46761237338E+01 0.59778096827E+01
 0.77305496456E+01 0.99211018202E+01 0.12397320457E+02 0.14923782428E+02 0.17142621766E+02
 0.18760851987E+02 0.19621807273E+02 0.19621807880E+02 0.18760852387E+02 0.15666326964E+02
 0.14340818650E+02 0.12397320199E+02 0.10290264515E+02 0.83277999186E+01 0.67135859826E+01
 0.54920100001E+01 0.46340309073E+01 0.41227518321E+01 0.39534235510E+01 0.41227516172E+01
 0.46340309338E+01 0.54920102694E+01 0.67135860952E+01 0.83277989095E+01 0.10290265151E+02
 0.12397320457E+02 0.14340818710E+02 0.15666326297E+02 0.16186070164E+02 0.16200610522E+02
 0.16142491017E+02 0.16200610122E+02 0.16186070280E+02 0.15666324789E+02 0.14923782280E+02
 0.13276537398E+02 0.11332638982E+02 0.94747168136E+01 0.79287088617E+01 0.67477541817E+01
 0.59372688663E+01 0.55219323265E+01 0.55219327790E+01 0.59372687577E+01 0.67477540176E+01
 0.79287085329E+01 0.94747176907E+01 0.11332638656E+02 0.13276536767E+02 0.14923782428E+02
 0.15666326297E+02 0.15087428625E+02 0.13641468976E+02 0.12445206183E+02 0.12445204434E+02
 0.13641469921E+02 0.15087428706E+02 0.17142621847E+02 0.16424812016E+02 0.14810260328E+02
 0.12918342643E+02 0.11132511801E+02 0.96367979064E+01 0.84838349260E+01 0.77365832837E+01
 0.74758413447E+01 0.77365829403E+01 0.84838353876E+01 0.96367978827E+01 0.11132511304E+02
 0.12918342025E+02 0.14810261241E+02 0.16424810089E+02 0.17142621766E+02 0.16186070164E+02
 0.13641468976E+02 0.10831585552E+02 0.96008919620E+01 0.10831585360E+02 0.13641468940E+02
 0.16186065987E+02 0.19308381128E+02 0.18354168368E+02 0.16746003454E+02 0.14955033793E+02
 0.13264483680E+02 0.11788903484E+02 0.10635240355E+02 0.99845402687E+01 0.99845407491E+01
 0.10635239937E+02 0.11788903288E+02 0.13264484180E+02 0.14955034175E+02 0.16746002565E+02
 0.18354168407E+02 0.19308376527E+02 0.18760851987E+02 0.16200610522E+02 0.12445206183E+02
 0.96008919620E+01 0.96008933683E+01 0.12445205000E+02 0.16200602298E+02 0.18760852404E+02
 0.21351089389E+02 0.20367585906E+02 0.18929853279E+02 0.17317967687E+02 0.15666005456E+02
 0.14098710377E+02 0.12905975975E+02 0.12452241531E+02 0.12905975972E+02 0.14098710499E+02
 0.15666004851E+02 0.17317967613E+02 0.18929853747E+02 0.20367587594E+02 0.21351089209E+02
 0.21366657456E+02 0.19621807273E+02 0.16142491017E+02 0.12445204434E+02 0.10831585360E+02
 0.12445205000E+02 0.16142480413E+02 0.19621807265E+02 0.21366666282E+02 0.23009933134E+02
 0.22304279170E+02 0.21168122099E+02 0.19670927276E+02 0.17856053911E+02 0.15974970669E+02
 0.14708574715E+02 0.14708574679E+02 0.15974969703E+02 0.17856054316E+02 0.19670927963E+02
 0.21168121292E+02 0.22304279024E+02 0.23009937024E+02 0.23097163175E+02 0.22119620640E+02
 0.19621807880E+02 0.16200610122E+02 0.13641469921E+02 0.13641468940E+02 0.16200602298E+02
 0.19621807265E+02 0.22119631687E+02 0.23097162247E+02 0.24261735356E+02 0.23984199463E+02
 0.23097162249E+02 0.21366656672E+02 0.18760852405E+02 0.16186071433E+02 0.15087428706E+02
 0.16186070642E+02 0.18760852390E+02 0.21366657245E+02 0.23097162976E+02 0.23984197763E+02
 0.24261735407E+02 0.23984197807E+02 0.23097162974E+02 0.21366657139E+02 0.18760852387E+02
 0.16186070280E+02 0.15087428706E+02 0.16186065987E+02 0.18760852404E+02 0.21366666282E+02
 0.23097162247E+02 0.23984193383E+02 0.24088677133E+02 0.23928463194E+02 0.21513790550E+02
 0.16860610877E+02 0.11919302567E+02 0.97568170405E+01 0.11919308367E+02 0.16860610957E+02
 0.21513787531E+02 0.23928463301E+02 0.24088678969E+02 0.23009937311E+02 0.21396884520E+02
 0.19548172707E+02 0.17632307948E+02 0.15800843751E+02 0.14386288419E+02 0.13839778752E+02
 0.14386289906E+02 0.15800843204E+02 0.17632303276E+02 0.19548172758E+02 0.21396888382E+02
 0.23009936702E+02 0.23928463194E+02 0.22218745300E+02 0.17185393410E+02 0.10156414237E+02
 0.48621113774E+01 0.48621169953E+01 0.10156422643E+02 0.17185393488E+02 0.22218740009E+02
 0.23928463755E+02 0.23097162369E+02 0.21168121677E+02 0.18929853564E+02 0.16746002697E+02
 0.14810261053E+02 0.13276536591E+02 0.12397320856E+02 0.12397320280E+02 0.13276537457E+02
 0.14810259179E+02 0.16746003231E+02 0.18929854585E+02 0.21168121916E+02 0.23097160800E+02
 0.21513790550E+02 0.17185393410E+02 0.94382982508E+01 0.14885473200E+01 -.19326680272E+01
 0.14885460399E+01 0.94383096864E+01 0.17185393159E+02 0.21513786696E+02 0.22119620480E+02
 0.20420512750E+02 0.17993064028E+02 0.15540920184E+02 0.13418626177E+02 0.11764072258E+02
 0.10674938325E+02 0.10288586759E+02 0.10674938622E+02 0.11764071788E+02 0.13418626935E+02
 0.15540919239E+02 0.17993065111E+02 0.20420511413E+02 0.22119621723E+02 0.16860610877E+02
 0.10156414237E+02 0.14885473200E+01 -.47503269529E+01 -.47503347936E+01 0.14885443206E+01
 0.10156423947E+02 0.16860609173E+02 0.19621807757E+02 0.19017756879E+02 0.16781961192E+02
 0.14245702580E+02 0.11961047824E+02 0.10175329433E+02 0.89385837079E+01 0.82930449016E+01
 0.82930437410E+01 0.89385845858E+01 0.10175328627E+02 0.11961048108E+02 0.14245702225E+02
 0.16781961403E+02 0.19017757436E+02 0.19621808576E+02 0.11919302567E+02 0.48621113774E+01
 -.19326680272E+01 -.47503347936E+01 -.19326769244E+01 0.48621115058E+01 0.11919305459E+02
 0.16200610379E+02 0.16968227699E+02 0.15337257694E+02 0.12946253376E+02 0.10625142974E+02
 0.87491353178E+01 0.74093066791E+01 0.65962570050E+01 0.63212450844E+01 0.65962572112E+01
 0.74093061990E+01 0.87491358449E+01 0.10625142258E+02 0.12946254104E+02 0.15337257069E+02
 0.16968227822E+02 0.16200609936E+02 0.97568170405E+01 0.48621169953E+01 0.14885460399E+01
 0.14885443206E+01 0.48621115058E+01 0.97568159307E+01 0.13641468837E+02 0.14972806425E+02
 0.13904714894E+02 0.11733612658E+02 0.94759190470E+01 0.75737363694E+01 0.61774438070E+01
 0.52659455628E+01 0.48121156399E+01 0.48121149872E+01 0.52659461054E+01 0.61774433911E+01
 0.75737366662E+01 0.94759187971E+01 0.11733612359E+02 0.13904714681E+02 0.14972805859E+02
 0.13641467785E+02 0.11919308367E+02 0.10156422643E+02 0.94383096864E+01 0.10156423947E+02
 0.11919305459E+02 0.13641468837E+02 0.14127676549E+02 0.12966921071E+02 0.10827869358E+02
 0.85926814194E+01 0.66758376738E+01 0.52451137834E+01 0.42769002121E+01 0.37148526586E+01
 0.35304172291E+01 0.37148528633E+01 0.42768998903E+01 0.52451141482E+01 0.66758371584E+01
 0.85926819652E+01 0.10827868853E+02 0.12966921176E+02 0.14127675629E+02 0.13641469609E+02
 0.16860610957E+02 0.17185393488E+02 0.17185393159E+02 0.16860609173E+02 0.16200610379E+02
 0.14972806425E+02 0.12966921071E+02 0.10488142623E+02 0.81035655354E+01 0.61030056389E+01
 0.46124964892E+01 0.35909554996E+01 0.29556208477E+01 0.26521471338E+01 0.26521466054E+01
 0.29556213083E+01 0.35909551140E+01 0.46124968286E+01 0.61030054645E+01 0.81035654579E+01
 0.10488142518E+02 0.12966921077E+02 0.14972806003E+02 0.16200610202E+02 0.21513787531E+02
 0.22218740009E+02 0.21513786696E+02 0.19621807757E+02 0.16968227699E+02 0.13904714894E+02
 0.10827869358E+02 0.81035655354E+01 0.59058406811E+01 0.42931612534E+01 0.31888534090E+01
 0.24812141483E+01 0.20905547395E+01 0.19668863302E+01 0.20905548066E+01 0.24812140419E+01
 0.31888535295E+01 0.42931610438E+01 0.59058409620E+01 0.81035652755E+01 0.10827869235E+02
 0.13904714893E+02 0.16968227859E+02 0.19621807257E+02 0.23928463301E+02 0.23928463755E+02
 0.22119620480E+02 0.19017756879E+02 0.15337257694E+02 0.11733612658E+02 0.85926814194E+01
 0.61030056389E+01 0.42931612534E+01 0.30572461241E+01 0.22554487143E+01 0.17817921171E+01
 0.15653781041E+01 0.15653781912E+01 0.17817920311E+01 0.22554488014E+01 0.30572460780E+01
 0.42931612600E+01 0.61030056187E+01 0.85926816712E+01 0.11733612052E+02 0.15337257799E+02
 0.19017757404E+02 0.22119620510E+02 0.24088678969E+02 0.23097162369E+02 0.20420512750E+02
 0.16781961192E+02 0.12946253376E+02 0.94759190470E+01 0.66758376738E+01 0.46124964892E+01
 0.31888534090E+01 0.22554487143E+01 0.16839270021E+01 0.13812402856E+01 0.12874714415E+01
 0.13812402529E+01 0.16839270095E+01 0.22554487113E+01 0.31888535028E+01 0.46124964494E+01
 0.66758373823E+01 0.94759193405E+01 0.12946253626E+02 0.16781960577E+02 0.20420512527E+02
 0.23097162999E+02 0.23009937311E+02 0.21168121677E+02 0.17993064028E+02 0.14245702580E+02
 0.10625142974E+02 0.75737363694E+01 0.52451137834E+01 0.35909554996E+01 0.24812141483E+01
 0.17817921171E+01 0.13812402856E+01 0.12007633565E+01 0.12007632393E+01 0.13812404291E+01
 0.17817919964E+01 0.24812141947E+01 0.35909553285E+01 0.52451142679E+01 0.75737360922E+01
 0.10625142541E+02 0.14245702894E+02 0.17993064668E+02 0.21168121183E+02 0.23009937043E+02
 0.21396884520E+02 0.18929853564E+02 0.15540920184E+02 0.11961047824E+02 0.87491353178E+01
 0.61774438070E+01 0.42769002121E+01 0.29556208477E+01 0.20905547395E+01 0.15653781041E+01
 0.12874714415E+01 0.12007632393E+01 0.12874714009E+01 0.15653780874E+01 0.20905548238E+01
 0.29556209608E+01 0.42768998431E+01 0.61774438125E+01 0.87491358975E+01 0.11961047590E+02
 0.15540919692E+02 0.18929853791E+02 0.21396884749E+02 0.22304278945E+02 0.19548172707E+02
 0.16746002697E+02 0.13418626177E+02 0.10175329433E+02 0.74093066791E+01 0.52659455628E+01
 0.37148526586E+01 0.26521471338E+01 0.19668863302E+01 0.15653781912E+01 0.13812402529E+01
 0.13812404291E+01 0.15653780874E+01 0.19668864055E+01 0.26521468209E+01 0.37148531001E+01
 0.52659456032E+01 0.74093061643E+01 0.10175329432E+02 0.13418626900E+02 0.16746002451E+02
 0.19548172447E+02 0.21168121183E+02 0.21168121265E+02 0.17632307948E+02 0.14810261053E+02
 0.11764072258E+02 0.89385837079E+01 0.65962570050E+01 0.48121156399E+01 0.35304172291E+01
 0.26521466054E+01 0.20905548066E+01 0.17817920311E+01 0.16839270095E+01 0.17817919964E+01
 0.20905548238E+01 0.26521468209E+01 0.35304169629E+01 0.48121153423E+01 0.65962576479E+01
 0.89385837988E+01 0.11764071689E+02 0.14810261151E+02 0.17632308199E+02 0.19670927833E+02
 0.20420512465E+02 0.19670927851E+02 0.15800843751E+02 0.13276536591E+02 0.10674938325E+02
 0.82930449016E+01 0.63212450844E+01 0.48121149872E+01 0.37148528633E+01 0.29556213083E+01
 0.24812140419E+01 0.22554488014E+01 0.22554487113E+01 0.24812141947E+01 0.29556209608E+01
 0.37148531001E+01 0.48121153423E+01 0.63212446104E+01 0.82930443835E+01 0.10674939130E+02
 0.13276536814E+02 0.15800843527E+02 0.17856054191E+02 0.19017757400E+02 0.19017757402E+02
 0.17856054295E+02 0.14386288419E+02 0.12397320856E+02 0.10288586759E+02 0.82930437410E+01
 0.65962572112E+01 0.52659461054E+01 0.42768998903E+01 0.35909551140E+01 0.31888535295E+01
 0.30572460780E+01 0.31888535028E+01 0.35909553285E+01 0.42768998431E+01 0.52659456032E+01
 0.65962576479E+01 0.82930443835E+01 0.10288585890E+02 0.12397320590E+02 0.14386288798E+02
 0.15974969975E+02 0.16968227710E+02 0.17303798886E+02 0.16968227105E+02 0.15974969837E+02
 0.13839778752E+02 0.12397320280E+02 0.10674938622E+02 0.89385845858E+01 0.74093061990E+01
 0.61774433911E+01 0.52451141482E+01 0.46124968286E+01 0.42931610438E+01 0.42931612600E+01
 0.46124964494E+01 0.52451142679E+01 0.61774438125E+01 0.74093061643E+01 0.89385837988E+01
 0.10674939130E+02 0.12397320590E+02 0.13839778555E+02 0.14708574830E+02 0.14972806235E+02
 0.14948624651E+02 0.14948623389E+02 0.14972805998E+02 0.14708575127E+02 0.14386289906E+02
 0.13276537457E+02 0.11764071788E+02 0.10175328627E+02 0.87491358449E+01 0.75737366662E+01
 0.66758371584E+01 0.61030054645E+01 0.59058409620E+01 0.61030056187E+01 0.66758373823E+01
 0.75737360922E+01 0.87491358975E+01 0.10175329432E+02 0.11764071689E+02 0.13276536814E+02
 0.14386288798E+02 0.14708574830E+02 0.14127676526E+02 0.13193644711E+02 0.12747067155E+02
 0.13193644921E+02 0.14127675261E+02 0.14708574771E+02 0.15800843204E+02 0.14810259179E+02
 0.13418626935E+02 0.11961048108E+02 0.10625142258E+02 0.94759187971E+01 0.85926819652E+01
 0.81035654579E+01 0.81035652755E+01 0.85926816712E+01 0.94759193405E+01 0.10625142541E+02
 0.11961047590E+02 0.13418626900E+02 0.14810261151E+02 0.15800843527E+02 0.15974969975E+02
 0.14972806235E+02 0.13193644711E+02 0.11781461945E+02 0.11781463531E+02 0.13193643347E+02