   2   2   1   0
  0.2043598E+02  0.3866460E-09  0.3866460E-09  0.3866460E-09  0.5000000E-15
  1.000000000000000E-004
  CAR 
 Si                                      
     30.70756645     -7.98228957  301      6.02782582      1.00000000
     -7.982  0.0000E+00  0.0000E+00
     -7.853  0.0000E+00  0.0000E+00
     -7.724  0.0000E+00  0.0000E+00
     -7.595 -0.1006E-27 -0.1297E-28
     -7.466 -0.2069E-23 -0.2668E-24
     -7.337 -0.1845E-19 -0.2379E-20
     -7.208 -0.7122E-16 -0.9187E-17
     -7.080 -0.1151E-12 -0.1485E-13
     -6.951 -0.8217E-10 -0.1061E-10
     -6.822 -0.2515E-07 -0.3254E-08
     -6.693 -0.3272E-05 -0.4253E-06
     -6.564 -0.1781E-03 -0.2340E-04
     -6.435 -0.3906E-02 -0.5271E-03
     -6.306 -0.3077E-01 -0.4495E-02
     -6.177 -0.3909E-01 -0.9536E-02
     -6.048  0.3483E+00  0.3538E-01
     -5.919  0.1111E+01  0.1787E+00
     -5.790  0.1220E+01  0.3360E+00
     -5.661  0.8028E+00  0.4395E+00
     -5.532  0.5758E+00  0.5138E+00
     -5.403  0.5011E+00  0.5784E+00
     -5.274  0.4546E+00  0.6371E+00
     -5.145  0.4185E+00  0.6910E+00
     -5.016  0.3905E+00  0.7414E+00
     -4.887  0.3685E+00  0.7889E+00
     -4.758  0.3509E+00  0.8342E+00
     -4.629  0.3370E+00  0.8777E+00
     -4.500  0.3258E+00  0.9197E+00
     -4.371  0.3176E+00  0.9606E+00
     -4.242  0.3119E+00  0.1001E+01
     -4.113  0.3091E+00  0.1041E+01
     -3.984  0.3126E+00  0.1081E+01
     -3.855  0.3496E+00  0.1126E+01
     -3.726  0.4183E+00  0.1180E+01
     -3.597  0.3722E+00  0.1228E+01
     -3.468  0.2151E+00  0.1256E+01
     -3.340  0.1544E+00  0.1276E+01
     -3.211  0.1519E+00  0.1295E+01
     -3.082  0.1648E+00  0.1317E+01
     -2.953  0.1567E+00  0.1337E+01
     -2.824  0.1673E+00  0.1358E+01
     -2.695  0.1635E+00  0.1379E+01
     -2.566  0.1593E+00  0.1400E+01
     -2.437  0.1877E+00  0.1424E+01
     -2.308  0.2966E+00  0.1462E+01
     -2.179  0.5061E+00  0.1528E+01
     -2.050  0.9073E+00  0.1645E+01
     -1.921  0.1898E+01  0.1889E+01
     -1.792  0.2228E+01  0.2177E+01
     -1.663  0.1262E+01  0.2339E+01
     -1.534  0.6417E+00  0.2422E+01
     -1.405  0.5353E+00  0.2491E+01
     -1.276  0.4447E+00  0.2549E+01
     -1.147  0.3372E+00  0.2592E+01
     -1.018  0.3266E+00  0.2634E+01
     -0.889  0.3661E+00  0.2681E+01
     -0.760  0.3199E+00  0.2723E+01
     -0.631  0.2373E+00  0.2753E+01
     -0.502  0.2440E+00  0.2785E+01
     -0.373  0.2365E+00  0.2815E+01
     -0.244  0.2027E+00  0.2841E+01
     -0.115  0.2181E+00  0.2870E+01
      0.014  0.2155E+00  0.2897E+01
      0.143  0.1798E+00  0.2921E+01
      0.272  0.2068E+00  0.2947E+01
      0.401  0.2011E+00  0.2973E+01
      0.529  0.1630E+00  0.2994E+01
      0.658  0.2023E+00  0.3020E+01
      0.787  0.1882E+00  0.3045E+01
      0.916  0.1530E+00  0.3064E+01
      1.045  0.1937E+00  0.3089E+01
      1.174  0.1708E+00  0.3111E+01
      1.303  0.1214E+00  0.3127E+01
      1.432  0.3361E+00  0.3170E+01
      1.561  0.6800E+00  0.3258E+01
      1.690  0.7996E+00  0.3361E+01
      1.819  0.7588E+00  0.3459E+01
      1.948  0.6104E+00  0.3538E+01
      2.077  0.4944E+00  0.3601E+01
      2.206  0.5562E+00  0.3673E+01
      2.335  0.5155E+00  0.3740E+01
      2.464  0.4371E+00  0.3796E+01
      2.593  0.5162E+00  0.3863E+01
      2.722  0.4684E+00  0.3923E+01
      2.851  0.4537E+00  0.3981E+01
      2.980  0.1354E+01  0.4156E+01
      3.109  0.2507E+01  0.4479E+01
      3.238  0.2280E+01  0.4773E+01
      3.367  0.1569E+01  0.4976E+01
      3.496  0.1166E+01  0.5126E+01
      3.625  0.8104E+00  0.5231E+01
      3.754  0.6738E+00  0.5318E+01
      3.883  0.6778E+00  0.5405E+01
      4.012  0.6081E+00  0.5483E+01
      4.141  0.6060E+00  0.5562E+01
      4.269  0.5954E+00  0.5638E+01
      4.398  0.5382E+00  0.5708E+01
      4.527  0.5902E+00  0.5784E+01
      4.656  0.1089E+01  0.5924E+01
      4.785  0.1794E+01  0.6156E+01
      4.914  0.1693E+01  0.6374E+01
      5.043  0.1292E+01  0.6541E+01
      5.172  0.1182E+01  0.6693E+01
      5.301  0.1151E+01  0.6841E+01
      5.430  0.1142E+01  0.6989E+01
      5.559  0.1211E+01  0.7145E+01
      5.688  0.1527E+01  0.7342E+01
      5.817  0.2266E+01  0.7634E+01
      5.946  0.2195E+01  0.7917E+01
      6.075  0.7467E+00  0.8014E+01
      6.204 -0.1158E+00  0.7999E+01
      6.333  0.1225E+00  0.8014E+01
      6.462  0.1133E+01  0.8160E+01
      6.591  0.2105E+01  0.8432E+01
      6.720  0.1934E+01  0.8681E+01
      6.849  0.1323E+01  0.8852E+01
      6.978  0.1012E+01  0.8983E+01
      7.107  0.7623E+00  0.9081E+01
      7.236  0.7120E+00  0.9173E+01
      7.365  0.9953E+00  0.9301E+01
      7.494  0.1060E+01  0.9438E+01
      7.623  0.8667E+00  0.9549E+01
      7.752  0.7478E+00  0.9646E+01
      7.881  0.7089E+00  0.9737E+01
      8.010  0.6501E+00  0.9821E+01
      8.138  0.6641E+00  0.9907E+01
      8.267  0.1407E+01  0.1009E+02
      8.396  0.2728E+01  0.1044E+02
      8.525  0.2697E+01  0.1079E+02
      8.654  0.1896E+01  0.1103E+02
      8.783  0.1661E+01  0.1125E+02
      8.912  0.1391E+01  0.1143E+02
      9.041  0.1669E+01  0.1164E+02
      9.170  0.2743E+01  0.1199E+02
      9.299  0.2973E+01  0.1238E+02
      9.428  0.1799E+01  0.1261E+02
      9.557  0.7886E+00  0.1271E+02
      9.686  0.6268E+00  0.1279E+02
      9.815  0.6903E+00  0.1288E+02
      9.944  0.7603E+00  0.1298E+02
     10.073  0.7470E+00  0.1308E+02
     10.202  0.6467E+00  0.1316E+02
     10.331  0.4375E+00  0.1322E+02
     10.460  0.3478E+00  0.1326E+02
     10.589  0.4997E+00  0.1333E+02
     10.718  0.4250E+00  0.1338E+02
     10.847  0.3252E+00  0.1342E+02
     10.976  0.4133E+00  0.1348E+02
     11.105  0.3809E+00  0.1352E+02
     11.234  0.4333E+00  0.1358E+02
     11.363  0.7386E+00  0.1368E+02
     11.492  0.7365E+00  0.1377E+02
     11.621  0.4803E+00  0.1383E+02
     11.750  0.6025E+00  0.1391E+02
     11.879  0.8063E+00  0.1401E+02
     12.007  0.8859E+00  0.1413E+02
     12.136  0.8912E+00  0.1424E+02
     12.265  0.7402E+00  0.1434E+02
     12.394  0.6922E+00  0.1443E+02
     12.523  0.7035E+00  0.1452E+02
     12.652  0.6345E+00  0.1460E+02
     12.781  0.1121E+01  0.1475E+02
     12.910  0.1712E+01  0.1497E+02
     13.039  0.1567E+01  0.1517E+02
     13.168  0.1314E+01  0.1534E+02
     13.297  0.1709E+01  0.1556E+02
     13.426  0.2582E+01  0.1589E+02
     13.555  0.2927E+01  0.1627E+02
     13.684  0.2411E+01  0.1658E+02
     13.813  0.1796E+01  0.1681E+02
     13.942  0.1559E+01  0.1701E+02
     14.071  0.1440E+01  0.1720E+02
     14.200  0.1341E+01  0.1737E+02
     14.329  0.1416E+01  0.1755E+02
     14.458  0.1447E+01  0.1774E+02
     14.587  0.1557E+01  0.1794E+02
     14.716  0.1596E+01  0.1815E+02
     14.845  0.1722E+01  0.1837E+02
     14.974  0.1764E+01  0.1860E+02
     15.103  0.1276E+01  0.1876E+02
     15.232  0.1149E+01  0.1891E+02
     15.361  0.1358E+01  0.1908E+02
     15.490  0.1296E+01  0.1925E+02
     15.619  0.1590E+01  0.1946E+02
     15.747  0.1957E+01  0.1971E+02
     15.876  0.1550E+01  0.1991E+02
     16.005  0.9218E+00  0.2003E+02
     16.134  0.8386E+00  0.2014E+02
     16.263  0.1063E+01  0.2027E+02
     16.392  0.1349E+01  0.2045E+02
     16.521  0.1118E+01  0.2059E+02
     16.650  0.1056E+01  0.2073E+02
     16.779  0.1922E+01  0.2097E+02
     16.908  0.3021E+01  0.2136E+02
     17.037  0.3016E+01  0.2175E+02
     17.166  0.2008E+01  0.2201E+02
     17.295  0.1458E+01  0.2220E+02
     17.424  0.1166E+01  0.2235E+02
     17.553  0.1033E+01  0.2248E+02
     17.682  0.1186E+01  0.2264E+02
     17.811  0.1157E+01  0.2279E+02
     17.940  0.8347E+00  0.2289E+02
     18.069  0.9679E+00  0.2302E+02
     18.198  0.1587E+01  0.2322E+02
     18.327  0.1623E+01  0.2343E+02
     18.456  0.1351E+01  0.2361E+02
     18.585  0.1689E+01  0.2382E+02
     18.714  0.2173E+01  0.2411E+02
     18.843  0.2160E+01  0.2438E+02
     18.972  0.2025E+01  0.2464E+02
     19.101  0.2238E+01  0.2493E+02
     19.230  0.2228E+01  0.2522E+02
     19.359  0.1885E+01  0.2546E+02
     19.488  0.1719E+01  0.2569E+02
     19.616  0.1666E+01  0.2590E+02
     19.745  0.1390E+01  0.2608E+02
     19.874  0.1116E+01  0.2622E+02
     20.003  0.1129E+01  0.2637E+02
     20.132  0.1203E+01  0.2652E+02
     20.261  0.1163E+01  0.2667E+02
     20.390  0.1335E+01  0.2685E+02
     20.519  0.1372E+01  0.2702E+02
     20.648  0.1118E+01  0.2717E+02
     20.777  0.8868E+00  0.2728E+02
     20.906  0.7425E+00  0.2738E+02
     21.035  0.8905E+00  0.2749E+02
     21.164  0.1187E+01  0.2765E+02
     21.293  0.1171E+01  0.2780E+02
     21.422  0.1225E+01  0.2795E+02
     21.551  0.1447E+01  0.2814E+02
     21.680  0.1152E+01  0.2829E+02
     21.809  0.5477E+00  0.2836E+02
     21.938  0.5300E+00  0.2843E+02
     22.067  0.1041E+01  0.2856E+02
     22.196  0.1034E+01  0.2870E+02
     22.325  0.9788E+00  0.2882E+02
     22.454  0.1471E+01  0.2901E+02
     22.583  0.1477E+01  0.2920E+02
     22.712  0.1238E+01  0.2936E+02
     22.841  0.1403E+01  0.2954E+02
     22.970  0.1359E+01  0.2972E+02
     23.099  0.1094E+01  0.2986E+02
     23.228  0.1080E+01  0.3000E+02
     23.356  0.1047E+01  0.3013E+02
     23.485  0.9343E+00  0.3025E+02
     23.614  0.9586E+00  0.3038E+02
     23.743  0.1006E+01  0.3051E+02
     23.872  0.9139E+00  0.3063E+02
     24.001  0.7853E+00  0.3073E+02
     24.130  0.7231E+00  0.3082E+02
     24.259  0.8642E+00  0.3093E+02
     24.388  0.1097E+01  0.3107E+02
     24.517  0.1091E+01  0.3121E+02
     24.646  0.6963E+00  0.3130E+02
     24.775  0.3030E+00  0.3134E+02
     24.904  0.2957E+00  0.3138E+02
     25.033  0.2737E+00  0.3142E+02
     25.162  0.1435E+00  0.3143E+02
     25.291  0.5613E-01  0.3144E+02
     25.420  0.1288E+00  0.3146E+02
     25.549  0.2462E+00  0.3149E+02
     25.678  0.2515E+00  0.3152E+02
     25.807  0.1343E+00  0.3154E+02
     25.936  0.1242E+00  0.3156E+02
     26.065  0.2396E+00  0.3159E+02
     26.194  0.2103E+00  0.3161E+02
     26.323  0.7398E-01  0.3162E+02
     26.452  0.5827E-01  0.3163E+02
     26.581  0.1946E+00  0.3166E+02
     26.710  0.1977E+00  0.3168E+02
     26.839  0.5024E-01  0.3169E+02
     26.968  0.1106E-02  0.3169E+02
     27.097  0.7993E-01  0.3170E+02
     27.225  0.1543E+00  0.3172E+02
     27.354  0.1392E+00  0.3174E+02
     27.483  0.9074E-01  0.3175E+02
     27.612  0.9396E-01  0.3176E+02
     27.741  0.1365E+00  0.3178E+02
     27.870  0.8681E-01  0.3179E+02
     27.999  0.5251E-01  0.3180E+02
     28.128  0.1599E+00  0.3182E+02
     28.257  0.2104E+00  0.3184E+02
     28.386  0.1321E+00  0.3186E+02
     28.515  0.1566E+00  0.3188E+02
     28.644  0.3812E+00  0.3193E+02
     28.773  0.4221E+00  0.3198E+02
     28.902  0.1457E+00  0.3200E+02
     29.031 -0.1183E-01  0.3200E+02
     29.160 -0.1208E-01  0.3200E+02
     29.289 -0.1634E-02  0.3200E+02
     29.418 -0.7866E-04  0.3200E+02
     29.547 -0.1520E-05  0.3200E+02
     29.676 -0.1225E-07  0.3200E+02
     29.805 -0.4179E-10  0.3200E+02
     29.934 -0.6091E-13  0.3200E+02
     30.063  0.0000E+00  0.3200E+02
     30.192  0.0000E+00  0.3200E+02
     30.321  0.0000E+00  0.3200E+02
     30.450  0.0000E+00  0.3200E+02
     30.579  0.0000E+00  0.3200E+02
     30.708  0.0000E+00  0.3200E+02
     30.70756645     -7.98228957  301      6.02782582      1.00000000
     -7.982  0.0000E+00  0.0000E+00  0.0000E+00  0.0000E+00  0.0000E+00  0.0000E+00  0.0000E+00  0.0000E+00  0.0000E+00
     -7.853  0.0000E+00  0.0000E+00  0.0000E+00  0.0000E+00  0.0000E+00  0.0000E+00  0.0000E+00  0.0000E+00  0.0000E+00
     -7.724  0.0000E+00  0.0000E+00  0.0000E+00  0.0000E+00  0.0000E+00  0.0000E+00  0.0000E+00  0.0000E+00  0.0000E+00
     -7.595 -0.2110E-28 -0.5776E-33 -0.1283E-32 -0.2784E-32  0.0000E+00  0.0000E+00  0.0000E+00  0.0000E+00  0.0000E+00
     -7.466 -0.4342E-24 -0.1307E-28 -0.2905E-28 -0.6300E-28  0.0000E+00  0.0000E+00  0.0000E+00  0.0000E+00  0.0000E+00
     -7.337 -0.3871E-20 -0.1292E-24 -0.2872E-24 -0.6229E-24  0.0000E+00  0.0000E+00  0.0000E+00  0.0000E+00  0.0000E+00
     -7.208 -0.1495E-16 -0.5587E-21 -0.1241E-20 -0.2693E-20  0.0000E+00  0.0000E+00  0.0000E+00  0.0000E+00  0.0000E+00
     -7.080 -0.2415E-13 -0.1026E-17 -0.2274E-17 -0.4936E-17  0.0000E+00  0.0000E+00  0.0000E+00  0.0000E+00  0.0000E+00
     -6.951 -0.1724E-10 -0.8411E-15 -0.1868E-14 -0.4053E-14  0.0000E+00  0.0000E+00  0.0000E+00  0.0000E+00  0.0000E+00
     -6.822 -0.5277E-08 -0.3018E-12 -0.6701E-12 -0.1454E-11  0.0000E+00  0.0000E+00  0.0000E+00  0.0000E+00  0.0000E+00
     -6.693 -0.6866E-06 -0.4725E-10 -0.1049E-09 -0.2276E-09  0.0000E+00  0.0000E+00  0.0000E+00  0.0000E+00  0.0000E+00
     -6.564 -0.3737E-04 -0.3213E-08 -0.7127E-08 -0.1547E-07  0.0000E+00  0.0000E+00  0.0000E+00  0.0000E+00  0.0000E+00
     -6.435 -0.8194E-03 -0.9367E-07 -0.2076E-06 -0.4509E-06  0.0000E+00  0.0000E+00  0.0000E+00  0.0000E+00  0.0000E+00
     -6.306 -0.6454E-02 -0.1125E-05 -0.2490E-05 -0.5411E-05  0.0000E+00  0.0000E+00  0.0000E+00  0.0000E+00  0.0000E+00
     -6.177 -0.8187E-02 -0.4705E-05 -0.1038E-04 -0.2259E-04  0.0000E+00  0.0000E+00  0.0000E+00  0.0000E+00  0.0000E+00
     -6.048  0.7309E-01  0.1908E-05  0.4445E-05  0.9429E-05  0.0000E+00  0.0000E+00  0.0000E+00  0.0000E+00  0.0000E+00
     -5.919  0.2330E+00  0.5705E-04  0.1265E-03  0.2747E-03  0.0000E+00  0.0000E+00  0.0000E+00  0.0000E+00  0.0000E+00
     -5.790  0.2555E+00  0.1558E-03  0.3434E-03  0.7480E-03  0.0000E+00  0.0000E+00  0.0000E+00  0.0000E+00  0.0000E+00
     -5.661  0.1676E+00  0.2415E-03  0.5281E-03  0.1154E-02  0.0000E+00  0.0000E+00  0.0000E+00  0.0000E+00  0.0000E+00
     -5.532  0.1198E+00  0.3002E-03  0.6504E-03  0.1428E-02  0.0000E+00  0.0000E+00  0.0000E+00  0.0000E+00  0.0000E+00
     -5.403  0.1040E+00  0.3476E-03  0.7449E-03  0.1643E-02  0.0000E+00  0.0000E+00  0.0000E+00  0.0000E+00  0.0000E+00
     -5.274  0.9417E-01  0.3904E-03  0.8267E-03  0.1831E-02  0.0000E+00  0.0000E+00  0.0000E+00  0.0000E+00  0.0000E+00
     -5.145  0.8653E-01  0.4302E-03  0.8993E-03  0.2002E-02  0.0000E+00  0.0000E+00  0.0000E+00  0.0000E+00  0.0000E+00
     -5.016  0.8061E-01  0.4682E-03  0.9644E-03  0.2157E-02  0.0000E+00  0.0000E+00  0.0000E+00  0.0000E+00  0.0000E+00
     -4.887  0.7597E-01  0.5052E-03  0.1024E-02  0.2302E-02  0.0000E+00  0.0000E+00  0.0000E+00  0.0000E+00  0.0000E+00
     -4.758  0.7227E-01  0.5421E-03  0.1078E-02  0.2436E-02  0.0000E+00  0.0000E+00  0.0000E+00  0.0000E+00  0.0000E+00
     -4.629  0.6937E-01  0.5795E-03  0.1129E-02  0.2565E-02  0.0000E+00  0.0000E+00  0.0000E+00  0.0000E+00  0.0000E+00
     -4.500  0.6706E-01  0.6188E-03  0.1178E-02  0.2682E-02  0.0000E+00  0.0000E+00  0.0000E+00  0.0000E+00  0.0000E+00
     -4.371  0.6543E-01  0.6602E-03  0.1221E-02  0.2805E-02  0.0000E+00  0.0000E+00  0.0000E+00  0.0000E+00  0.0000E+00
     -4.242  0.6435E-01  0.7077E-03  0.1272E-02  0.2911E-02  0.0000E+00  0.0000E+00  0.0000E+00  0.0000E+00  0.0000E+00
     -4.113  0.6391E-01  0.7585E-03  0.1309E-02  0.3032E-02  0.0000E+00  0.0000E+00  0.0000E+00  0.0000E+00  0.0000E+00
     -3.984  0.6492E-01  0.8350E-03  0.1382E-02  0.3149E-02  0.0000E+00  0.0000E+00  0.0000E+00  0.0000E+00  0.0000E+00
     -3.855  0.7342E-01  0.1046E-02  0.1564E-02  0.3420E-02  0.0000E+00  0.0000E+00  0.0000E+00  0.0000E+00  0.0000E+00
     -3.726  0.8912E-01  0.1390E-02  0.1892E-02  0.3774E-02  0.0000E+00  0.0000E+00  0.0000E+00  0.0000E+00  0.0000E+00
     -3.597  0.7933E-01  0.1212E-02  0.1664E-02  0.3663E-02  0.0000E+00  0.0000E+00  0.0000E+00  0.0000E+00  0.0000E+00
     -3.468  0.4476E-01  0.5843E-03  0.1000E-02  0.2970E-02  0.0000E+00  0.0000E+00  0.0000E+00  0.0000E+00  0.0000E+00
     -3.340  0.3125E-01  0.3723E-03  0.7132E-03  0.2881E-02  0.0000E+00  0.0000E+00  0.0000E+00  0.0000E+00  0.0000E+00
     -3.211  0.3088E-01  0.4782E-03  0.7497E-03  0.2771E-02  0.0000E+00  0.0000E+00  0.0000E+00  0.0000E+00  0.0000E+00
     -3.082  0.3355E-01  0.6053E-03  0.7621E-03  0.3118E-02  0.0000E+00  0.0000E+00  0.0000E+00  0.0000E+00  0.0000E+00
     -2.953  0.3205E-01  0.7391E-03  0.7699E-03  0.2854E-02  0.0000E+00  0.0000E+00  0.0000E+00  0.0000E+00  0.0000E+00
     -2.824  0.3418E-01  0.9151E-03  0.7610E-03  0.3226E-02  0.0000E+00  0.0000E+00  0.0000E+00  0.0000E+00  0.0000E+00
     -2.695  0.3352E-01  0.1133E-02  0.7459E-03  0.2999E-02  0.0000E+00  0.0000E+00  0.0000E+00  0.0000E+00  0.0000E+00
     -2.566  0.3266E-01  0.1447E-02  0.6972E-03  0.2808E-02  0.0000E+00  0.0000E+00  0.0000E+00  0.0000E+00  0.0000E+00
     -2.437  0.3859E-01  0.2100E-02  0.7523E-03  0.3131E-02  0.0000E+00  0.0000E+00  0.0000E+00  0.0000E+00  0.0000E+00
     -2.308  0.6210E-01  0.3209E-02  0.1299E-02  0.4903E-02  0.0000E+00  0.0000E+00  0.0000E+00  0.0000E+00  0.0000E+00
     -2.179  0.1061E+00  0.3345E-02  0.1947E-02  0.1121E-01  0.0000E+00  0.0000E+00  0.0000E+00  0.0000E+00  0.0000E+00
     -2.050  0.1844E+00  0.2154E-02  0.1870E-02  0.2963E-01  0.0000E+00  0.0000E+00  0.0000E+00  0.0000E+00  0.0000E+00
     -1.921  0.3716E+00  0.1231E-02  0.1312E-02  0.7640E-01  0.0000E+00  0.0000E+00  0.0000E+00  0.0000E+00  0.0000E+00
     -1.792  0.4288E+00  0.8851E-03  0.9246E-03  0.9520E-01  0.0000E+00  0.0000E+00  0.0000E+00  0.0000E+00  0.0000E+00
     -1.663  0.2395E+00  0.1023E-02  0.1110E-02  0.5534E-01  0.0000E+00  0.0000E+00  0.0000E+00  0.0000E+00  0.0000E+00
     -1.534  0.1196E+00  0.1410E-02  0.1577E-02  0.2847E-01  0.0000E+00  0.0000E+00  0.0000E+00  0.0000E+00  0.0000E+00
     -1.405  0.9901E-01  0.2772E-02  0.1946E-02  0.2253E-01  0.0000E+00  0.0000E+00  0.0000E+00  0.0000E+00  0.0000E+00
     -1.276  0.8215E-01  0.5134E-02  0.1797E-02  0.1615E-01  0.0000E+00  0.0000E+00  0.0000E+00  0.0000E+00  0.0000E+00
     -1.147  0.5851E-01  0.7103E-02  0.2452E-02  0.9925E-02  0.0000E+00  0.0000E+00  0.0000E+00  0.0000E+00  0.0000E+00
     -1.018  0.4545E-01  0.1010E-01  0.5884E-02  0.8117E-02  0.0000E+00  0.0000E+00  0.0000E+00  0.0000E+00  0.0000E+00
     -0.889  0.4856E-01  0.1098E-01  0.7364E-02  0.1003E-01  0.0000E+00  0.0000E+00  0.0000E+00  0.0000E+00  0.0000E+00
     -0.760  0.4584E-01  0.8669E-02  0.5449E-02  0.9490E-02  0.0000E+00  0.0000E+00  0.0000E+00  0.0000E+00  0.0000E+00
     -0.631  0.3440E-01  0.7018E-02  0.4136E-02  0.6466E-02  0.0000E+00  0.0000E+00  0.0000E+00  0.0000E+00  0.0000E+00
     -0.502  0.3635E-01  0.6543E-02  0.3915E-02  0.7594E-02  0.0000E+00  0.0000E+00  0.0000E+00  0.0000E+00  0.0000E+00
     -0.373  0.3568E-01  0.6015E-02  0.3677E-02  0.7791E-02  0.0000E+00  0.0000E+00  0.0000E+00  0.0000E+00  0.0000E+00
     -0.244  0.2935E-01  0.5940E-02  0.3764E-02  0.6052E-02  0.0000E+00  0.0000E+00  0.0000E+00  0.0000E+00  0.0000E+00
     -0.115  0.3266E-01  0.5418E-02  0.3528E-02  0.7822E-02  0.0000E+00  0.0000E+00  0.0000E+00  0.0000E+00  0.0000E+00
      0.014  0.3211E-01  0.5461E-02  0.3646E-02  0.7715E-02  0.0000E+00  0.0000E+00  0.0000E+00  0.0000E+00  0.0000E+00
      0.143  0.2548E-01  0.5140E-02  0.3635E-02  0.6006E-02  0.0000E+00  0.0000E+00  0.0000E+00  0.0000E+00  0.0000E+00
      0.272  0.3098E-01  0.4931E-02  0.3428E-02  0.8262E-02  0.0000E+00  0.0000E+00  0.0000E+00  0.0000E+00  0.0000E+00
      0.401  0.2886E-01  0.5047E-02  0.3842E-02  0.7890E-02  0.0000E+00  0.0000E+00  0.0000E+00  0.0000E+00  0.0000E+00
      0.529  0.2306E-01  0.4604E-02  0.3440E-02  0.5954E-02  0.0000E+00  0.0000E+00  0.0000E+00  0.0000E+00  0.0000E+00
      0.658  0.2943E-01  0.4674E-02  0.3642E-02  0.8953E-02  0.0000E+00  0.0000E+00  0.0000E+00  0.0000E+00  0.0000E+00
      0.787  0.2629E-01  0.4697E-02  0.3915E-02  0.8006E-02  0.0000E+00  0.0000E+00  0.0000E+00  0.0000E+00  0.0000E+00
      0.916  0.2144E-01  0.4280E-02  0.3397E-02  0.6073E-02  0.0000E+00  0.0000E+00  0.0000E+00  0.0000E+00  0.0000E+00
      1.045  0.2733E-01  0.4277E-02  0.3753E-02  0.9501E-02  0.0000E+00  0.0000E+00  0.0000E+00  0.0000E+00  0.0000E+00
      1.174  0.2529E-01  0.3912E-02  0.3458E-02  0.7693E-02  0.0000E+00  0.0000E+00  0.0000E+00  0.0000E+00  0.0000E+00
      1.303  0.1877E-01  0.2804E-02  0.2385E-02  0.5381E-02  0.0000E+00  0.0000E+00  0.0000E+00  0.0000E+00  0.0000E+00
      1.432  0.2672E-01  0.1201E-01  0.1070E-01  0.1706E-01  0.0000E+00  0.0000E+00  0.0000E+00  0.0000E+00  0.0000E+00
      1.561  0.2555E-01  0.3209E-01  0.2866E-01  0.3152E-01  0.0000E+00  0.0000E+00  0.0000E+00  0.0000E+00  0.0000E+00
      1.690  0.1790E-01  0.4193E-01  0.3758E-01  0.3478E-01  0.0000E+00  0.0000E+00  0.0000E+00  0.0000E+00  0.0000E+00
      1.819  0.2741E-01  0.3907E-01  0.3461E-01  0.3191E-01  0.0000E+00  0.0000E+00  0.0000E+00  0.0000E+00  0.0000E+00
      1.948  0.2470E-01  0.3330E-01  0.2884E-01  0.2285E-01  0.0000E+00  0.0000E+00  0.0000E+00  0.0000E+00  0.0000E+00
      2.077  0.1596E-01  0.2954E-01  0.2522E-01  0.1686E-01  0.0000E+00  0.0000E+00  0.0000E+00  0.0000E+00  0.0000E+00
      2.206  0.2667E-01  0.3054E-01  0.2650E-01  0.2101E-01  0.0000E+00  0.0000E+00  0.0000E+00  0.0000E+00  0.0000E+00
      2.335  0.2388E-01  0.2996E-01  0.2615E-01  0.1755E-01  0.0000E+00  0.0000E+00  0.0000E+00  0.0000E+00  0.0000E+00
      2.464  0.1455E-01  0.2863E-01  0.2452E-01  0.1298E-01  0.0000E+00  0.0000E+00  0.0000E+00  0.0000E+00  0.0000E+00
      2.593  0.2497E-01  0.3051E-01  0.2680E-01  0.1835E-01  0.0000E+00  0.0000E+00  0.0000E+00  0.0000E+00  0.0000E+00
      2.722  0.2315E-01  0.2814E-01  0.2458E-01  0.1590E-01  0.0000E+00  0.0000E+00  0.0000E+00  0.0000E+00  0.0000E+00
      2.851  0.1333E-01  0.3334E-01  0.2952E-01  0.1080E-01  0.0000E+00  0.0000E+00  0.0000E+00  0.0000E+00  0.0000E+00
      2.980  0.2221E-01  0.1153E+00  0.1112E+00  0.1649E-01  0.0000E+00  0.0000E+00  0.0000E+00  0.0000E+00  0.0000E+00
      3.109  0.2171E-01  0.2285E+00  0.2252E+00  0.1421E-01  0.0000E+00  0.0000E+00  0.0000E+00  0.0000E+00  0.0000E+00
      3.238  0.1255E-01  0.2135E+00  0.2089E+00  0.9048E-02  0.0000E+00  0.0000E+00  0.0000E+00  0.0000E+00  0.0000E+00
      3.367  0.1890E-01  0.1376E+00  0.1359E+00  0.1763E-01  0.0000E+00  0.0000E+00  0.0000E+00  0.0000E+00  0.0000E+00
      3.496  0.1994E-01  0.8932E-01  0.9751E-01  0.2590E-01  0.0000E+00  0.0000E+00  0.0000E+00  0.0000E+00  0.0000E+00
      3.625  0.1309E-01  0.5350E-01  0.6657E-01  0.2810E-01  0.0000E+00  0.0000E+00  0.0000E+00  0.0000E+00  0.0000E+00
      3.754  0.1628E-01  0.3802E-01  0.5057E-01  0.3166E-01  0.0000E+00  0.0000E+00  0.0000E+00  0.0000E+00  0.0000E+00
      3.883  0.1729E-01  0.3941E-01  0.5050E-01  0.3038E-01  0.0000E+00  0.0000E+00  0.0000E+00  0.0000E+00  0.0000E+00
      4.012  0.1359E-01  0.3562E-01  0.4713E-01  0.2709E-01  0.0000E+00  0.0000E+00  0.0000E+00  0.0000E+00  0.0000E+00
      4.141  0.1472E-01  0.3556E-01  0.4405E-01  0.2969E-01  0.0000E+00  0.0000E+00  0.0000E+00  0.0000E+00  0.0000E+00
      4.269  0.1382E-01  0.3563E-01  0.4453E-01  0.2762E-01  0.0000E+00  0.0000E+00  0.0000E+00  0.0000E+00  0.0000E+00
      4.398  0.1339E-01  0.3041E-01  0.4103E-01  0.2568E-01  0.0000E+00  0.0000E+00  0.0000E+00  0.0000E+00  0.0000E+00
      4.527  0.1372E-01  0.3500E-01  0.4225E-01  0.3120E-01  0.0000E+00  0.0000E+00  0.0000E+00  0.0000E+00  0.0000E+00
      4.656  0.1070E-01  0.7201E-01  0.8021E-01  0.6571E-01  0.0000E+00  0.0000E+00  0.0000E+00  0.0000E+00  0.0000E+00
      4.785  0.1219E-01  0.1202E+00  0.1293E+00  0.1180E+00  0.0000E+00  0.0000E+00  0.0000E+00  0.0000E+00  0.0000E+00
      4.914  0.1204E-01  0.1128E+00  0.1214E+00  0.1117E+00  0.0000E+00  0.0000E+00  0.0000E+00  0.0000E+00  0.0000E+00
      5.043  0.8760E-02  0.8691E-01  0.9385E-01  0.8165E-01  0.0000E+00  0.0000E+00  0.0000E+00  0.0000E+00  0.0000E+00
      5.172  0.1005E-01  0.7576E-01  0.8537E-01  0.7704E-01  0.0000E+00  0.0000E+00  0.0000E+00  0.0000E+00  0.0000E+00
      5.301  0.9229E-02  0.7440E-01  0.8409E-01  0.7428E-01  0.0000E+00  0.0000E+00  0.0000E+00  0.0000E+00  0.0000E+00
      5.430  0.7275E-02  0.7504E-01  0.8336E-01  0.7447E-01  0.0000E+00  0.0000E+00  0.0000E+00  0.0000E+00  0.0000E+00
      5.559  0.6944E-02  0.7746E-01  0.8963E-01  0.8154E-01  0.0000E+00  0.0000E+00  0.0000E+00  0.0000E+00  0.0000E+00
      5.688  0.5706E-02  0.9810E-01  0.1144E+00  0.1052E+00  0.0000E+00  0.0000E+00  0.0000E+00  0.0000E+00  0.0000E+00
      5.817  0.3587E-02  0.1447E+00  0.1715E+00  0.1616E+00  0.0000E+00  0.0000E+00  0.0000E+00  0.0000E+00  0.0000E+00
      5.946  0.1254E-02  0.1404E+00  0.1667E+00  0.1588E+00  0.0000E+00  0.0000E+00  0.0000E+00  0.0000E+00  0.0000E+00
      6.075 -0.1214E-02  0.4965E-01  0.5828E-01  0.5507E-01  0.0000E+00  0.0000E+00  0.0000E+00  0.0000E+00  0.0000E+00
      6.204 -0.3092E-02 -0.3637E-02 -0.4447E-02 -0.6312E-02  0.0000E+00  0.0000E+00  0.0000E+00  0.0000E+00  0.0000E+00
      6.333  0.9988E-02 -0.4239E-02 -0.4979E-02  0.3663E-02  0.0000E+00  0.0000E+00  0.0000E+00  0.0000E+00  0.0000E+00
      6.462  0.5953E-01 -0.5545E-03 -0.6508E-03  0.4480E-01  0.0000E+00  0.0000E+00  0.0000E+00  0.0000E+00  0.0000E+00
      6.591  0.1086E+00  0.3865E-03  0.4227E-03  0.8027E-01  0.0000E+00  0.0000E+00  0.0000E+00  0.0000E+00  0.0000E+00
      6.720  0.9874E-01  0.9482E-03  0.1140E-02  0.7386E-01  0.0000E+00  0.0000E+00  0.0000E+00  0.0000E+00  0.0000E+00
      6.849  0.6629E-01  0.1810E-02  0.1686E-02  0.5241E-01  0.0000E+00  0.0000E+00  0.0000E+00  0.0000E+00  0.0000E+00
      6.978  0.4823E-01  0.4401E-02  0.1935E-02  0.4001E-01  0.0000E+00  0.0000E+00  0.0000E+00  0.0000E+00  0.0000E+00
      7.107  0.3388E-01  0.7380E-02  0.1985E-02  0.2851E-01  0.0000E+00  0.0000E+00  0.0000E+00  0.0000E+00  0.0000E+00
      7.236  0.5238E-01  0.9236E-02  0.3118E-02  0.2135E-01  0.0000E+00  0.0000E+00  0.0000E+00  0.0000E+00  0.0000E+00
      7.365  0.1129E+00  0.1160E-01  0.5849E-02  0.2235E-01  0.0000E+00  0.0000E+00  0.0000E+00  0.0000E+00  0.0000E+00
      7.494  0.1245E+00  0.1269E-01  0.7140E-02  0.2393E-01  0.0000E+00  0.0000E+00  0.0000E+00  0.0000E+00  0.0000E+00
      7.623  0.8789E-01  0.1223E-01  0.6698E-02  0.2384E-01  0.0000E+00  0.0000E+00  0.0000E+00  0.0000E+00  0.0000E+00
      7.752  0.6560E-01  0.1221E-01  0.6599E-02  0.2420E-01  0.0000E+00  0.0000E+00  0.0000E+00  0.0000E+00  0.0000E+00
      7.881  0.5772E-01  0.1249E-01  0.6666E-02  0.2533E-01  0.0000E+00  0.0000E+00  0.0000E+00  0.0000E+00  0.0000E+00
      8.010  0.5268E-01  0.1120E-01  0.4780E-02  0.2554E-01  0.0000E+00  0.0000E+00  0.0000E+00  0.0000E+00  0.0000E+00
      8.138  0.4975E-01  0.1130E-01  0.4449E-02  0.3155E-01  0.0000E+00  0.0000E+00  0.0000E+00  0.0000E+00  0.0000E+00
      8.267  0.4848E-01  0.4472E-01  0.4241E-01  0.7424E-01  0.0000E+00  0.0000E+00  0.0000E+00  0.0000E+00  0.0000E+00
      8.396  0.4441E-01  0.1132E+00  0.1182E+00  0.1323E+00  0.0000E+00  0.0000E+00  0.0000E+00  0.0000E+00  0.0000E+00
      8.525  0.3818E-01  0.1294E+00  0.1240E+00  0.1115E+00  0.0000E+00  0.0000E+00  0.0000E+00  0.0000E+00  0.0000E+00
      8.654  0.4929E-01  0.1112E+00  0.7566E-01  0.5728E-01  0.0000E+00  0.0000E+00  0.0000E+00  0.0000E+00  0.0000E+00
      8.783  0.6641E-01  0.1096E+00  0.5277E-01  0.3918E-01  0.0000E+00  0.0000E+00  0.0000E+00  0.0000E+00  0.0000E+00
      8.912  0.6713E-01  0.8408E-01  0.4728E-01  0.3544E-01  0.0000E+00  0.0000E+00  0.0000E+00  0.0000E+00  0.0000E+00
      9.041  0.1336E+00  0.6165E-01  0.5797E-01  0.4667E-01  0.0000E+00  0.0000E+00  0.0000E+00  0.0000E+00  0.0000E+00
      9.170  0.1956E+00  0.8602E-01  0.9015E-01  0.8169E-01  0.0000E+00  0.0000E+00  0.0000E+00  0.0000E+00  0.0000E+00
      9.299  0.1428E+00  0.1053E+00  0.1066E+00  0.9683E-01  0.0000E+00  0.0000E+00  0.0000E+00  0.0000E+00  0.0000E+00
      9.428  0.8779E-01  0.6687E-01  0.6649E-01  0.6071E-01  0.0000E+00  0.0000E+00  0.0000E+00  0.0000E+00  0.0000E+00
      9.557  0.6838E-01  0.3010E-01  0.2889E-01  0.2217E-01  0.0000E+00  0.0000E+00  0.0000E+00  0.0000E+00  0.0000E+00
      9.686  0.6591E-01  0.2375E-01  0.2258E-01  0.1638E-01  0.0000E+00  0.0000E+00  0.0000E+00  0.0000E+00  0.0000E+00
      9.815  0.6803E-01  0.2387E-01  0.2274E-01  0.2092E-01  0.0000E+00  0.0000E+00  0.0000E+00  0.0000E+00  0.0000E+00
      9.944  0.5889E-01  0.2795E-01  0.2761E-01  0.2424E-01  0.0000E+00  0.0000E+00  0.0000E+00  0.0000E+00  0.0000E+00
     10.073  0.7290E-01  0.2334E-01  0.2310E-01  0.3002E-01  0.0000E+00  0.0000E+00  0.0000E+00  0.0000E+00  0.0000E+00
     10.202  0.7235E-01  0.2157E-01  0.2053E-01  0.2713E-01  0.0000E+00  0.0000E+00  0.0000E+00  0.0000E+00  0.0000E+00
     10.331  0.2986E-01  0.2262E-01  0.1980E-01  0.1328E-01  0.0000E+00  0.0000E+00  0.0000E+00  0.0000E+00  0.0000E+00
     10.460  0.1881E-01  0.1784E-01  0.1749E-01  0.1004E-01  0.0000E+00  0.0000E+00  0.0000E+00  0.0000E+00  0.0000E+00
     10.589  0.3134E-01  0.2351E-01  0.2476E-01  0.1393E-01  0.0000E+00  0.0000E+00  0.0000E+00  0.0000E+00  0.0000E+00
     10.718  0.1800E-01  0.2179E-01  0.2234E-01  0.1095E-01  0.0000E+00  0.0000E+00  0.0000E+00  0.0000E+00  0.0000E+00
     10.847  0.1731E-01  0.1662E-01  0.1624E-01  0.9943E-02  0.0000E+00  0.0000E+00  0.0000E+00  0.0000E+00  0.0000E+00
     10.976  0.2681E-01  0.2265E-01  0.2245E-01  0.1111E-01  0.0000E+00  0.0000E+00  0.0000E+00  0.0000E+00  0.0000E+00
     11.105  0.1807E-01  0.1974E-01  0.2117E-01  0.1086E-01  0.0000E+00  0.0000E+00  0.0000E+00  0.0000E+00  0.0000E+00
     11.234  0.2268E-01  0.1620E-01  0.2112E-01  0.1511E-01  0.0000E+00  0.0000E+00  0.0000E+00  0.0000E+00  0.0000E+00
     11.363  0.4126E-01  0.2243E-01  0.3874E-01  0.2681E-01  0.0000E+00  0.0000E+00  0.0000E+00  0.0000E+00  0.0000E+00
     11.492  0.4105E-01  0.2055E-01  0.3700E-01  0.2750E-01  0.0000E+00  0.0000E+00  0.0000E+00  0.0000E+00  0.0000E+00
     11.621  0.2748E-01  0.1598E-01  0.2406E-01  0.1818E-01  0.0000E+00  0.0000E+00  0.0000E+00  0.0000E+00  0.0000E+00
     11.750  0.2357E-01  0.2461E-01  0.2878E-01  0.1656E-01  0.0000E+00  0.0000E+00  0.0000E+00  0.0000E+00  0.0000E+00
     11.879  0.1663E-01  0.2052E-01  0.2325E-01  0.1417E-01  0.0000E+00  0.0000E+00  0.0000E+00  0.0000E+00  0.0000E+00
     12.007  0.1387E-01  0.1555E-01  0.1965E-01  0.1382E-01  0.0000E+00  0.0000E+00  0.0000E+00  0.0000E+00  0.0000E+00
     12.136  0.2203E-01  0.2197E-01  0.2733E-01  0.1572E-01  0.0000E+00  0.0000E+00  0.0000E+00  0.0000E+00  0.0000E+00