    2    2    1    1
  0.2043598E+02  0.3866460E-09  0.3866460E-09  0.3866460E-09  0.5000000E-15
  1.000000000000000E-004
  CAR 
 Si                                      
      8     96     16
 
  0.5000000E+00  0.5000000E+00  0.5000000E+00  0.1041667E-01
    1       -3.680408   1.000000
    2       -1.049229   1.000000
    3        4.685711   1.000000
    4        4.685711   1.000000
    5        7.306596  -0.000000
    6        9.111625  -0.000000
    7        9.111625  -0.000000
    8       13.464637   0.000000
    9       16.296893   0.000000
   10       16.296893   0.000000
   11       17.012753   0.000000
   12       17.012753   0.000000
   13       17.074065   0.000000
   14       18.611914   0.000000
   15       25.020479   0.000000
   16       25.551866   0.000000
 
  0.4782609E+00  0.4782609E+00  0.4782609E+00  0.1041667E-01
    1       -3.706993   1.000000
    2       -1.011085   1.000000
    3        4.689077   1.000000
    4        4.689077   1.000000
    5        7.310468  -0.000000
    6        9.115578  -0.000000
    7        9.115578  -0.000000
    8       13.470636   0.000000
    9       16.085368   0.000000
   10       16.085368   0.000000
   11       16.965900   0.000000
   12       17.238368   0.000000
   13       17.238368   0.000000
   14       18.715197   0.000000
   15       24.572967   0.000000
   16       26.018826   0.000000
 
  0.4565217E+00  0.4565217E+00  0.4565217E+00  0.1041667E-01
    1       -3.782302   1.000000
    2       -0.901074   1.000000
    3        4.699176   1.000000
    4        4.699176   1.000000
    5        7.322068  -0.000000
    6        9.127231  -0.000000
    7        9.127231  -0.000000
    8       13.488268   0.000000
    9       15.712430   0.000000
   10       15.712430   0.000000
   11       16.702585   0.000000
   12       17.653432   0.000000
   13       17.653432   0.000000
   14       18.960953   0.000000
   15       23.962827   0.000000
   16       26.188104   0.000000
 
  0.4347826E+00  0.4347826E+00  0.4347826E+00  0.1041667E-01
    1       -3.895608   1.000000
    2       -0.729975   1.000000
    3        4.715998   1.000000
    4        4.715998   1.000000
    5        7.341364  -0.000000
    6        9.145949  -0.000000
    7        9.145949  -0.000000
    8       13.516320   0.000000
    9       15.322573   0.000000
   10       15.322573   0.000000
   11       16.368685   0.000000
   12       18.112909   0.000000
   13       18.112909   0.000000
   14       19.254198   0.000000
   15       23.378810   0.000000
   16       25.614584   0.000000
 
  0.4130435E+00  0.4130435E+00  0.4130435E+00  0.1041667E-01
    1       -4.034710   1.000000
    2       -0.510091   1.000000
    3        4.739536   1.000000
    4        4.739536   1.000000
    5        7.368291  -0.000000
    6        9.170642  -0.000000
    7        9.170642  -0.000000
    8       13.552294   0.000000
    9       14.941662   0.000000
   10       14.941662   0.000000
   11       16.008717   0.000000
   12       18.589716   0.000000
   13       18.589716   0.000000
   14       19.526670   0.000000
   15       22.861280   0.000000
   16       25.056431   0.000000
 
  0.3913043E+00  0.3913043E+00  0.3913043E+00  0.1041667E-01
    1       -4.189137   1.000000
    2       -0.252062   1.000000
    3        4.769759   1.000000
    4        4.769759   1.000000
    5        7.402745  -0.000000
    6        9.199693  -0.000000
    7        9.199693  -0.000000
    8       13.591318   0.000000
    9       14.577935   0.000000
   10       14.577935   0.000000
   11       15.645182   0.000000
   12       19.072869   0.000000
   13       19.072869   0.000000
   14       19.708338   0.000000
   15       22.465954   0.000000
   16       24.513002   0.000000
 
  0.3695652E+00  0.3695652E+00  0.3695652E+00  0.1041667E-01
    1       -4.351007   1.000000
    2        0.036013   1.000000
    3        4.806624   1.000000
    4        4.806624   1.000000
    5        7.444586  -0.000000
    6        9.230895  -0.000000
    7        9.230895  -0.000000
    8       13.623638   0.000000
    9       14.236170   0.000000
   10       14.236170   0.000000
   11       15.295434   0.000000
   12       19.551387   0.000000
   13       19.551387   0.000000
   14       19.715032   0.000000
   15       22.270358   0.000000
   16       23.995727   0.000000
 
  0.3478261E+00  0.3478261E+00  0.3478261E+00  0.1041667E-01
    1       -4.514698   1.000000
    2        0.348302   1.000000
    3        4.850064   1.000000
    4        4.850064   1.000000
    5        7.493623  -0.000000
    6        9.261373  -0.000000
    7        9.261373  -0.000000
    8       13.629113   0.000000
    9       13.920487   0.000000
   10       13.920487   0.000000
   11       14.982774   0.000000
   12       19.507194   0.000000
   13       20.006682   0.000000
   14       20.006682   0.000000
   15       22.310411   0.000000
   16       23.524057   0.000000
 
  0.3260870E+00  0.3260870E+00  0.3260870E+00  0.1041667E-01
    1       -4.676306   1.000000
    2        0.680571   1.000000
    3        4.899962   1.000000
    4        4.899962   1.000000
    5        7.549589  -0.000000
    6        9.287536  -0.000000
    7        9.287536  -0.000000
    8       13.570314   0.000000
    9       13.635123   0.000000
   10       13.635123   0.000000
   11       14.745420   0.000000
   12       19.140144   0.000000
   13       20.399690   0.000000
   14       20.399693   0.000000
   15       22.527772   0.000000
   16       23.137836   0.000000
 
  0.3043478E+00  0.3043478E+00  0.3043478E+00  0.1041667E-01
    1       -4.833100   1.000000
    2        1.029689   1.000000
    3        4.956158   1.000000
    4        4.956158   1.000000
    5        7.612136  -0.000000
    6        9.305136  -0.000000
    7        9.305136  -0.000000
    8       13.384659   0.000000
    9       13.384659   0.000000
   10       13.407005   0.000000
   11       14.622743   0.000000
   12       18.693564   0.000000
   13       20.650075   0.000000
   14       20.650112   0.000000
   15       22.838487   0.000000
   16       22.918017   0.000000
 
  0.2826087E+00  0.2826087E+00  0.2826087E+00  0.1041667E-01
    1       -4.983166   1.000000
    2        1.393190   1.000000
    3        5.018414   1.000000
    4        5.018414   1.000000
    5        7.680795  -0.000000
    6        9.309518  -0.000000
    7        9.309518  -0.000000
    8       13.142705   0.000000
    9       13.173881   0.000000
   10       13.173881   0.000000
   11       14.608762   0.000000
   12       18.219706   0.000000
   13       20.660150   0.000000
   14       20.660233   0.000000
   15       22.962712   0.000000
   16       23.156994   0.000000
 
  0.2608696E+00  0.2608696E+00  0.2608696E+00  0.1041667E-01
    1       -5.125092   1.000000
    2        1.769069   1.000000
    3        5.086403   1.000000
    4        5.086403   1.000000
    5        7.754960  -0.000000
    6        9.296171  -0.000000
    7        9.296171  -0.000000
    8       12.815886   0.000000
    9       13.007285   0.000000
   10       13.007285   0.000000
   11       14.660447   0.000000
   12       17.748966   0.000000
   13       20.442015   0.000000
   14       20.442053   0.000000
   15       23.260102   0.000000
   16       23.482477   0.000000
 
  0.2391304E+00  0.2391304E+00  0.2391304E+00  0.1041667E-01
    1       -5.257848   1.000000
    2        2.155502   1.000000
    3        5.159654   1.000000
    4        5.159654   1.000000
    5        7.833828  -0.000000
    6        9.261554  -0.000000
    7        9.261554  -0.000000
    8       12.456682   0.000000
    9       12.888249   0.000000
   10       12.888249   0.000000
   11       14.739664   0.000000
   12       17.303034   0.000000
   13       20.099562   0.000000
   14       20.099573   0.000000
   15       23.706386   0.000000
   16       23.713344   0.000000
 
  0.2173913E+00  0.2173913E+00  0.2173913E+00  0.1041667E-01
    1       -5.380669   1.000000
    2        2.550698   1.000000
    3        5.237549   1.000000
    4        5.237549   1.000000
    5        7.916360  -0.000000
    6        9.204051  -0.000000
    7        9.204051  -0.000000
    8       12.080497   0.000000
    9       12.818102   0.000000
   10       12.818102   0.000000
   11       14.816793   0.000000
   12       16.904133   0.000000
   13       19.707548   0.000000
   14       19.707550   0.000000
   15       23.707793   0.000000
   16       24.226725   0.000000
 
  0.1956522E+00  0.1956522E+00  0.1956522E+00  0.1041667E-01
    1       -5.492982   1.000000
    2        2.952722   1.000000
    3        5.319234   1.000003
    4        5.319234   1.000003
    5        8.001191  -0.000000
    6        9.124585  -0.000000
    7        9.124585  -0.000000
    8       11.694953   0.000000
    9       12.795451   0.000000
   10       12.795451   0.000000
   11       14.859517   0.000000
   12       16.582255   0.000000
   13       19.301734   0.000000
   14       19.301735   0.000000
   15       23.476833   0.000000
   16       24.784980   0.000000
 
  0.1739130E+00  0.1739130E+00  0.1739130E+00  0.1041667E-01
    1       -5.594362   1.000000
    2        3.359313   1.000000
    3        5.403572   1.000047
    4        5.403572   1.000047
    5        8.086526  -0.000000
    6        9.026637  -0.000000
    7        9.026637  -0.000000
    8       11.304550  -0.000000
    9       12.816110   0.000000
   10       12.816110   0.000000
   11       14.829669   0.000000
   12       16.375137   0.000000
   13       18.899660   0.000000
   14       18.899660   0.000000
   15       23.133539   0.000000
   16       25.363843   0.000000
 
  0.1521739E+00  0.1521739E+00  0.1521739E+00  0.1041667E-01
    1       -5.684439   1.000000
    2        3.767642   1.000000
    3        5.489063   1.000466
    4        5.489063   1.000466
    5        8.170009  -0.000000
    6        8.915654  -0.000000
    7        8.915654  -0.000000
    8       10.913074  -0.000000
    9       12.873596   0.000000
   10       12.873596   0.000000
   11       14.706975   0.000000
   12       16.302968   0.000000
   13       18.511642   0.000000
   14       18.511642   0.000000
   15       22.758936   0.000000
   16       25.957047   0.000000
 
  0.1304348E+00  0.1304348E+00  0.1304348E+00  0.1041667E-01
    1       -5.762943   1.000000
    2        4.173837   1.000000
    3        5.573740   1.003034
    4        5.573740   1.003034
    5        8.248483  -0.000000
    6        8.798241  -0.000000
    7        8.798241  -0.000000
    8       10.525130  -0.000000
    9       12.959749   0.000000
   10       12.959749   0.000000
   11       14.516228   0.000000
   12       16.340335   0.000000
   13       18.145406   0.000000
   14       18.145406   0.000000
   15       22.388588   0.000000
   16       26.537768   0.000000
 
  0.1086957E+00  0.1086957E+00  0.1086957E+00  0.1041667E-01
    1       -5.829667   1.000000
    2        4.572280   1.000000
    3        5.655070   1.012101
    4        5.655070   1.012103
    5        8.317596  -0.000000
    6        8.681462  -0.000000
    7        8.681462  -0.000000
    8       10.147696  -0.000000
    9       13.065150   0.000000
   10       13.065150   0.000000
   11       14.302269   0.000000
   12       16.440630   0.000000
   13       17.808271   0.000000
   14       17.808271   0.000000
   15       22.041044   0.000000
   16       27.102058   0.000000
 
  0.8695652E-01  0.8695652E-01  0.8695652E-01  0.1041667E-01
    1       -5.884466   1.000000
    2        4.954280   1.000000
    3        5.729901   1.028109
    4        5.729901   1.028111
    5        8.371131  -0.000000
    6        8.572446  -0.000000
    7        8.572446  -0.000000
    8        9.792401  -0.000000
    9       13.179170   0.000000
   10       13.179170   0.000000
   11       14.098881   0.000000
   12       16.566602   0.000000
   13       17.508419   0.000000
   14       17.508419   0.000000
   15       21.729751   0.000000
   16       27.633256   0.000000
 
  0.6521739E-01  0.6521739E-01  0.6521739E-01  0.1041667E-01
    1       -5.927212   1.000000
    2        5.305761   1.000002
    3        5.794497   1.034895
    4        5.794497   1.034895
    5        8.400201  -0.000000
    6        8.478125  -0.000000
    7        8.478125  -0.000000
    8        9.478877  -0.000000
    9       13.289755   0.000000
   10       13.289755   0.000000
   11       13.926114   0.000000
   12       16.692623   0.000000
   13       17.255659   0.000000
   14       17.255659   0.000000
   15       21.467164   0.000000
   16       28.081990   0.000000
 
  0.4347826E-01  0.4347826E-01  0.4347826E-01  0.1041667E-01
    1       -5.957801   1.000000
    2        5.603474   1.005289
    3        5.844779   1.013946
    4        5.844779   1.013946
    5        8.395428  -0.000000
    6        8.404980  -0.000000
    7        8.404980  -0.000000
    8        9.236590  -0.000000
    9       13.383547   0.000000
   10       13.383547   0.000000
   11       13.795763   0.000000
   12       16.799256   0.000000
   13       17.061567   0.000000
   14       17.061567   0.000000
   15       21.266073   0.000000
   16       28.402554   0.000000
 
  0.2173913E-01  0.2173913E-01  0.2173913E-01  0.1041667E-01
    1       -5.976172   1.000000
    2        5.811547   1.031644
    3        5.876879   0.977544
    4        5.876879   0.977538
    5        8.358529  -0.000000
    6        8.358529  -0.000000
    7        8.363031  -0.000000
    8        9.092539  -0.000000
    9       13.447069   0.000000
   10       13.447069   0.000000
   11       13.714934   0.000000
   12       16.870759   0.000000
   13       16.938362   0.000000
   14       16.938362   0.000000
   15       21.138913   0.000000
   16       28.632688   0.000000
 
  0.0000000E+00  0.0000000E+00  0.0000000E+00  0.1041667E-01
    1       -5.982290   1.000000
    2        5.887891   0.959771
    3        5.887934   0.959679
    4        5.887934   0.959678
    5        8.342562  -0.000000
    6        8.342586  -0.000000
    7        8.342586  -0.000000
    8        9.047429  -0.000000
    9       13.469632   0.000000
   10       13.469632   0.000000
   11       13.687564   0.000000
   12       16.895974   0.000000
   13       16.895985   0.000000
   14       16.895986   0.000000
   15       21.095296   0.000000
   16       28.707566   0.000000
 
  0.0000000E+00  0.0000000E+00  0.0000000E+00  0.1041667E-01
    1       -5.982290   1.000000
    2        5.887891   0.959771
    3        5.887934   0.959679
    4        5.887934   0.959678
    5        8.342562  -0.000000
    6        8.342586  -0.000000
    7        8.342586  -0.000000
    8        9.047429  -0.000000
    9       13.469632   0.000000
   10       13.469632   0.000000
   11       13.687564   0.000000
   12       16.895974   0.000000
   13       16.895985   0.000000
   14       16.895986   0.000000
   15       21.095296   0.000000
   16       28.707013   0.000000
 
  0.0000000E+00  0.2173913E-01  0.2173913E-01  0.1041667E-01
    1       -5.974130   1.000000
    2        5.829467   1.024254
    3        5.851264   1.008311
    4        5.851291   1.008279
    5        8.322311  -0.000000
    6        8.389286  -0.000000
    7        8.389303  -0.000000
    8        9.104676  -0.000000
    9       13.401082   0.000000
   10       13.478674   0.000000
   11       13.724033   0.000000
   12       16.910265   0.000000
   13       16.910271   0.000000
   14       16.945840   0.000000
   15       21.153758   0.000000
   16       28.603133   0.000000
 
  0.0000000E+00  0.4347826E-01  0.4347826E-01  0.1041667E-01
    1       -5.949623   1.000000
    2        5.665977   1.014079
    3        5.749114   1.032003
    4        5.749141   1.032010
    5        8.263364  -0.000000
    6        8.521647  -0.000000
    7        8.521664  -0.000000
    8        9.262799  -0.000000
    9       13.213084   0.000000
   10       13.505800   0.000000
   11       13.831558   0.000000
   12       16.953099   0.000000
   13       16.953106   0.000000
   14       17.080946   0.000000
   15       21.327505   0.000000
   16       28.224963   0.000000
 
  0.0000000E+00  0.6521739E-01  0.6521739E-01  0.1041667E-01
    1       -5.908794   1.000000
    2        5.423715   1.000083
    3        5.599077   1.004888
    4        5.599104   1.004891
    5        8.170703  -0.000000
    6        8.721906  -0.000000
    7        8.721925  -0.000000
    8        9.489362  -0.000000
    9       12.947233   0.000000
   10       13.551005   0.000000
   11       14.005002   0.000000
   12       17.024401   0.000000
   13       17.024408   0.000000
   14       17.270445   0.000000
   15       21.611282   0.000000
   16       27.750147   0.000000
 
  0.0000000E+00  0.8695652E-01  0.8695652E-01  0.1041667E-01
    1       -5.851684   1.000000
    2        5.128491   1.000000
    3        5.419195   1.000073
    4        5.419221   1.000073
    5        8.051190  -0.000000
    6        8.971845  -0.000000
    7        8.971864  -0.000000
    8        9.744778  -0.000000
    9       12.652775   0.000000
   10       13.614281   0.000000
   11       14.237212   0.000000
   12       17.124005   0.000000
   13       17.124013   0.000000
   14       17.487025   0.000000
   15       21.995766   0.000000
   16       27.212694   0.000000
 
  0.0000000E+00  0.1086957E+00  0.1086957E+00  0.1041667E-01
    1       -5.778384   1.000000
    2        4.799227   1.000000
    3        5.223332   1.000000
    4        5.223358   1.000000
    5        7.912243  -0.000000
    6        9.257342  -0.000000
    7        9.257362  -0.000000
    8        9.981345  -0.000000
    9       12.385358   0.000000
   10       13.695620   0.000000
   11       14.520337   0.000000
   12       17.251609   0.000000
   13       17.251611   0.000000
   14       17.714952   0.000000
   15       22.467980   0.000000
   16       26.643937   0.000000
 
  0.0000000E+00  0.1304348E+00  0.1304348E+00  0.1041667E-01
    1       -5.688941   1.000000
    2        4.448246   1.000000
    3        5.020991   1.000000
    4        5.021016   1.000000
    5        7.760869  -0.000000
    6        9.568600  -0.000000
    7        9.568621  -0.000000
    8       10.133315  -0.000000
    9       12.216697   0.000000
   10       13.795008   0.000000
   11       14.846729   0.000000
   12       17.406670   0.000000
   13       17.406676   0.000000
   14       17.948487   0.000000
   15       23.012638   0.000000
   16       26.062506   0.000000
 
  0.0000000E+00  0.1521739E+00  0.1521739E+00  0.1041667E-01
    1       -5.583452   1.000000
    2        4.083278   1.000000
    3        4.818460   1.000000
    4        4.818484   1.000000
    5        7.603165  -0.000000
    6        9.898991  -0.000000
    7        9.899013  -0.000000
    8       10.131276  -0.000000
    9       12.220508   0.000000
   10       13.912429   0.000000
   11       15.209394   0.000000
   12       17.588280   0.000000
   13       17.588286   0.000000
   14       18.187789   0.000000
   15       23.613595   0.000000
   16       25.479140   0.000000
 
  0.0000000E+00  0.1739130E+00  0.1739130E+00  0.1041667E-01
    1       -5.462033   1.000000
    2        3.709222   1.000000
    3        4.619945   1.000000
    4        4.619969   1.000000
    5        7.444224  -0.000000
    6        9.967973  -0.000000
    7       10.243990  -0.000000
    8       10.244012  -0.000000
    9       12.407073   0.000000
   10       14.047862   0.000000
   11       15.602045   0.000000
   12       17.794899   0.000000
   13       17.794906   0.000000
   14       18.435661   0.000000
   15       24.254627   0.000000
   16       24.901765   0.000000
 
  0.0000000E+00  0.1956522E+00  0.1956522E+00  0.1041667E-01
    1       -5.324851   1.000000
    2        3.329232   1.000000
    3        4.428292   1.000000
    4        4.428316   1.000000
    5        7.288152  -0.000000
    6        9.702227  -0.000000
    7       10.600434  -0.000000
    8       10.600456  -0.000000
    9       12.719563   0.000000
   10       14.201290   0.000000
   11       16.018895   0.000000
   12       18.023948   0.000000
   13       18.023955   0.000000
   14       18.695673   0.000000
   15       24.337292   0.000000
   16       24.337383   0.000000
 
  0.0000000E+00  0.2173913E+00  0.2173913E+00  0.1041667E-01
    1       -5.172033   1.000000
    2        2.945440   1.000000
    3        4.245518   1.000000
    4        4.245541   1.000000
    5        7.138262  -0.000000
    6        9.390339  -0.000000
    7       10.966024  -0.000000
    8       10.966047  -0.000000
    9       13.102792   0.000000
   10       14.372678   0.000000
   11       16.454283   0.000000
   12       18.271039   0.000000
   13       18.271046   0.000000
   14       18.971303   0.000000
   15       23.792718   0.000000
   16       23.792813   0.000000
 
  0.0000000E+00  0.2391304E+00  0.2391304E+00  0.1041667E-01
    1       -5.003761   1.000000
    2        2.559354   1.000000
    3        4.073069   1.000000
    4        4.073092   1.000000
    5        6.997207  -0.000000
    6        9.064616  -0.000000
    7       11.339094  -0.000000
    8       11.339117  -0.000000
    9       13.524857   0.000000
   10       14.561996   0.000000
   11       16.902240   0.000000
   12       18.528530   0.000000
   13       18.528537   0.000000
   14       19.265639   0.000000
   15       23.277510   0.000000
   16       23.277561   0.000000
 
  0.0000000E+00  0.2608696E+00  0.2608696E+00  0.1041667E-01
    1       -4.820246   1.000000
    2        2.172174   1.000000
    3        3.912017   1.000000
    4        3.912039   1.000000
    5        6.867129  -0.000000
    6        8.741918  -0.000000
    7       11.718412   0.000000
    8       11.718435   0.000000
    9       13.968702   0.000000
   10       14.769212   0.000000
   11       17.355859   0.000000
   12       18.782738   0.000000
   13       18.782744   0.000000
   14       19.581306   0.000000
   15       22.806526   0.000000
   16       22.806541   0.000000
 
  0.0000000E+00  0.2826087E+00  0.2826087E+00  0.1041667E-01
    1       -4.621751   1.000000
    2        1.784913   1.000000
    3        3.763169   1.000000
    4        3.763192   1.000000
    5        6.749773  -0.000002
    6        8.431340  -0.000000
    7       12.103065   0.000000
    8       12.103089   0.000000
    9       14.424496   0.000000
   10       14.994285   0.000000
   11       17.806454   0.000000
   12       19.008836   0.000000
   13       19.008843   0.000000
   14       19.920472   0.000000
   15       22.405257   0.000000
   16       22.405281   0.000000
 
  0.0000000E+00  0.3043478E+00  0.3043478E+00  0.1041667E-01
    1       -4.408513   1.000000
    2        1.398513   1.000000
    3        3.627151   1.000000
    4        3.627174   1.000000
    5        6.646588  -0.000055
    6        8.138075  -0.000000
    7       12.492403   0.000000
    8       12.492427   0.000000
    9       14.885892   0.000000
   10       15.237170   0.000000
   11       18.242457   0.000000
   12       19.164499   0.000000
   13       19.164507   0.000000
   14       20.284839   0.000000
   15       22.116364   0.000000
   16       22.116658   0.000000
 
  0.0000000E+00  0.3260870E+00  0.3260870E+00  0.1041667E-01
    1       -4.180829   1.000000
    2        1.013865   1.000000
    3        3.504457   1.000000
    4        3.504479   1.000000
    5        6.558793  -0.000564
    6        7.865170  -0.000000
    7       12.885928   0.000000
    8       12.885953   0.000000
    9       15.348339   0.000000
   10       15.497820   0.000000
   11       18.647959   0.000000
   12       19.194439   0.000000
   13       19.194465   0.000000
   14       20.675632   0.000000
   15       21.995114   0.000000
   16       22.003502   0.000000
 
  0.0000000E+00  0.3478261E+00  0.3478261E+00  0.1041667E-01
    1       -3.939036   1.000000
    2        0.631893   1.000000
    3        3.395460   1.000000
    4        3.395482   1.000000
    5        6.487437  -0.002720
    6        7.614412  -0.000000
    7       13.283206   0.000000
    8       13.283231   0.000000
    9       15.776173   0.000000
   10       15.808263   0.000000
   11       19.001513   0.000000
   12       19.066724   0.000000
   13       19.066735   0.000000
   14       21.093505   0.000000
   15       21.475120   0.000000
   16       22.073221   0.000000
 
  0.0000000E+00  0.3695652E+00  0.3695652E+00  0.1041667E-01
    1       -3.683534   1.000000
    2        0.253548   1.000000
    3        3.300476   1.000000
    4        3.300498   1.000000
    5        6.433443  -0.007291
    6        7.386822  -0.000000
    7       13.683726   0.000000
    8       13.683750   0.000000
    9       16.072168   0.000000
   10       16.262617   0.000000
   11       18.805037   0.000000
   12       18.805040   0.000000
   13       19.276674   0.000000
   14       20.961594   0.000000
   15       21.538419   0.000000
   16       22.326700   0.000000
 
  0.0000000E+00  0.3913043E+00  0.3913043E+00  0.1041667E-01
    1       -3.414710   1.000000
    2       -0.120235   1.000000
    3        3.219744   1.000000
    4        3.219766   1.000000
    5        6.397624  -0.012617
    6        7.182885  -0.000000
    7       14.086664   0.000000
    8       14.086689   0.000000
    9       16.385733   0.000000
   10       16.708626   0.000000
   11       18.459728   0.000000
   12       18.459740   0.000000
   13       19.446979   0.000000
   14       20.463415   0.000000
   15       22.009444   0.000000
   16       22.704938   0.000000
 
  0.0000000E+00  0.4130435E+00  0.4130435E+00  0.1041667E-01
    1       -3.133020   1.000000
    2       -0.488538   1.000000
    3        3.153455   1.000000
    4        3.153476   1.000000
    5        6.380733  -0.015827
    6        7.002740  -0.000000
    7       14.490406   0.000000
    8       14.490431   0.000000
    9       16.716787   0.000000
   10       17.143561   0.000000
   11       18.071825   0.000000
   12       18.071839   0.000000
   13       19.496105   0.000000
   14       19.980950   0.000000
   15       22.504481   0.000000
   16       23.167161   0.000000
 
  0.0000000E+00  0.4347826E+00  0.4347826E+00  0.1041667E-01
    1       -2.838976   1.000000
    2       -0.850416   1.000000
    3        3.101754   1.000000
    4        3.101776   1.000000
    5        6.383464  -0.015280
    6        6.846283  -0.000000
    7       14.891227   0.000000
    8       14.891252   0.000000
    9       17.065239   0.000000
   10       17.564384   0.000000
   11       17.668395   0.000000
   12       17.668411   0.000000
   13       19.425930   0.000000
   14       19.514517   0.000000
   15       23.018367   0.000000
   16       23.687968   0.000000
 
  0.0000000E+00  0.4565217E+00  0.4565217E+00  0.1041667E-01
    1       -2.533155   1.000000
    2       -1.204955   1.000000
    3        3.064750   1.000000
    4        3.064772   1.000000
    5        6.406478  -0.011110
    6        6.713241  -0.000007
    7       15.279104   0.000000
    8       15.279132   0.000000
    9       17.272228   0.000000
   10       17.272243   0.000000
   11       17.430986   0.000000
   12       17.967293   0.000000
   13       19.064379   0.000000
   14       19.254076   0.000000
   15       23.543304   0.000000
   16       24.250988   0.000000
 
  0.0000000E+00  0.4782609E+00  0.4782609E+00  0.1041667E-01
    1       -2.216149   1.000000
    2       -1.551289   1.000000
    3        3.042520   1.000000
    4        3.042542   1.000000
    5        6.450388  -0.005458
    6        6.603228  -0.000183
    7       15.620119   0.000000
    8       15.620151   0.000000
    9       16.924044   0.000000
   10       16.924056   0.000000
   11       17.813917   0.000000
   12       18.347099   0.000000
   13       18.630774   0.000000
   14       19.003882   0.000000
   15       24.060662   0.000000
   16       24.828819   0.000000
 
  0.0000000E+00  0.5000000E+00  0.5000000E+00  0.1041667E-01
    1       -1.888619   1.000000
    2       -1.888617   1.000000
    3        3.035106   1.000000
    4        3.035127   1.000000
    5        6.515779  -0.001509
    6        6.515791  -0.001508
    7       15.786300   0.000000
    8       15.786336   0.000000
    9       16.755140   0.000000
   10       16.755148   0.000000
   11       18.213895   0.000000
   12       18.213896   0.000000
   13       18.696290   0.000000
   14       18.696295   0.000000
   15       24.525408   0.000000
   16       24.525759   0.000000
 
  0.0000000E+00  0.5000000E+00  0.5000000E+00  0.1041667E-01
    1       -1.888619   1.000000
    2       -1.888617   1.000000
    3        3.035106   1.000000
    4        3.035127   1.000000
    5        6.515779  -0.001509
    6        6.515791  -0.001508
    7       15.786300   0.000000
    8       15.786336   0.000000
    9       16.755140   0.000000
   10       16.755148   0.000000
   11       18.213895   0.000000
   12       18.213896   0.000000
   13       18.696290   0.000000
   14       18.696295   0.000000
   15       24.525292   0.000000
   16       24.525312   0.000000
 
  0.1086957E-01  0.5054348E+00  0.5054348E+00  0.1041667E-01
    1       -1.889036   1.000000
    2       -1.887513   1.000000
    3        3.027918   1.000000
    4        3.035953   1.000000
    5        6.516722  -0.001478
    6        6.526368  -0.001196
    7       15.774710   0.000000
    8       15.780083   0.000000
    9       16.737793   0.000000
   10       16.741061   0.000000
   11       18.226249   0.000000
   12       18.227764   0.000000
   13       18.702310   0.000000
   14       18.715322   0.000000
   15       24.499707   0.000000
   16       24.513560   0.000000
 
  0.2173913E-01  0.5108696E+00  0.5108696E+00  0.1041667E-01
    1       -1.890304   1.000000
    2       -1.884195   1.000000
    3        3.006648   1.000000
    4        3.038430   1.000000
    5        6.519549  -0.001390