       N       E                     dE             d eps       ncg     rms          ort
DAV:   1     0.429838265631E+01    0.42984E+01   -0.49275E+03  1536   0.537E+02
DAV:   2    -0.720669284323E+01   -0.11505E+02   -0.10718E+02  1536   0.387E+01
DAV:   3    -0.729603818584E+01   -0.89345E-01   -0.89203E-01  1536   0.420E+00
DAV:   4    -0.729629779884E+01   -0.25961E-03   -0.25961E-03  1536   0.254E-01
DAV:   5    -0.729629781923E+01   -0.20393E-07   -0.19841E-07  1536   0.185E-03
SDA:   6    -0.684878935109E+01    0.44751E+00   -0.19841E-07  1536   0.189E+00 0.000E+00
CGA:   7    -0.693490768690E+01   -0.86118E-01   -0.86222E-01  1536   0.221E-01-0.445E-03
CGA:   8    -0.695024578642E+01   -0.15338E-01   -0.15408E-01  1536   0.439E-02-0.158E-03
CGA:   9    -0.695257524691E+01   -0.23295E-02   -0.23259E-02  1536   0.199E-03 0.131E-04
CGA:  10    -0.695266982407E+01   -0.94577E-04   -0.94296E-04  1536   0.122E-04 0.127E-05
CGA:  11    -0.695267648949E+01   -0.66654E-05   -0.66351E-05  1536   0.129E-05 0.109E-06
CGA:  12    -0.695267713523E+01   -0.64573E-06   -0.61646E-06  1536   0.122E-06 0.148E-06
CGA:  13    -0.695267721122E+01   -0.75992E-07   -0.75294E-07  1536   0.196E-07 0.657E-08
CGA:  14    -0.695267722488E+01   -0.13659E-07    0.30912E-07  1536   0.666E-08 0.108E-07
CGA:  15    -0.695267723102E+01   -0.61422E-08    0.18585E-08  1536   0.257E-08 0.389E-08
   1 F= -.69526772E+01 E0= -.69545797E+01  d E =0.570750E-02
