 vasp.5.4.4.18Apr17-6-g9f103f2a35 (build Jul 29 2018 09:17:02) complex          
  
 executed on             LinuxIFC date 2018.08.05  18:40:42
 running on   16 total cores
 distrk:  each k-point on   16 cores,    1 groups
 distr:  one band on NCORES_PER_BAND=   1 cores,   16 groups


--------------------------------------------------------------------------------------------------------


 INCAR:
 POTCAR:    PAW_PBE Si 05Jan2001                  

 ----------------------------------------------------------------------------- 
|                                                                             |
|           W    W    AA    RRRRR   N    N  II  N    N   GGGG   !!!           |
|           W    W   A  A   R    R  NN   N  II  NN   N  G    G  !!!           |
|           W    W  A    A  R    R  N N  N  II  N N  N  G       !!!           |
|           W WW W  AAAAAA  RRRRR   N  N N  II  N  N N  G  GGG   !            |
|           WW  WW  A    A  R   R   N   NN  II  N   NN  G    G                |
|           W    W  A    A  R    R  N    N  II  N    N   GGGG   !!!           |
|                                                                             |
|      For optimal performance we recommend to set                            |
|        NCORE= 4 - approx SQRT( number of cores)                             |
|      NCORE specifies how many cores store one orbital (NPAR=cpu/NCORE).     |
|      This setting can  greatly improve the performance of VASP for DFT.     |
|      The default,   NCORE=1            might be grossly inefficient         |
|      on modern multi-core architectures or massively parallel machines.     |
|      Do your own testing !!!!                                               |
|      Unfortunately you need to use the default for GW and RPA calculations. |
|      (for HF NCORE is supported but not extensively tested yet)             |
|                                                                             |
 ----------------------------------------------------------------------------- 

 POTCAR:    PAW_PBE Si 05Jan2001                  
   VRHFIN =Si: s2p2                                                             
   LEXCH  = PE                                                                  
   EATOM  =   103.0669 eV,    7.5752 Ry                                         
                                                                                
   TITEL  = PAW_PBE Si 05Jan2001                                                
   LULTRA =        F    use ultrasoft PP ?                                      
   IUNSCR =        1    unscreen: 0-lin 1-nonlin 2-no                           
   RPACOR =    1.500    partial core radius                                     
   POMASS =   28.085; ZVAL   =    4.000    mass and valenz                      
   RCORE  =    1.900    outmost cutoff radius                                   
   RWIGS  =    2.480; RWIGS  =    1.312    wigner-seitz radius (au A)           
   ENMAX  =  245.345; ENMIN  =  184.009 eV                                      
   ICORE  =        2    local potential                                         
   LCOR   =        T    correct aug charges                                     
   LPAW   =        T    paw PP                                                  
   EAUG   =  322.069                                                            
   DEXC   =    0.000                                                            
   RMAX   =    1.950    core radius for proj-oper                               
   RAUG   =    1.300    factor for augmentation sphere                          
   RDEP   =    1.993    radius for radial grids                                 
   RDEPT  =    1.837    core radius for aug-charge                              
                                                                                
   Atomic configuration                                                         
    6 entries                                                                   
     n  l   j            E        occ.                                          
     1  0  0.50     -1785.8828   2.0000                                         
     2  0  0.50      -139.4969   2.0000                                         
     2  1  1.50       -95.5546   6.0000                                         
     3  0  0.50       -10.8127   2.0000                                         
     3  1  0.50        -4.0811   2.0000                                         
     3  2  1.50        -4.0817   0.0000                                         
   Description                                                                  
     l       E           TYP  RCUT    TYP  RCUT                                 
     0    -10.8127223     23  1.900                                             
     0     -7.6451159     23  1.900                                             
     1     -4.0811372     23  1.900                                             
     1      2.4879257     23  1.900                                             
     2     -4.0817478      7  1.900                                             
  local pseudopotential read in
  partial core-charges read in
  partial kinetic energy density read in
  atomic valenz-charges read in
  non local Contribution for L=           0  read in
    real space projection operators read in
  non local Contribution for L=           0  read in
    real space projection operators read in
  non local Contribution for L=           1  read in
    real space projection operators read in
  non local Contribution for L=           1  read in
    real space projection operators read in
    PAW grid and wavefunctions read in
 
   number of l-projection  operators is LMAX  =           4
   number of lm-projection operators is LMMAX =           8
 
  PAW_PBE Si 05Jan2001                  :
 energy of atom  1       EATOM= -103.0669
 kinetic energy error for atom=    0.0003 (will be added to EATOM!!)
 
 
 POSCAR: Si                                      
  positions in direct lattice
  No initial velocities read in
 exchange correlation table for  LEXCH =        8
   RHO(1)=    0.500       N(1)  =     2000
   RHO(2)=  100.500       N(2)  =     4000
 


--------------------------------------------------------------------------------------------------------


 ion  position               nearest neighbor table
   1  0.875  0.875  0.875-   2 2.37   2 2.37   2 2.37   2 2.37
   2  0.125  0.125  0.125-   1 2.37   1 2.37   1 2.37   1 2.37
 
  LATTYP: Found a face centered cubic cell.
 ALAT       =     5.4680000000
  
  Lattice vectors:
  
 A1 = (   0.0000000000,   2.7340000000,   2.7340000000)
 A2 = (   2.7340000000,   0.0000000000,   2.7340000000)
 A3 = (   2.7340000000,   2.7340000000,   0.0000000000)


Analysis of symmetry for initial positions (statically):
=====================================================================
 Subroutine PRICEL returns:
 Original cell was already a primitive cell.
 

 Routine SETGRP: Setting up the symmetry group for a 
 face centered cubic supercell.


 Subroutine GETGRP returns: Found 48 space group operations
 (whereof 12 operations were pure point group operations)
 out of a pool of 48 trial point group operations.


The static configuration has the point symmetry D_3d.
 The point group associated with its full space group is O_h .


Analysis of symmetry for dynamics (positions and initial velocities):
=====================================================================
 Subroutine PRICEL returns:
 Original cell was already a primitive cell.
 

 Routine SETGRP: Setting up the symmetry group for a 
 face centered cubic supercell.


 Subroutine GETGRP returns: Found 48 space group operations
 (whereof 12 operations were pure point group operations)
 out of a pool of 48 trial point group operations.


The dynamic configuration has the point symmetry D_3d.
 The point group associated with its full space group is O_h .


 Subroutine INISYM returns: Found 48 space group operations
 (whereof 12 operations are pure point group operations),
 and found     1 'primitive' translations

 
 
 KPOINTS: kpoints for bandstructure L-G-X-U K-G   
  interpolating k-points between supplied coordinates
  k-points in reciprocal lattice
Space group operators:
 irot       det(A)        alpha          n_x          n_y          n_z        tau_x        tau_y        tau_z
    1     1.000000     0.000001     1.000000     0.000000     0.000000     0.000000     0.000000     0.000000
    2    -1.000000     0.000001     1.000000     0.000000     0.000000     0.000000     0.000000     0.000000
    3     1.000000   120.000000    -0.577350    -0.577350    -0.577350     0.000000     0.000000     0.000000
    4    -1.000000   120.000000    -0.577350    -0.577350    -0.577350     0.000000     0.000000     0.000000
    5     1.000000   120.000000     0.577350     0.577350     0.577350     0.000000     0.000000     0.000000
    6    -1.000000   120.000000     0.577350     0.577350     0.577350     0.000000     0.000000     0.000000
    7     1.000000   180.000000     0.000000    -0.707107     0.707107     0.000000     0.000000     0.000000
    8    -1.000000   180.000000     0.000000    -0.707107     0.707107     0.000000     0.000000     0.000000
    9     1.000000   180.000000     0.707107    -0.707107     0.000000     0.000000     0.000000     0.000000
   10    -1.000000   180.000000     0.707107    -0.707107     0.000000     0.000000     0.000000     0.000000
   11     1.000000   180.000000     0.707107     0.000000    -0.707107     0.000000     0.000000     0.000000
   12    -1.000000   180.000000     0.707107     0.000000    -0.707107     0.000000     0.000000     0.000000
   13     1.000000    90.000000     0.000000     0.000000    -1.000000     0.500000     0.000000     0.000000
   14    -1.000000    90.000000     0.000000     0.000000    -1.000000     0.500000     0.000000     0.000000
   15     1.000000   180.000000     0.000000     0.707107     0.707107     0.500000     0.000000     0.000000
   16    -1.000000   180.000000     0.000000     0.707107     0.707107     0.500000     0.000000     0.000000
   17     1.000000    90.000000     0.000000     1.000000     0.000000     0.500000     0.000000     0.000000
   18    -1.000000    90.000000     0.000000     1.000000     0.000000     0.500000     0.000000     0.000000
   19     1.000000   180.000000     0.000000     0.000000     1.000000     0.000000     0.000000     0.500000
   20    -1.000000   180.000000     0.000000     0.000000     1.000000     0.000000     0.000000     0.500000
   21     1.000000   120.000000    -0.577350     0.577350     0.577350     0.000000     0.000000     0.500000
   22    -1.000000   120.000000    -0.577350     0.577350     0.577350     0.000000     0.000000     0.500000
   23     1.000000   120.000000    -0.577350     0.577350    -0.577350     0.000000     0.000000     0.500000
   24    -1.000000   120.000000    -0.577350     0.577350    -0.577350     0.000000     0.000000     0.500000
   25     1.000000    90.000000     0.000000     0.000000     1.000000     0.000000     0.500000     0.000000
   26    -1.000000    90.000000     0.000000     0.000000     1.000000     0.000000     0.500000     0.000000
   27     1.000000    90.000000    -1.000000     0.000000     0.000000     0.000000     0.500000     0.000000
   28    -1.000000    90.000000    -1.000000     0.000000     0.000000     0.000000     0.500000     0.000000
   29     1.000000   180.000000     0.707107     0.000000     0.707107     0.000000     0.500000     0.000000
   30    -1.000000   180.000000     0.707107     0.000000     0.707107     0.000000     0.500000     0.000000
   31     1.000000   120.000000     0.577350    -0.577350     0.577350     0.500000     0.000000     0.000000
   32    -1.000000   120.000000     0.577350    -0.577350     0.577350     0.500000     0.000000     0.000000
   33     1.000000   120.000000    -0.577350    -0.577350     0.577350     0.500000     0.000000     0.000000
   34    -1.000000   120.000000    -0.577350    -0.577350     0.577350     0.500000     0.000000     0.000000
   35     1.000000   180.000000     1.000000     0.000000     0.000000     0.500000     0.000000     0.000000
   36    -1.000000   180.000000     1.000000     0.000000     0.000000     0.500000     0.000000     0.000000
   37     1.000000    90.000000     0.000000    -1.000000     0.000000     0.000000     0.000000     0.500000
   38    -1.000000    90.000000     0.000000    -1.000000     0.000000     0.000000     0.000000     0.500000
   39     1.000000   180.000000     0.707107     0.707107     0.000000     0.000000     0.000000     0.500000
   40    -1.000000   180.000000     0.707107     0.707107     0.000000     0.000000     0.000000     0.500000
   41     1.000000    90.000000     1.000000     0.000000     0.000000     0.000000     0.000000     0.500000
   42    -1.000000    90.000000     1.000000     0.000000     0.000000     0.000000     0.000000     0.500000
   43     1.000000   120.000000     0.577350    -0.577350    -0.577350     0.000000     0.500000     0.000000
   44    -1.000000   120.000000     0.577350    -0.577350    -0.577350     0.000000     0.500000     0.000000
   45     1.000000   180.000000     0.000000     1.000000     0.000000     0.000000     0.500000     0.000000
   46    -1.000000   180.000000     0.000000     1.000000     0.000000     0.000000     0.500000     0.000000
   47     1.000000   120.000000     0.577350     0.577350    -0.577350     0.000000     0.500000     0.000000
   48    -1.000000   120.000000     0.577350     0.577350    -0.577350     0.000000     0.500000     0.000000


--------------------------------------------------------------------------------------------------------




 Dimension of arrays:
   k-points           NKPTS =     96   k-points in BZ     NKDIM =     96   number of bands    NBANDS=     16
   number of dos      NEDOS =    301   number of ions     NIONS =      2
   non local maximal  LDIM  =      4   non local SUM 2l+1 LMDIM =      8
   total plane-waves  NPLWV =  13824
   max r-space proj   IRMAX =      1   max aug-charges    IRDMAX=   1613
   dimension x,y,z NGX =    24 NGY =   24 NGZ =   24
   dimension x,y,z NGXF=    24 NGYF=   24 NGZF=   24
   support grid    NGXF=    24 NGYF=   24 NGZF=   24
   ions per type =               2
   NGX,Y,Z   is equivalent  to a cutoff of  10.32, 10.32, 10.32 a.u.
   NGXF,Y,Z  is equivalent  to a cutoff of  10.32, 10.32, 10.32 a.u.

 SYSTEM =  Si                                      
 POSCAR =  Si                                      

 Startparameter for this run:
   NWRITE =      2    write-flag & timer
   PREC   = medium    normal or accurate (medium, high low for compatibility)
   ISTART =      0    job   : 0-new  1-cont  2-samecut
   ICHARG =      2    charge: 1-file 2-atom 10-const
   ISPIN  =      1    spin polarized calculation?
   LNONCOLLINEAR =      F non collinear calculations
   LSORBIT =      F    spin-orbit coupling
   INIWAV =      1    electr: 0-lowe 1-rand  2-diag
   LASPH  =      F    aspherical Exc in radial PAW
   METAGGA=      F    non-selfconsistent MetaGGA calc.

 Electronic Relaxation 1
   ENCUT  =  600.0 eV  44.10 Ry    6.64 a.u.   7.72  7.72  7.72*2*pi/ulx,y,z
   ENINI  =  600.0     initial cutoff
   ENAUG  =  322.1 eV  augmentation charge cutoff
   NELM   =     60;   NELMIN=  2; NELMDL= -5     # of ELM steps 
   EDIFF  = 0.1E-07   stopping-criterion for ELM
   LREAL  =      F    real-space projection
   NLSPLINE    = F    spline interpolate recip. space projectors
   LCOMPAT=      F    compatible to vasp.4.4
   GGA_COMPAT  = T    GGA compatible to vasp.4.4-vasp.4.6
   LMAXPAW     = -100 max onsite density
   LMAXMIX     =    2 max onsite mixed and CHGCAR
   VOSKOWN=      0    Vosko Wilk Nusair interpolation
   ROPT   =    0.00000
 Ionic relaxation
   EDIFFG = 0.1E-06   stopping-criterion for IOM
   NSW    =      0    number of steps for IOM
   NBLOCK =      1;   KBLOCK =      1    inner block; outer block 
   IBRION =     -1    ionic relax: 0-MD 1-quasi-New 2-CG
   NFREE  =      0    steps in history (QN), initial steepest desc. (CG)
   ISIF   =      2    stress and relaxation
   IWAVPR =     10    prediction:  0-non 1-charg 2-wave 3-comb
   ISYM   =      2    0-nonsym 1-usesym 2-fastsym
   LCORR  =      T    Harris-Foulkes like correction to forces

   POTIM  = 0.5000    time-step for ionic-motion
   TEIN   =    0.0    initial temperature
   TEBEG  =    0.0;   TEEND  =   0.0 temperature during run
   SMASS  =  -3.00    Nose mass-parameter (am)
   estimated Nose-frequenzy (Omega)   =  0.10E-29 period in steps =****** mass=  -0.342E-27a.u.
   SCALEE = 1.0000    scale energy and forces
   NPACO  =    256;   APACO  = 16.0  distance and # of slots for P.C.
   PSTRESS=    0.0 pullay stress

  Mass of Ions in am
   POMASS =  28.09
  Ionic Valenz
   ZVAL   =   4.00
  Atomic Wigner-Seitz radii
   RWIGS  =  -1.00
  virtual crystal weights 
   VCA    =   1.00
   NELECT =       8.0000    total number of electrons
   NUPDOWN=      -1.0000    fix difference up-down

 DOS related values:
   EMIN   =  10.00;   EMAX   =-10.00  energy-range for DOS
   EFERMI =   0.00
   ISMEAR =     1;   SIGMA  =   0.20  broadening in eV -4-tet -1-fermi 0-gaus

 Electronic relaxation 2 (details)
   IALGO  =     58    algorithm
   LDIAG  =      T    sub-space diagonalisation (order eigenvalues)
   LSUBROT=      F    optimize rotation matrix (better conditioning)
   TURBO    =      0    0=normal 1=particle mesh
   IRESTART =      0    0=no restart 2=restart with 2 vectors
   NREBOOT  =      0    no. of reboots
   NMIN     =      0    reboot dimension
   EREF     =   0.00    reference energy to select bands
   IMIX   =      4    mixing-type and parameters
     AMIX     =   0.40;   BMIX     =  1.00
     AMIX_MAG =   1.60;   BMIX_MAG =  1.00
     AMIN     =   0.10
     WC   =   100.;   INIMIX=   1;  MIXPRE=   1;  MAXMIX= -45

 Intra band minimization:
   WEIMIN = 0.0000     energy-eigenvalue tresh-hold
   EBREAK =  0.16E-09  absolut break condition
   DEPER  =   0.30     relativ break condition  

   TIME   =   0.40     timestep for ELM

  volume/ion in A,a.u.               =      20.44       137.91
  Fermi-wavevector in a.u.,A,eV,Ry     =   0.950524  1.796229 12.292802  0.903495
  Thomas-Fermi vector in A             =   2.078909
 
 Write flags
   LWAVE        =      T    write WAVECAR
   LDOWNSAMPLE  =      F    k-point downsampling of WAVECAR
   LCHARG       =      T    write CHGCAR
   LVTOT        =      F    write LOCPOT, total local potential
   LVHAR        =      F    write LOCPOT, Hartree potential only
   LELF         =      F    write electronic localiz. function (ELF)
   LORBIT       =     11    0 simple, 1 ext, 2 COOP (PROOUT), +10 PAW based schemes


 Dipole corrections
   LMONO  =      F    monopole corrections only (constant potential shift)
   LDIPOL =      F    correct potential (dipole corrections)
   IDIPOL =      0    1-x, 2-y, 3-z, 4-all directions 
   EPSILON=  1.0000000 bulk dielectric constant

 Exchange correlation treatment:
   GGA     =    PE    GGA type
   LEXCH   =     8    internal setting for exchange type
   VOSKOWN=      0    Vosko Wilk Nusair interpolation
   LHFCALC =     F    Hartree Fock is set to
   LHFONE  =     F    Hartree Fock one center treatment
   AEXX    =    0.0000 exact exchange contribution

 Linear response parameters
   LEPSILON=     F    determine dielectric tensor
   LRPA    =     F    only Hartree local field effects (RPA)
   LNABLA  =     F    use nabla operator in PAW spheres
   LVEL    =     F    velocity operator in full k-point grid
   LINTERFAST=   F  fast interpolation
   KINTER  =     0    interpolate to denser k-point grid
   CSHIFT  =0.1000    complex shift for real part using Kramers Kronig
   OMEGAMAX=  -1.0    maximum frequency
   DEG_THRESHOLD= 0.2000000E-02 threshold for treating states as degnerate
   RTIME   =   -0.100 relaxation time in fs
  (WPLASMAI=    0.000 imaginary part of plasma frequency in eV, 0.658/RTIME)
   DFIELD  = 0.0000000 0.0000000 0.0000000 field for delta impulse in time
 
 Orbital magnetization related:
   ORBITALMAG=     F  switch on orbital magnetization
   LCHIMAG   =     F  perturbation theory with respect to B field
   DQ        =  0.001000  dq finite difference perturbation B field
   LLRAUG    =     F  two centre corrections for induced B field



--------------------------------------------------------------------------------------------------------


 Static calculation
 charge density and potential will be updated during run
 non-spin polarized calculation
 Conjugate gradient for all bands (Freysoldt, et al. PRB 79, 241103 (2009))
 preconditioned conjugated gradient                                        
 perform sub-space diagonalisation
    before iterative eigenvector-optimisation
 modified Broyden-mixing scheme, WC =      100.0
 initial mixing is a Kerker type mixing with AMIX =  0.4000 and BMIX =      1.0000
 Hartree-type preconditioning will be used
 using additional bands           12
 reciprocal scheme for non local part
 use partial core corrections
 no Harris-corrections to forces 
 use gradient corrections 
 use of overlap-Matrix (Vanderbilt PP)
 Methfessel and Paxton  Order N= 1 SIGMA  =   0.20


--------------------------------------------------------------------------------------------------------


  energy-cutoff  :      600.00
  volume of cell :       40.87
      direct lattice vectors                 reciprocal lattice vectors
     0.000000000  2.734000000  2.734000000    -0.182882224  0.182882224  0.182882224
     2.734000000  0.000000000  2.734000000     0.182882224 -0.182882224  0.182882224
     2.734000000  2.734000000  0.000000000     0.182882224  0.182882224 -0.182882224

  length of vectors
     3.866459880  3.866459880  3.866459880     0.316761304  0.316761304  0.316761304


 
 k-points in units of 2pi/SCALE and weight: kpoints for bandstructure L-G-X-U K-G   
   0.50000000  0.50000000  0.50000000       0.010
   0.47826087  0.47826087  0.47826087       0.010
   0.45652174  0.45652174  0.45652174       0.010
   0.43478261  0.43478261  0.43478261       0.010
   0.41304348  0.41304348  0.41304348       0.010
   0.39130435  0.39130435  0.39130435       0.010
   0.36956522  0.36956522  0.36956522       0.010
   0.34782609  0.34782609  0.34782609       0.010
   0.32608696  0.32608696  0.32608696       0.010
   0.30434783  0.30434783  0.30434783       0.010
   0.28260870  0.28260870  0.28260870       0.010
   0.26086957  0.26086957  0.26086957       0.010
   0.23913043  0.23913043  0.23913043       0.010
   0.21739130  0.21739130  0.21739130       0.010
   0.19565217  0.19565217  0.19565217       0.010
   0.17391304  0.17391304  0.17391304       0.010
   0.15217391  0.15217391  0.15217391       0.010
   0.13043478  0.13043478  0.13043478       0.010
   0.10869565  0.10869565  0.10869565       0.010
   0.08695652  0.08695652  0.08695652       0.010
   0.06521739  0.06521739  0.06521739       0.010
   0.04347826  0.04347826  0.04347826       0.010
   0.02173913  0.02173913  0.02173913       0.010
   0.00000000  0.00000000  0.00000000       0.010
   0.00000000  0.00000000  0.00000000       0.010
   0.04347826  0.00000000  0.00000000       0.010
   0.08695652  0.00000000  0.00000000       0.010
   0.13043478  0.00000000  0.00000000       0.010
   0.17391304  0.00000000  0.00000000       0.010
   0.21739130  0.00000000  0.00000000       0.010
   0.26086957  0.00000000  0.00000000       0.010
   0.30434783  0.00000000  0.00000000       0.010
   0.34782609  0.00000000  0.00000000       0.010
   0.39130435  0.00000000  0.00000000       0.010
   0.43478261  0.00000000  0.00000000       0.010
   0.47826087  0.00000000  0.00000000       0.010
   0.52173913  0.00000000  0.00000000       0.010
   0.56521739  0.00000000  0.00000000       0.010
   0.60869565  0.00000000  0.00000000       0.010
   0.65217391  0.00000000  0.00000000       0.010
   0.69565217  0.00000000  0.00000000       0.010
   0.73913043  0.00000000  0.00000000       0.010
   0.78260870  0.00000000  0.00000000       0.010
   0.82608696  0.00000000  0.00000000       0.010
   0.86956522  0.00000000  0.00000000       0.010
   0.91304348  0.00000000  0.00000000       0.010
   0.95652174  0.00000000  0.00000000       0.010
   1.00000000  0.00000000  0.00000000       0.010
   1.00000000  0.00000000  0.00000000       0.010
   1.00000000  0.01086957  0.01086957       0.010
   1.00000000  0.02173913  0.02173913       0.010
   1.00000000  0.03260870  0.03260870       0.010
   1.00000000  0.04347826  0.04347826       0.010
   1.00000000  0.05434783  0.05434783       0.010
   1.00000000  0.06521739  0.06521739       0.010
   1.00000000  0.07608696  0.07608696       0.010
   1.00000000  0.08695652  0.08695652       0.010
   1.00000000  0.09782609  0.09782609       0.010
   1.00000000  0.10869565  0.10869565       0.010
   1.00000000  0.11956522  0.11956522       0.010
   1.00000000  0.13043478  0.13043478       0.010
   1.00000000  0.14130435  0.14130435       0.010
   1.00000000  0.15217391  0.15217391       0.010
   1.00000000  0.16304348  0.16304348       0.010
   1.00000000  0.17391304  0.17391304       0.010
   1.00000000  0.18478261  0.18478261       0.010
   1.00000000  0.19565217  0.19565217       0.010
   1.00000000  0.20652174  0.20652174       0.010
   1.00000000  0.21739130  0.21739130       0.010
   1.00000000  0.22826087  0.22826087       0.010
   1.00000000  0.23913043  0.23913043       0.010
   1.00000000  0.25000000  0.25000000       0.010
   0.75000000  0.00000000  0.75000000       0.010
   0.71739130  0.00000000  0.71739130       0.010
   0.68478261  0.00000000  0.68478261       0.010
   0.65217391  0.00000000  0.65217391       0.010
   0.61956522  0.00000000  0.61956522       0.010
   0.58695652  0.00000000  0.58695652       0.010
   0.55434783  0.00000000  0.55434783       0.010
   0.52173913  0.00000000  0.52173913       0.010
   0.48913043  0.00000000  0.48913043       0.010
   0.45652174  0.00000000  0.45652174       0.010
   0.42391304  0.00000000  0.42391304       0.010
   0.39130435  0.00000000  0.39130435       0.010
   0.35869565  0.00000000  0.35869565       0.010
   0.32608696  0.00000000  0.32608696       0.010
   0.29347826  0.00000000  0.29347826       0.010
   0.26086957  0.00000000  0.26086957       0.010
   0.22826087  0.00000000  0.22826087       0.010
   0.19565217  0.00000000  0.19565217       0.010
   0.16304348  0.00000000  0.16304348       0.010
   0.13043478  0.00000000  0.13043478       0.010
   0.09782609  0.00000000  0.09782609       0.010
   0.06521739  0.00000000  0.06521739       0.010
   0.03260870  0.00000000  0.03260870       0.010
   0.00000000  0.00000000  0.00000000       0.010
 
 k-points in reciprocal lattice and weights: kpoints for bandstructure L-G-X-U K-G   
   0.50000000  0.50000000  0.50000000       0.010
   0.47826087  0.47826087  0.47826087       0.010
   0.45652174  0.45652174  0.45652174       0.010
   0.43478261  0.43478261  0.43478261       0.010
   0.41304348  0.41304348  0.41304348       0.010
   0.39130435  0.39130435  0.39130435       0.010
   0.36956522  0.36956522  0.36956522       0.010
   0.34782609  0.34782609  0.34782609       0.010
   0.32608696  0.32608696  0.32608696       0.010
   0.30434783  0.30434783  0.30434783       0.010
   0.28260870  0.28260870  0.28260870       0.010
   0.26086957  0.26086957  0.26086957       0.010
   0.23913043  0.23913043  0.23913043       0.010
   0.21739130  0.21739130  0.21739130       0.010
   0.19565217  0.19565217  0.19565217       0.010
   0.17391304  0.17391304  0.17391304       0.010
   0.15217391  0.15217391  0.15217391       0.010
   0.13043478  0.13043478  0.13043478       0.010
   0.10869565  0.10869565  0.10869565       0.010
   0.08695652  0.08695652  0.08695652       0.010
   0.06521739  0.06521739  0.06521739       0.010
   0.04347826  0.04347826  0.04347826       0.010
   0.02173913  0.02173913  0.02173913       0.010
   0.00000000  0.00000000  0.00000000       0.010
   0.00000000  0.00000000  0.00000000       0.010
   0.00000000  0.02173913  0.02173913       0.010
   0.00000000  0.04347826  0.04347826       0.010
   0.00000000  0.06521739  0.06521739       0.010
   0.00000000  0.08695652  0.08695652       0.010
   0.00000000  0.10869565  0.10869565       0.010
   0.00000000  0.13043478  0.13043478       0.010
   0.00000000  0.15217391  0.15217391       0.010
   0.00000000  0.17391304  0.17391304       0.010
   0.00000000  0.19565217  0.19565217       0.010
   0.00000000  0.21739130  0.21739130       0.010
   0.00000000  0.23913043  0.23913043       0.010
   0.00000000  0.26086957  0.26086957       0.010
   0.00000000  0.28260870  0.28260870       0.010
   0.00000000  0.30434783  0.30434783       0.010
   0.00000000  0.32608696  0.32608696       0.010
   0.00000000  0.34782609  0.34782609       0.010
   0.00000000  0.36956522  0.36956522       0.010
   0.00000000  0.39130435  0.39130435       0.010
   0.00000000  0.41304348  0.41304348       0.010
   0.00000000  0.43478261  0.43478261       0.010
   0.00000000  0.45652174  0.45652174       0.010
   0.00000000  0.47826087  0.47826087       0.010
   0.00000000  0.50000000  0.50000000       0.010
   0.00000000  0.50000000  0.50000000       0.010
   0.01086957  0.50543478  0.50543478       0.010
   0.02173913  0.51086957  0.51086957       0.010
   0.03260870  0.51630435  0.51630435       0.010
   0.04347826  0.52173913  0.52173913       0.010
   0.05434783  0.52717391  0.52717391       0.010
   0.06521739  0.53260870  0.53260870       0.010
   0.07608696  0.53804348  0.53804348       0.010
   0.08695652  0.54347826  0.54347826       0.010
   0.09782609  0.54891304  0.54891304       0.010
   0.10869565  0.55434783  0.55434783       0.010
   0.11956522  0.55978261  0.55978261       0.010
   0.13043478  0.56521739  0.56521739       0.010
   0.14130435  0.57065217  0.57065217       0.010
   0.15217391  0.57608696  0.57608696       0.010
   0.16304348  0.58152174  0.58152174       0.010
   0.17391304  0.58695652  0.58695652       0.010
   0.18478261  0.59239130  0.59239130       0.010
   0.19565217  0.59782609  0.59782609       0.010
   0.20652174  0.60326087  0.60326087       0.010
   0.21739130  0.60869565  0.60869565       0.010
   0.22826087  0.61413043  0.61413043       0.010
   0.23913043  0.61956522  0.61956522       0.010
   0.25000000  0.62500000  0.62500000       0.010
   0.37500000  0.75000000  0.37500000       0.010
   0.35869565  0.71739130  0.35869565       0.010
   0.34239130  0.68478261  0.34239130       0.010
   0.32608696  0.65217391  0.32608696       0.010
   0.30978261  0.61956522  0.30978261       0.010
   0.29347826  0.58695652  0.29347826       0.010
   0.27717391  0.55434783  0.27717391       0.010
   0.26086957  0.52173913  0.26086957       0.010
   0.24456522  0.48913043  0.24456522       0.010
   0.22826087  0.45652174  0.22826087       0.010
   0.21195652  0.42391304  0.21195652       0.010
   0.19565217  0.39130435  0.19565217       0.010
   0.17934783  0.35869565  0.17934783       0.010
   0.16304348  0.32608696  0.16304348       0.010
   0.14673913  0.29347826  0.14673913       0.010
   0.13043478  0.26086957  0.13043478       0.010
   0.11413043  0.22826087  0.11413043       0.010
   0.09782609  0.19565217  0.09782609       0.010
   0.08152174  0.16304348  0.08152174       0.010
   0.06521739  0.13043478  0.06521739       0.010
   0.04891304  0.09782609  0.04891304       0.010
   0.03260870  0.06521739  0.03260870       0.010
   0.01630435  0.03260870  0.01630435       0.010
   0.00000000  0.00000000  0.00000000       0.010
 
 position of ions in fractional coordinates (direct lattice) 
   0.87500000  0.87500000  0.87500000
   0.12500000  0.12500000  0.12500000
 
 position of ions in cartesian coordinates  (Angst):
   4.78450000  4.78450000  4.78450000
   0.68350000  0.68350000  0.68350000
 


--------------------------------------------------------------------------------------------------------


 k-point  1 :   0.5000 0.5000 0.5000  plane waves:    1380
 k-point  2 :   0.4783 0.4783 0.4783  plane waves:    1377
 k-point  3 :   0.4565 0.4565 0.4565  plane waves:    1377
 k-point  4 :   0.4348 0.4348 0.4348  plane waves:    1383
 k-point  5 :   0.4130 0.4130 0.4130  plane waves:    1374
 k-point  6 :   0.3913 0.3913 0.3913  plane waves:    1368
 k-point  7 :   0.3696 0.3696 0.3696  plane waves:    1371
 k-point  8 :   0.3478 0.3478 0.3478  plane waves:    1362
 k-point  9 :   0.3261 0.3261 0.3261  plane waves:    1362
 k-point 10 :   0.3043 0.3043 0.3043  plane waves:    1360
 k-point 11 :   0.2826 0.2826 0.2826  plane waves:    1366
 k-point 12 :   0.2609 0.2609 0.2609  plane waves:    1363
 k-point 13 :   0.2391 0.2391 0.2391  plane waves:    1375
 k-point 14 :   0.2174 0.2174 0.2174  plane waves:    1375
 k-point 15 :   0.1957 0.1957 0.1957  plane waves:    1369
 k-point 16 :   0.1739 0.1739 0.1739  plane waves:    1375
 k-point 17 :   0.1522 0.1522 0.1522  plane waves:    1375
 k-point 18 :   0.1304 0.1304 0.1304  plane waves:    1372
 k-point 19 :   0.1087 0.1087 0.1087  plane waves:    1384
 k-point 20 :   0.0870 0.0870 0.0870  plane waves:    1381
 k-point 21 :   0.0652 0.0652 0.0652  plane waves:    1381
 k-point 22 :   0.0435 0.0435 0.0435  plane waves:    1375
 k-point 23 :   0.0217 0.0217 0.0217  plane waves:    1363
 k-point 24 :   0.0000 0.0000 0.0000  plane waves:    1363
 k-point 25 :   0.0000 0.0000 0.0000  plane waves:    1363
 k-point 26 :   0.0000 0.0217 0.0217  plane waves:    1371
 k-point 27 :   0.0000 0.0435 0.0435  plane waves:    1371
 k-point 28 :   0.0000 0.0652 0.0652  plane waves:    1379
 k-point 29 :   0.0000 0.0870 0.0870  plane waves:    1379
 k-point 30 :   0.0000 0.1087 0.1087  plane waves:    1379
 k-point 31 :   0.0000 0.1304 0.1304  plane waves:    1371
 k-point 32 :   0.0000 0.1522 0.1522  plane waves:    1371
 k-point 33 :   0.0000 0.1739 0.1739  plane waves:    1371
 k-point 34 :   0.0000 0.1957 0.1957  plane waves:    1363
 k-point 35 :   0.0000 0.2174 0.2174  plane waves:    1355
 k-point 36 :   0.0000 0.2391 0.2391  plane waves:    1355
 k-point 37 :   0.0000 0.2609 0.2609  plane waves:    1355
 k-point 38 :   0.0000 0.2826 0.2826  plane waves:    1359
 k-point 39 :   0.0000 0.3043 0.3043  plane waves:    1363
 k-point 40 :   0.0000 0.3261 0.3261  plane waves:    1355
 k-point 41 :   0.0000 0.3478 0.3478  plane waves:    1363
 k-point 42 :   0.0000 0.3696 0.3696  plane waves:    1359
 k-point 43 :   0.0000 0.3913 0.3913  plane waves:    1359
 k-point 44 :   0.0000 0.4130 0.4130  plane waves:    1359
 k-point 45 :   0.0000 0.4348 0.4348  plane waves:    1359
 k-point 46 :   0.0000 0.4565 0.4565  plane waves:    1359
 k-point 47 :   0.0000 0.4783 0.4783  plane waves:    1362
 k-point 48 :   0.0000 0.5000 0.5000  plane waves:    1362
 k-point 49 :   0.0000 0.5000 0.5000  plane waves:    1362
 k-point 50 :   0.0109 0.5054 0.5054  plane waves:    1362
 k-point 51 :   0.0217 0.5109 0.5109  plane waves:    1362
 k-point 52 :   0.0326 0.5163 0.5163  plane waves:    1362
 k-point 53 :   0.0435 0.5217 0.5217  plane waves:    1362
 k-point 54 :   0.0543 0.5272 0.5272  plane waves:    1362
 k-point 55 :   0.0652 0.5326 0.5326  plane waves:    1358
 k-point 56 :   0.0761 0.5380 0.5380  plane waves:    1360
 k-point 57 :   0.0870 0.5435 0.5435  plane waves:    1352
 k-point 58 :   0.0978 0.5489 0.5489  plane waves:    1352
 k-point 59 :   0.1087 0.5543 0.5543  plane waves:    1354
 k-point 60 :   0.1196 0.5598 0.5598  plane waves:    1356
 k-point 61 :   0.1304 0.5652 0.5652  plane waves:    1356
 k-point 62 :   0.1413 0.5707 0.5707  plane waves:    1362
 k-point 63 :   0.1522 0.5761 0.5761  plane waves:    1362
 k-point 64 :   0.1630 0.5815 0.5815  plane waves:    1362
 k-point 65 :   0.1739 0.5870 0.5870  plane waves:    1362
 k-point 66 :   0.1848 0.5924 0.5924  plane waves:    1350
 k-point 67 :   0.1957 0.5978 0.5978  plane waves:    1348
 k-point 68 :   0.2065 0.6033 0.6033  plane waves:    1348
 k-point 69 :   0.2174 0.6087 0.6087  plane waves:    1356
 k-point 70 :   0.2283 0.6141 0.6141  plane waves:    1356
 k-point 71 :   0.2391 0.6196 0.6196  plane waves:    1360
 k-point 72 :   0.2500 0.6250 0.6250  plane waves:    1360
 k-point 73 :   0.3750 0.7500 0.3750  plane waves:    1360
 k-point 74 :   0.3587 0.7174 0.3587  plane waves:    1354
 k-point 75 :   0.3424 0.6848 0.3424  plane waves:    1368
 k-point 76 :   0.3261 0.6522 0.3261  plane waves:    1362
 k-point 77 :   0.3098 0.6196 0.3098  plane waves:    1356
 k-point 78 :   0.2935 0.5870 0.2935  plane waves:    1354
 k-point 79 :   0.2772 0.5543 0.2772  plane waves:    1362
 k-point 80 :   0.2609 0.5217 0.2609  plane waves:    1364
 k-point 81 :   0.2446 0.4891 0.2446  plane waves:    1360
 k-point 82 :   0.2283 0.4565 0.2283  plane waves:    1360
 k-point 83 :   0.2120 0.4239 0.2120  plane waves:    1364
 k-point 84 :   0.1957 0.3913 0.1957  plane waves:    1362
 k-point 85 :   0.1793 0.3587 0.1793  plane waves:    1366
 k-point 86 :   0.1630 0.3261 0.1630  plane waves:    1370
 k-point 87 :   0.1467 0.2935 0.1467  plane waves:    1370
 k-point 88 :   0.1304 0.2609 0.1304  plane waves:    1371
 k-point 89 :   0.1141 0.2283 0.1141  plane waves:    1375
 k-point 90 :   0.0978 0.1957 0.0978  plane waves:    1371
 k-point 91 :   0.0815 0.1630 0.0815  plane waves:    1371
 k-point 92 :   0.0652 0.1304 0.0652  plane waves:    1377
 k-point 93 :   0.0489 0.0978 0.0489  plane waves:    1383
 k-point 94 :   0.0326 0.0652 0.0326  plane waves:    1383
 k-point 95 :   0.0163 0.0326 0.0163  plane waves:    1371
 k-point 96 :   0.0000 0.0000 0.0000  plane waves:    1363

 maximum and minimum number of plane-waves per node :      1384     1348

 maximum number of plane-waves:      1384
 maximum index in each direction: 
   IXMAX=    7   IYMAX=    7   IZMAX=    7
   IXMIN=   -8   IYMIN=   -8   IZMIN=   -8


 serial   3D FFT for wavefunctions
 parallel 3D FFT for charge:
    minimum data exchange during FFTs selected (reduces bandwidth)


 total amount of memory used by VASP MPI-rank0    45820. kBytes
=======================================================================

   base      :      30000. kBytes
   nonl-proj :       8596. kBytes
   fftplans  :        112. kBytes
   grid      :        620. kBytes
   one-center:          6. kBytes
   wavefun   :       6486. kBytes
 
     INWAV:  cpu time    0.0000: real time    0.0001
 Broyden mixing: mesh for mixing (old mesh)
   NGX = 15   NGY = 15   NGZ = 15
  (NGX  = 24   NGY  = 24   NGZ  = 24)
  gives a total of   3375 points

 initial charge density was supplied:
 charge density of overlapping atoms calculated
 number of electron       8.0000000 magnetization 
 keeping initial charge density in first step


--------------------------------------------------------------------------------------------------------


 Maximum index for augmentation-charges          196 (set IRDMAX)


--------------------------------------------------------------------------------------------------------


 First call to EWALD:  gamma=   0.515
 Maximum number of real-space cells 3x 3x 3
 Maximum number of reciprocal cells 3x 3x 3

    FEWALD:  cpu time    0.0019: real time    0.0019


--------------------------------------- Iteration      1(   1)  ---------------------------------------


    POTLOK:  cpu time    0.0040: real time    0.0040
    SETDIJ:  cpu time    0.0020: real time    0.0020
    TRIAL :  cpu time    0.3372: real time    0.3568
    CORREC:  cpu time    0.0005: real time    0.0005
    --------------------------------------------
      LOOP:  cpu time    0.3456: real time    0.3660

 eigenvalue-minimisations  :  3072
 total energy-change (2. order) : 0.4298383E+01  (-0.4927464E+03)
 number of electron       8.0000000 magnetization 
 augmentation part        8.0000000 magnetization 

 Free energy of the ion-electron system (eV)
  ---------------------------------------------------
  alpha Z        PSCENC =         3.29449589
  Ewald energy   TEWEN  =      -226.97511711
  -Hartree energ DENC   =       -11.31730863
  -exchange      EXHF   =         0.00000000
  -V(xc)+E(xc)   XCENC  =       -18.68326879
  PAW double counting   =       176.24759923     -141.06103558
  entropy T*S    EENTRO =         0.00178438
  eigenvalues    EBANDS =        16.65811418
  atomic energy  EATOM  =       206.13311910
  ---------------------------------------------------
  free energy    TOTEN  =         4.29838266 eV

  energy without entropy =        4.29659828  energy(sigma->0) =        4.29778786


--------------------------------------------------------------------------------------------------------




--------------------------------------- Iteration      1(   2)  ---------------------------------------


    TRIAL :  cpu time    0.6683: real time    0.6699
    CORREC:  cpu time    0.0006: real time    0.0006
    --------------------------------------------
      LOOP:  cpu time    0.6699: real time    0.6732

 eigenvalue-minimisations  :  4528
 total energy-change (2. order) :-0.1150508E+02  (-0.1071835E+02)
 number of electron       8.0000000 magnetization 
 augmentation part        8.0000000 magnetization 

 Free energy of the ion-electron system (eV)
  ---------------------------------------------------
  alpha Z        PSCENC =         3.29449589
  Ewald energy   TEWEN  =      -226.97511711
  -Hartree energ DENC   =       -11.31730863
  -exchange      EXHF   =         0.00000000
  -V(xc)+E(xc)   XCENC  =       -18.68326879
  PAW double counting   =       176.24759923     -141.06103558
  entropy T*S    EENTRO =         0.00503580
  eigenvalues    EBANDS =         5.14978725
  atomic energy  EATOM  =       206.13311910
  ---------------------------------------------------
  free energy    TOTEN  =        -7.20669284 eV

  energy without entropy =       -7.21172864  energy(sigma->0) =       -7.20837144


--------------------------------------------------------------------------------------------------------




--------------------------------------- Iteration      1(   3)  ---------------------------------------


    TRIAL :  cpu time    0.5007: real time    0.5015
    CORREC:  cpu time    0.0006: real time    0.0006
    --------------------------------------------
      LOOP:  cpu time    0.5039: real time    0.5048

 eigenvalue-minimisations  :  3424
 total energy-change (2. order) :-0.8934534E-01  (-0.8920325E-01)
 number of electron       8.0000000 magnetization 
 augmentation part        8.0000000 magnetization 

 Free energy of the ion-electron system (eV)
  ---------------------------------------------------
  alpha Z        PSCENC =         3.29449589
  Ewald energy   TEWEN  =      -226.97511711
  -Hartree energ DENC   =       -11.31730863
  -exchange      EXHF   =         0.00000000
  -V(xc)+E(xc)   XCENC  =       -18.68326879
  PAW double counting   =       176.24759923     -141.06103558
  entropy T*S    EENTRO =         0.00486442
  eigenvalues    EBANDS =         5.06061329
  atomic energy  EATOM  =       206.13311910
  ---------------------------------------------------
  free energy    TOTEN  =        -7.29603819 eV

  energy without entropy =       -7.30090261  energy(sigma->0) =       -7.29765966


--------------------------------------------------------------------------------------------------------




--------------------------------------- Iteration      1(   4)  ---------------------------------------


    TRIAL :  cpu time    0.9757: real time    0.9768
    CORREC:  cpu time    0.0006: real time    0.0006
    --------------------------------------------
      LOOP:  cpu time    0.9779: real time    0.9801

 eigenvalue-minimisations  :  5616
 total energy-change (2. order) :-0.2596130E-03  (-0.2596124E-03)
 number of electron       8.0000000 magnetization 
 augmentation part        8.0000000 magnetization 

 Free energy of the ion-electron system (eV)
  ---------------------------------------------------
  alpha Z        PSCENC =         3.29449589
  Ewald energy   TEWEN  =      -226.97511711
  -Hartree energ DENC   =       -11.31730863
  -exchange      EXHF   =         0.00000000
  -V(xc)+E(xc)   XCENC  =       -18.68326879
  PAW double counting   =       176.24759923     -141.06103558
  entropy T*S    EENTRO =         0.00486408
  eigenvalues    EBANDS =         5.06035402
  atomic energy  EATOM  =       206.13311910
  ---------------------------------------------------
  free energy    TOTEN  =        -7.29629780 eV

  energy without entropy =       -7.30116187  energy(sigma->0) =       -7.29791916


--------------------------------------------------------------------------------------------------------




--------------------------------------- Iteration      1(   5)  ---------------------------------------


    TRIAL :  cpu time    0.5307: real time    0.5346
    CORREC:  cpu time    0.0006: real time    0.0005
    CHARGE:  cpu time    0.0249: real time    0.0249
    --------------------------------------------
      LOOP:  cpu time    0.5580: real time    0.5633

 eigenvalue-minimisations  :  3552
 total energy-change (2. order) :-0.2039337E-07  (-0.1984114E-07)
 number of electron       8.0000015 magnetization 
 augmentation part       -0.4461178 magnetization 

 Free energy of the ion-electron system (eV)
  ---------------------------------------------------
  alpha Z        PSCENC =         3.29449589
  Ewald energy   TEWEN  =      -226.97511711
  -Hartree energ DENC   =       -11.31730863
  -exchange      EXHF   =         0.00000000
  -V(xc)+E(xc)   XCENC  =       -18.68326879
  PAW double counting   =       176.24759923     -141.06103558
  entropy T*S    EENTRO =         0.00486408
  eigenvalues    EBANDS =         5.06035400
  atomic energy  EATOM  =       206.13311910
  ---------------------------------------------------
  free energy    TOTEN  =        -7.29629782 eV

  energy without entropy =       -7.30116190  energy(sigma->0) =       -7.29791918


--------------------------------------------------------------------------------------------------------




--------------------------------------- Iteration      1(   6)  ---------------------------------------


    POTLOK:  cpu time    0.0012: real time    0.0016
    SETDIJ:  cpu time    0.0014: real time    0.0014
    TRIAL :  cpu time    0.2515: real time    0.2531
    CORREC:  cpu time    0.1394: real time    0.1396
    CHARGE:  cpu time    0.0250: real time    0.0250
    --------------------------------------------
      LOOP:  cpu time    0.4206: real time    0.4240

 eigenvalue-minimisations  :     0
 total energy-change (2. order) : 0.4475085E+00  (-0.8622174E-01)
 number of electron       8.0000015 magnetization 
 augmentation part       -0.4287522 magnetization 

 Free energy of the ion-electron system (eV)
  ---------------------------------------------------
  alpha Z        PSCENC =         3.29449589
  Ewald energy   TEWEN  =      -226.97511711
  -Hartree energ DENC   =       -18.88282353
  -exchange      EXHF   =         0.00000000
  -V(xc)+E(xc)   XCENC  =       -17.67189930
  PAW double counting   =       834.25838014     -799.39750903
  entropy T*S    EENTRO =         0.00477067
  eigenvalues    EBANDS =        12.38770042
  atomic energy  EATOM  =       206.13311910
  ---------------------------------------------------
  free energy    TOTEN  =        -6.84878935 eV

  energy without entropy =       -6.85356002  energy(sigma->0) =       -6.85037957


--------------------------------------------------------------------------------------------------------




--------------------------------------- Iteration      1(   7)  ---------------------------------------


    POTLOK:  cpu time    0.0014: real time    0.0020
    SETDIJ:  cpu time    0.0017: real time    0.0017
    TRIAL :  cpu time    0.2335: real time    0.2341
    CORREC:  cpu time    0.1346: real time    0.1348
    CHARGE:  cpu time    0.0252: real time    0.0254
    --------------------------------------------
      LOOP:  cpu time    0.3978: real time    0.4013

 eigenvalue-minimisations  :     0
 total energy-change (2. order) :-0.8611834E-01  (-0.1540836E-01)
 number of electron       8.0000015 magnetization 
 augmentation part       -0.4284260 magnetization 

 Free energy of the ion-electron system (eV)
  ---------------------------------------------------
  alpha Z        PSCENC =         3.29449589
  Ewald energy   TEWEN  =      -226.97511711
  -Hartree energ DENC   =       -17.54461562
  -exchange      EXHF   =         0.00000000
  -V(xc)+E(xc)   XCENC  =       -17.78354082
  PAW double counting   =       906.12179164     -871.18542198
  entropy T*S    EENTRO =         0.00513642
  eigenvalues    EBANDS =        10.99961055
  atomic energy  EATOM  =       206.13311910
  ---------------------------------------------------
  free energy    TOTEN  =        -6.93490769 eV

  energy without entropy =       -6.94004411  energy(sigma->0) =       -6.93661983


--------------------------------------------------------------------------------------------------------




--------------------------------------- Iteration      1(   8)  ---------------------------------------


    POTLOK:  cpu time    0.0010: real time    0.0013
    SETDIJ:  cpu time    0.0012: real time    0.0012
    TRIAL :  cpu time    0.2318: real time    0.2323
    CORREC:  cpu time    0.1352: real time    0.1358
    CHARGE:  cpu time    0.0251: real time    0.0251
    --------------------------------------------
      LOOP:  cpu time    0.3957: real time    0.3989

 eigenvalue-minimisations  :     0
 total energy-change (2. order) :-0.1533810E-01  (-0.2325900E-02)
 number of electron       8.0000015 magnetization 
 augmentation part       -0.4281910 magnetization 

 Free energy of the ion-electron system (eV)
  ---------------------------------------------------
  alpha Z        PSCENC =         3.29449589
  Ewald energy   TEWEN  =      -226.97511711
  -Hartree energ DENC   =       -17.25881146
  -exchange      EXHF   =         0.00000000
  -V(xc)+E(xc)   XCENC  =       -17.81459622
  PAW double counting   =       886.79024017     -851.84635107
  entropy T*S    EENTRO =         0.00565111
  eigenvalues    EBANDS =        10.72163850
  atomic energy  EATOM  =       206.13311910
  ---------------------------------------------------
  free energy    TOTEN  =        -6.95024579 eV

  energy without entropy =       -6.95589690  energy(sigma->0) =       -6.95212949


--------------------------------------------------------------------------------------------------------




--------------------------------------- Iteration      1(   9)  ---------------------------------------


    POTLOK:  cpu time    0.0016: real time    0.0016
    SETDIJ:  cpu time    0.0016: real time    0.0016
    TRIAL :  cpu time    0.2293: real time    0.2297
    CORREC:  cpu time    0.1336: real time    0.1339
    CHARGE:  cpu time    0.0251: real time    0.0251
    --------------------------------------------
      LOOP:  cpu time    0.3945: real time    0.3953

 eigenvalue-minimisations  :     0
 total energy-change (2. order) :-0.2329460E-02  (-0.9429633E-04)
 number of electron       8.0000015 magnetization 
 augmentation part       -0.4280991 magnetization 

 Free energy of the ion-electron system (eV)
  ---------------------------------------------------
  alpha Z        PSCENC =         3.29449589
  Ewald energy   TEWEN  =      -226.97511711
  -Hartree energ DENC   =       -17.19187812
  -exchange      EXHF   =         0.00000000
  -V(xc)+E(xc)   XCENC  =       -17.82324662
  PAW double counting   =       875.41929002     -840.47698478
  entropy T*S    EENTRO =         0.00569980
  eigenvalues    EBANDS =        10.66209526
  atomic energy  EATOM  =       206.13311910
  ---------------------------------------------------
  free energy    TOTEN  =        -6.95257525 eV

  energy without entropy =       -6.95827505  energy(sigma->0) =       -6.95447518


--------------------------------------------------------------------------------------------------------




--------------------------------------- Iteration      1(  10)  ---------------------------------------


    POTLOK:  cpu time    0.0013: real time    0.0013
    SETDIJ:  cpu time    0.0013: real time    0.0013
    TRIAL :  cpu time    0.2322: real time    0.2328
    CORREC:  cpu time    0.1332: real time    0.1334
    CHARGE:  cpu time    0.0250: real time    0.0250
    --------------------------------------------
      LOOP:  cpu time    0.3962: real time    0.3971

 eigenvalue-minimisations  :     0
 total energy-change (2. order) :-0.9457716E-04  (-0.6635054E-05)
 number of electron       8.0000015 magnetization 
 augmentation part       -0.4280996 magnetization 

 Free energy of the ion-electron system (eV)
  ---------------------------------------------------
  alpha Z        PSCENC =         3.29449589
  Ewald energy   TEWEN  =      -226.97511711
  -Hartree energ DENC   =       -17.18380280
  -exchange      EXHF   =         0.00000000
  -V(xc)+E(xc)   XCENC  =       -17.82431719
  PAW double counting   =       872.94941556     -838.00718011
  entropy T*S    EENTRO =         0.00570567
  eigenvalues    EBANDS =        10.65501704
  atomic energy  EATOM  =       206.13311910
  ---------------------------------------------------
  free energy    TOTEN  =        -6.95266982 eV

  energy without entropy =       -6.95837550  energy(sigma->0) =       -6.95457172


--------------------------------------------------------------------------------------------------------




--------------------------------------- Iteration      1(  11)  ---------------------------------------


    POTLOK:  cpu time    0.0013: real time    0.0015
    SETDIJ:  cpu time    0.0014: real time    0.0013
    TRIAL :  cpu time    0.2330: real time    0.2335
    CORREC:  cpu time    0.1405: real time    0.1408
    CHARGE:  cpu time    0.0257: real time    0.0258
    --------------------------------------------
      LOOP:  cpu time    0.4029: real time    0.4061

 eigenvalue-minimisations  :     0
 total energy-change (2. order) :-0.6665420E-05  (-0.6164615E-06)
 number of electron       8.0000015 magnetization 
 augmentation part       -0.4280956 magnetization 

 Free energy of the ion-electron system (eV)
  ---------------------------------------------------
  alpha Z        PSCENC =         3.29449589
  Ewald energy   TEWEN  =      -226.97511711
  -Hartree energ DENC   =       -17.18579874
  -exchange      EXHF   =         0.00000000
  -V(xc)+E(xc)   XCENC  =       -17.82420171
  PAW double counting   =       872.01574854     -837.07356441
  entropy T*S    EENTRO =         0.00570670
  eigenvalues    EBANDS =        10.65693628
  atomic energy  EATOM  =       206.13311910
  ---------------------------------------------------
  free energy    TOTEN  =        -6.95267649 eV

  energy without entropy =       -6.95838319  energy(sigma->0) =       -6.95457872


--------------------------------------------------------------------------------------------------------




--------------------------------------- Iteration      1(  12)  ---------------------------------------


    POTLOK:  cpu time    0.0018: real time    0.0018
    SETDIJ:  cpu time    0.0015: real time    0.0014
    TRIAL :  cpu time    0.2317: real time    0.2320
    CORREC:  cpu time    0.1314: real time    0.1317
    CHARGE:  cpu time    0.0239: real time    0.0248
    --------------------------------------------
      LOOP:  cpu time    0.3952: real time    0.3953

 eigenvalue-minimisations  :     0
 total energy-change (2. order) :-0.6457343E-06  (-0.7529358E-07)
 number of electron       8.0000015 magnetization 
 augmentation part       -0.4280963 magnetization 

 Free energy of the ion-electron system (eV)
  ---------------------------------------------------
  alpha Z        PSCENC =         3.29449589
  Ewald energy   TEWEN  =      -226.97511711
  -Hartree energ DENC   =       -17.18619139
  -exchange      EXHF   =         0.00000000
  -V(xc)+E(xc)   XCENC  =       -17.82416267
  PAW double counting   =       871.96489891     -837.02268737
  entropy T*S    EENTRO =         0.00570707
  eigenvalues    EBANDS =        10.65726081
  atomic energy  EATOM  =       206.13311910
  ---------------------------------------------------
  free energy    TOTEN  =        -6.95267714 eV

  energy without entropy =       -6.95838421  energy(sigma->0) =       -6.95457949


--------------------------------------------------------------------------------------------------------




--------------------------------------- Iteration      1(  13)  ---------------------------------------


    POTLOK:  cpu time    0.0016: real time    0.0016
    SETDIJ:  cpu time    0.0015: real time    0.0015
    TRIAL :  cpu time    0.2328: real time    0.2334
    CORREC:  cpu time    0.0558: real time    0.0559
    CHARGE:  cpu time    0.0248: real time    0.0248
    --------------------------------------------
      LOOP:  cpu time    0.3188: real time    0.3206

 eigenvalue-minimisations  :     0
 total energy-change (2. order) :-0.7599203E-07  ( 0.3091175E-07)
 number of electron       8.0000015 magnetization 
 augmentation part       -0.4280969 magnetization 

 Free energy of the ion-electron system (eV)
  ---------------------------------------------------
  alpha Z        PSCENC =         3.29449589
  Ewald energy   TEWEN  =      -226.97511711
  -Hartree energ DENC   =       -17.18631951
  -exchange      EXHF   =         0.00000000
  -V(xc)+E(xc)   XCENC  =       -17.82414372
  PAW double counting   =       872.06424502     -837.12202089
  entropy T*S    EENTRO =         0.00570725
  eigenvalues    EBANDS =        10.65735694
  atomic energy  EATOM  =       206.13311910
  ---------------------------------------------------
  free energy    TOTEN  =        -6.95267721 eV

  energy without entropy =       -6.95838447  energy(sigma->0) =       -6.95457963


--------------------------------------------------------------------------------------------------------




--------------------------------------- Iteration      1(  14)  ---------------------------------------


    POTLOK:  cpu time    0.0017: real time    0.0016
    SETDIJ:  cpu time    0.0014: real time    0.0014
    TRIAL :  cpu time    0.2320: real time    0.2324
    CORREC:  cpu time    0.0575: real time    0.0576
    CHARGE:  cpu time    0.0243: real time    0.0251
    --------------------------------------------
      LOOP:  cpu time    0.3210: real time    0.3216

 eigenvalue-minimisations  :     0
 total energy-change (2. order) :-0.1365902E-07  ( 0.1858503E-08)
 number of electron       8.0000015 magnetization 
 augmentation part       -0.4280971 magnetization 

 Free energy of the ion-electron system (eV)
  ---------------------------------------------------
  alpha Z        PSCENC =         3.29449589
  Ewald energy   TEWEN  =      -226.97511711
  -Hartree energ DENC   =       -17.18638320
  -exchange      EXHF   =         0.00000000
  -V(xc)+E(xc)   XCENC  =       -17.82413612
  PAW double counting   =       872.09356754     -837.15134369
  entropy T*S    EENTRO =         0.00570739
  eigenvalues    EBANDS =        10.65741311
  atomic energy  EATOM  =       206.13311910
  ---------------------------------------------------
  free energy    TOTEN  =        -6.95267722 eV

  energy without entropy =       -6.95838461  energy(sigma->0) =       -6.95457969


--------------------------------------------------------------------------------------------------------




--------------------------------------- Iteration      1(  15)  ---------------------------------------


    POTLOK:  cpu time    0.0017: real time    0.0017
    SETDIJ:  cpu time    0.0016: real time    0.0016
    TRIAL :  cpu time    0.2315: real time    0.2320
    CORREC:  cpu time    0.0562: real time    0.0563
    EDDIAG:  cpu time    0.1119: real time    0.1124
    CHARGE:  cpu time    0.0249: real time    0.0249
    --------------------------------------------
      LOOP:  cpu time    0.4311: real time    0.4323

 eigenvalue-minimisations  :     0
 total energy-change (2. order) :-0.6142159E-08  ( 0.7537058E-09)
 number of electron       8.0000015 magnetization 
 augmentation part       -0.4280971 magnetization 

 Free energy of the ion-electron system (eV)
  ---------------------------------------------------
  alpha Z        PSCENC =         3.29449589
  Ewald energy   TEWEN  =      -226.97511711
  -Hartree energ DENC   =       -17.18640784
  -exchange      EXHF   =         0.00000000
  -V(xc)+E(xc)   XCENC  =       -17.82413324
  PAW double counting   =       872.10379480     -837.16157162
  entropy T*S    EENTRO =         0.00570750
  eigenvalues    EBANDS =        10.65743540
  atomic energy  EATOM  =       206.13311910
  ---------------------------------------------------
  free energy    TOTEN  =        -6.95267723 eV

  energy without entropy =       -6.95838473  energy(sigma->0) =       -6.95457973


--------------------------------------------------------------------------------------------------------


  average scaling for gradient   1.4045


 average (electrostatic) potential at core
  the test charge radii are     0.9892
  (the norm of the test charge is              1.0000)
       1 -83.0416       2 -83.0416
 
 
 
 E-fermi :   6.0281     XC(G=0):  -9.1829     alpha+bet :-11.7364


 k-point     1 :       0.5000    0.5000    0.5000
  band No.  band energies     occupation 
      1      -3.6804      2.00000
      2      -1.0492      2.00000
      3       4.6857      2.00000
      4       4.6857      2.00000
      5       7.3066     -0.00000
      6       9.1116     -0.00000
      7       9.1116     -0.00000
      8      13.4646      0.00000
      9      16.2969      0.00000
     10      16.2969      0.00000
     11      17.0128      0.00000
     12      17.0128      0.00000
     13      17.0741      0.00000
     14      18.6119      0.00000
     15      25.0205      0.00000
     16      25.5519      0.00000

 k-point     2 :       0.4783    0.4783    0.4783
  band No.  band energies     occupation 
      1      -3.7070      2.00000
      2      -1.0111      2.00000
      3       4.6891      2.00000
      4       4.6891      2.00000
      5       7.3105     -0.00000
      6       9.1156     -0.00000
      7       9.1156     -0.00000
      8      13.4706      0.00000
      9      16.0854      0.00000
     10      16.0854      0.00000
     11      16.9659      0.00000
     12      17.2384      0.00000
     13      17.2384      0.00000
     14      18.7152      0.00000
     15      24.5730      0.00000
     16      26.0188      0.00000

 k-point     3 :       0.4565    0.4565    0.4565
  band No.  band energies     occupation 
      1      -3.7823      2.00000
      2      -0.9011      2.00000
      3       4.6992      2.00000
      4       4.6992      2.00000
      5       7.3221     -0.00000
      6       9.1272     -0.00000
      7       9.1272     -0.00000
      8      13.4883      0.00000
      9      15.7124      0.00000
     10      15.7124      0.00000
     11      16.7026      0.00000
     12      17.6534      0.00000
     13      17.6534      0.00000
     14      18.9610      0.00000
     15      23.9628      0.00000
     16      26.1881      0.00000

 k-point     4 :       0.4348    0.4348    0.4348
  band No.  band energies     occupation 
      1      -3.8956      2.00000
      2      -0.7300      2.00000
      3       4.7160      2.00000
      4       4.7160      2.00000
      5       7.3414     -0.00000
      6       9.1459     -0.00000
      7       9.1459     -0.00000
      8      13.5163      0.00000
      9      15.3226      0.00000
     10      15.3226      0.00000
     11      16.3687      0.00000
     12      18.1129      0.00000
     13      18.1129      0.00000
     14      19.2542      0.00000
     15      23.3788      0.00000
     16      25.6146      0.00000

 k-point     5 :       0.4130    0.4130    0.4130
  band No.  band energies     occupation 
      1      -4.0347      2.00000
      2      -0.5101      2.00000
      3       4.7395      2.00000
      4       4.7395      2.00000
      5       7.3683     -0.00000
      6       9.1706     -0.00000
      7       9.1706     -0.00000
      8      13.5523      0.00000
      9      14.9417      0.00000
     10      14.9417      0.00000
     11      16.0087      0.00000
     12      18.5897      0.00000
     13      18.5897      0.00000
     14      19.5267      0.00000
     15      22.8613      0.00000
     16      25.0564      0.00000

 k-point     6 :       0.3913    0.3913    0.3913
  band No.  band energies     occupation 
      1      -4.1891      2.00000
      2      -0.2521      2.00000
      3       4.7698      2.00000
      4       4.7698      2.00000
      5       7.4027     -0.00000
      6       9.1997     -0.00000
      7       9.1997     -0.00000
      8      13.5913      0.00000
      9      14.5779      0.00000
     10      14.5779      0.00000
     11      15.6452      0.00000
     12      19.0729      0.00000
     13      19.0729      0.00000
     14      19.7083      0.00000
     15      22.4660      0.00000
     16      24.5130      0.00000

 k-point     7 :       0.3696    0.3696    0.3696
  band No.  band energies     occupation 
      1      -4.3510      2.00000
      2       0.0360      2.00000
      3       4.8066      2.00000
      4       4.8066      2.00000
      5       7.4446     -0.00000
      6       9.2309     -0.00000
      7       9.2309     -0.00000
      8      13.6236      0.00000
      9      14.2362      0.00000
     10      14.2362      0.00000
     11      15.2954      0.00000
     12      19.5514      0.00000
     13      19.5514      0.00000
     14      19.7150      0.00000
     15      22.2704      0.00000
     16      23.9957      0.00000

 k-point     8 :       0.3478    0.3478    0.3478
  band No.  band energies     occupation 
      1      -4.5147      2.00000
      2       0.3483      2.00000
      3       4.8501      2.00000
      4       4.8501      2.00000
      5       7.4936     -0.00000
      6       9.2614     -0.00000
      7       9.2614     -0.00000
      8      13.6291      0.00000
      9      13.9205      0.00000
     10      13.9205      0.00000
     11      14.9828      0.00000
     12      19.5072      0.00000
     13      20.0067      0.00000
     14      20.0067      0.00000
     15      22.3104      0.00000
     16      23.5241      0.00000

 k-point     9 :       0.3261    0.3261    0.3261
  band No.  band energies     occupation 
      1      -4.6763      2.00000
      2       0.6806      2.00000
      3       4.9000      2.00000
      4       4.9000      2.00000
      5       7.5496     -0.00000
      6       9.2875     -0.00000
      7       9.2875     -0.00000
      8      13.5703      0.00000
      9      13.6351      0.00000
     10      13.6351      0.00000
     11      14.7454      0.00000
     12      19.1401      0.00000
     13      20.3997      0.00000
     14      20.3997      0.00000
     15      22.5278      0.00000
     16      23.1378      0.00000

 k-point    10 :       0.3043    0.3043    0.3043
  band No.  band energies     occupation 
      1      -4.8331      2.00000
      2       1.0297      2.00000
      3       4.9562      2.00000
      4       4.9562      2.00000
      5       7.6121     -0.00000
      6       9.3051     -0.00000
      7       9.3051     -0.00000
      8      13.3847      0.00000
      9      13.3847      0.00000
     10      13.4070      0.00000
     11      14.6227      0.00000
     12      18.6936      0.00000
     13      20.6501      0.00000
     14      20.6501      0.00000
     15      22.8385      0.00000
     16      22.9180      0.00000

 k-point    11 :       0.2826    0.2826    0.2826
  band No.  band energies     occupation 
      1      -4.9832      2.00000
      2       1.3932      2.00000
      3       5.0184      2.00000
      4       5.0184      2.00000
      5       7.6808     -0.00000
      6       9.3095     -0.00000
      7       9.3095     -0.00000
      8      13.1427      0.00000
      9      13.1739      0.00000
     10      13.1739      0.00000
     11      14.6088      0.00000
     12      18.2197      0.00000
     13      20.6601      0.00000
     14      20.6602      0.00000
     15      22.9627      0.00000
     16      23.1570      0.00000

 k-point    12 :       0.2609    0.2609    0.2609
  band No.  band energies     occupation 
      1      -5.1251      2.00000
      2       1.7691      2.00000
      3       5.0864      2.00000
      4       5.0864      2.00000
      5       7.7550     -0.00000
      6       9.2962     -0.00000
      7       9.2962     -0.00000
      8      12.8159      0.00000
      9      13.0073      0.00000
     10      13.0073      0.00000
     11      14.6604      0.00000
     12      17.7490      0.00000
     13      20.4420      0.00000
     14      20.4421      0.00000
     15      23.2601      0.00000
     16      23.4825      0.00000

 k-point    13 :       0.2391    0.2391    0.2391
  band No.  band energies     occupation 
      1      -5.2578      2.00000
      2       2.1555      2.00000
      3       5.1597      2.00000
      4       5.1597      2.00000
      5       7.8338     -0.00000
      6       9.2616     -0.00000
      7       9.2616     -0.00000
      8      12.4567      0.00000
      9      12.8882      0.00000
     10      12.8882      0.00000
     11      14.7397      0.00000
     12      17.3030      0.00000
     13      20.0996      0.00000
     14      20.0996      0.00000
     15      23.7064      0.00000
     16      23.7133      0.00000

 k-point    14 :       0.2174    0.2174    0.2174
  band No.  band energies     occupation 
      1      -5.3807      2.00000
      2       2.5507      2.00000
      3       5.2375      2.00000
      4       5.2375      2.00000
      5       7.9164     -0.00000
      6       9.2041     -0.00000
      7       9.2041     -0.00000
      8      12.0805      0.00000
      9      12.8181      0.00000
     10      12.8181      0.00000
     11      14.8168      0.00000
     12      16.9041      0.00000
     13      19.7075      0.00000
     14      19.7076      0.00000
     15      23.7078      0.00000
     16      24.2267      0.00000

 k-point    15 :       0.1957    0.1957    0.1957
  band No.  band energies     occupation 
      1      -5.4930      2.00000
      2       2.9527      2.00000
      3       5.3192      2.00001
      4       5.3192      2.00001
      5       8.0012     -0.00000
      6       9.1246     -0.00000
      7       9.1246     -0.00000
      8      11.6950      0.00000
      9      12.7955      0.00000
     10      12.7955      0.00000
     11      14.8595      0.00000
     12      16.5823      0.00000
     13      19.3017      0.00000
     14      19.3017      0.00000
     15      23.4768      0.00000
     16      24.7850      0.00000

 k-point    16 :       0.1739    0.1739    0.1739
  band No.  band energies     occupation 
      1      -5.5944      2.00000
      2       3.3593      2.00000
      3       5.4036      2.00009
      4       5.4036      2.00009
      5       8.0865     -0.00000
      6       9.0266     -0.00000
      7       9.0266     -0.00000
      8      11.3046     -0.00000
      9      12.8161      0.00000
     10      12.8161      0.00000
     11      14.8297      0.00000
     12      16.3751      0.00000
     13      18.8997      0.00000
     14      18.8997      0.00000
     15      23.1335      0.00000
     16      25.3638      0.00000

 k-point    17 :       0.1522    0.1522    0.1522
  band No.  band energies     occupation 
      1      -5.6844      2.00000
      2       3.7676      2.00000
      3       5.4891      2.00093
      4       5.4891      2.00093
      5       8.1700     -0.00000
      6       8.9157     -0.00000
      7       8.9157     -0.00000
      8      10.9131     -0.00000
      9      12.8736      0.00000
     10      12.8736      0.00000
     11      14.7070      0.00000
     12      16.3030      0.00000
     13      18.5116      0.00000
     14      18.5116      0.00000
     15      22.7589      0.00000
     16      25.9570      0.00000

 k-point    18 :       0.1304    0.1304    0.1304
  band No.  band energies     occupation 
      1      -5.7629      2.00000
      2       4.1738      2.00000
      3       5.5737      2.00607
      4       5.5737      2.00607
      5       8.2485     -0.00000
      6       8.7982     -0.00000
      7       8.7982     -0.00000
      8      10.5251     -0.00000
      9      12.9597      0.00000
     10      12.9597      0.00000
     11      14.5162      0.00000
     12      16.3403      0.00000
     13      18.1454      0.00000
     14      18.1454      0.00000
     15      22.3886      0.00000
     16      26.5378      0.00000

 k-point    19 :       0.1087    0.1087    0.1087
  band No.  band energies     occupation 
      1      -5.8297      2.00000
      2       4.5723      2.00000
      3       5.6551      2.02420
      4       5.6551      2.02421
      5       8.3176     -0.00000
      6       8.6815     -0.00000
      7       8.6815     -0.00000
      8      10.1477     -0.00000
      9      13.0652      0.00000
     10      13.0652      0.00000
     11      14.3023      0.00000
     12      16.4406      0.00000
     13      17.8083      0.00000
     14      17.8083      0.00000
     15      22.0410      0.00000
     16      27.1021      0.00000

 k-point    20 :       0.0870    0.0870    0.0870
  band No.  band energies     occupation 
      1      -5.8845      2.00000
      2       4.9543      2.00000
      3       5.7299      2.05622
      4       5.7299      2.05622
      5       8.3711     -0.00000
      6       8.5724     -0.00000
      7       8.5724     -0.00000
      8       9.7924     -0.00000
      9      13.1792      0.00000
     10      13.1792      0.00000
     11      14.0989      0.00000
     12      16.5666      0.00000
     13      17.5084      0.00000
     14      17.5084      0.00000
     15      21.7298      0.00000
     16      27.6333      0.00000

 k-point    21 :       0.0652    0.0652    0.0652
  band No.  band energies     occupation 
      1      -5.9272      2.00000
      2       5.3058      2.00000
      3       5.7945      2.06979
      4       5.7945      2.06979
      5       8.4002     -0.00000
      6       8.4781     -0.00000
      7       8.4781     -0.00000
      8       9.4789     -0.00000
      9      13.2898      0.00000
     10      13.2898      0.00000
     11      13.9261      0.00000
     12      16.6926      0.00000
     13      17.2557      0.00000
     14      17.2557      0.00000
     15      21.4672      0.00000
     16      28.0820      0.00000

 k-point    22 :       0.0435    0.0435    0.0435
  band No.  band energies     occupation 
      1      -5.9578      2.00000
      2       5.6035      2.01058
      3       5.8448      2.02789
      4       5.8448      2.02789
      5       8.3954     -0.00000
      6       8.4050     -0.00000
      7       8.4050     -0.00000
      8       9.2366     -0.00000
      9      13.3835      0.00000
     10      13.3835      0.00000
     11      13.7958      0.00000
     12      16.7993      0.00000
     13      17.0616      0.00000
     14      17.0616      0.00000
     15      21.2661      0.00000
     16      28.4026      0.00000

 k-point    23 :       0.0217    0.0217    0.0217
  band No.  band energies     occupation 
      1      -5.9762      2.00000
      2       5.8115      2.06329
      3       5.8769      1.95509
      4       5.8769      1.95508
      5       8.3585     -0.00000
      6       8.3585     -0.00000
      7       8.3630     -0.00000
      8       9.0925     -0.00000
      9      13.4471      0.00000
     10      13.4471      0.00000
     11      13.7149      0.00000
     12      16.8708      0.00000
     13      16.9384      0.00000
     14      16.9384      0.00000
     15      21.1389      0.00000
     16      28.6327      0.00000

 k-point    24 :       0.0000    0.0000    0.0000
  band No.  band energies     occupation 
      1      -5.9823      2.00000
      2       5.8879      1.91954
      3       5.8879      1.91936
      4       5.8879      1.91936
      5       8.3426     -0.00000
      6       8.3426     -0.00000
      7       8.3426     -0.00000
      8       9.0474     -0.00000
      9      13.4696      0.00000
     10      13.4696      0.00000
     11      13.6876      0.00000
     12      16.8960      0.00000
     13      16.8960      0.00000
     14      16.8960      0.00000
     15      21.0953      0.00000
     16      28.7076      0.00000

 k-point    25 :       0.0000    0.0000    0.0000
  band No.  band energies     occupation 
      1      -5.9823      2.00000
      2       5.8879      1.91954
      3       5.8879      1.91936
      4       5.8879      1.91936
      5       8.3426     -0.00000
      6       8.3426     -0.00000
      7       8.3426     -0.00000
      8       9.0474     -0.00000
      9      13.4696      0.00000
     10      13.4696      0.00000
     11      13.6876      0.00000
     12      16.8960      0.00000
     13      16.8960      0.00000
     14      16.8960      0.00000
     15      21.0953      0.00000
     16      28.7070      0.00000

 k-point    26 :       0.0000    0.0217    0.0217
  band No.  band energies     occupation 
      1      -5.9741      2.00000
      2       5.8295      2.04851
      3       5.8513      2.01662
      4       5.8513      2.01656
      5       8.3223     -0.00000
      6       8.3893     -0.00000
      7       8.3893     -0.00000
      8       9.1047     -0.00000
      9      13.4011      0.00000
     10      13.4787      0.00000
     11      13.7240      0.00000
     12      16.9103      0.00000
     13      16.9103      0.00000
     14      16.9458      0.00000
     15      21.1538      0.00000
     16      28.6031      0.00000

 k-point    27 :       0.0000    0.0435    0.0435
  band No.  band energies     occupation 
      1      -5.9496      2.00000
      2       5.6660      2.02816
      3       5.7491      2.06401
      4       5.7491      2.06402
      5       8.2634     -0.00000
      6       8.5216     -0.00000
      7       8.5217     -0.00000
      8       9.2628     -0.00000
      9      13.2131      0.00000
     10      13.5058      0.00000
     11      13.8316      0.00000
     12      16.9531      0.00000
     13      16.9531      0.00000
     14      17.0809      0.00000
     15      21.3275      0.00000
     16      28.2250      0.00000

 k-point    28 :       0.0000    0.0652    0.0652
  band No.  band energies     occupation 
      1      -5.9088      2.00000
      2       5.4237      2.00017
      3       5.5991      2.00978
      4       5.5991      2.00978
      5       8.1707     -0.00000
      6       8.7219     -0.00000
      7       8.7219     -0.00000
      8       9.4894     -0.00000
      9      12.9472      0.00000
     10      13.5510      0.00000
     11      14.0050      0.00000
     12      17.0244      0.00000
     13      17.0244      0.00000
     14      17.2704      0.00000
     15      21.6113      0.00000
     16      27.7501      0.00000

 k-point    29 :       0.0000    0.0870    0.0870
  band No.  band energies     occupation 
      1      -5.8517      2.00000
      2       5.1285      2.00000
      3       5.4192      2.00015
      4       5.4192      2.00015
      5       8.0512     -0.00000
      6       8.9718     -0.00000
      7       8.9719     -0.00000
      8       9.7448     -0.00000
      9      12.6528      0.00000
     10      13.6143      0.00000
     11      14.2372      0.00000
     12      17.1240      0.00000
     13      17.1240      0.00000
     14      17.4870      0.00000
     15      21.9958      0.00000
     16      27.2127      0.00000

[...]
     14      21.5334      0.00000
     15      22.4381      0.00000
     16      22.9016      0.00000

 k-point    77 :       0.3098    0.6196    0.3098
  band No.  band energies     occupation 
      1      -3.0820      2.00000
      2      -0.5432      2.00000
      3       1.5672      2.00000
      4       3.9773      2.00000
      5       7.5917     -0.00000
      6      11.6955      0.00000
      7      12.0007      0.00000
      8      12.7226      0.00000
      9      12.9177      0.00000
     10      13.0163      0.00000
     11      19.5236      0.00000
     12      20.0526      0.00000
     13      21.4070      0.00000
     14      21.8257      0.00000
     15      22.3735      0.00000
     16      22.8540      0.00000

 k-point    78 :       0.2935    0.5870    0.2935
  band No.  band energies     occupation 
      1      -3.3197      2.00000
      2      -0.3048      2.00000
      3       1.6775      2.00000
      4       4.1288      2.00000
      5       7.7621     -0.00000
      6      11.3589     -0.00000
      7      11.7457      0.00000
      8      12.4583      0.00000
      9      12.7592      0.00000
     10      13.5482      0.00000
     11      19.1737      0.00000
     12      19.7289      0.00000
     13      20.8794      0.00000
     14      22.1048      0.00000
     15      22.3773      0.00000
     16      23.2588      0.00000

 k-point    79 :       0.2772    0.5543    0.2772
  band No.  band energies     occupation 
      1      -3.5622      2.00000
      2      -0.0475      2.00000
      3       1.8241      2.00000
      4       4.2859      2.00000
      5       7.9362     -0.00000
      6      11.0386     -0.00000
      7      11.4389     -0.00000
      8      12.2153      0.00000
      9      12.5290      0.00000
     10      14.2407      0.00000
     11      18.8372      0.00000
     12      19.4424      0.00000
     13      20.1402      0.00000
     14      22.3652      0.00000
     15      22.6089      0.00000
     16      23.3185      0.00000

 k-point    80 :       0.2609    0.5217    0.2609
  band No.  band energies     occupation 
      1      -3.8046      2.00000
      2       0.2284      2.00000
      3       2.0022      2.00000
      4       4.4467      2.00000
      5       8.1100     -0.00000
      6      10.7351     -0.00000
      7      11.1343     -0.00000
      8      11.9971      0.00000
      9      12.3281      0.00000
     10      14.9216      0.00000
     11      18.5123      0.00000
     12      19.2101      0.00000
     13      19.3731      0.00000
     14      22.5950      0.00000
     15      22.7092      0.00000
     16      22.8896      0.00000

 k-point    81 :       0.2446    0.4891    0.2446
  band No.  band energies     occupation 
      1      -4.0429      2.00000
      2       0.5225      2.00000
      3       2.2076      2.00000
      4       4.6089      2.00000
      5       8.2779     -0.00000
      6      10.4487     -0.00000
      7      10.8415     -0.00000
      8      11.8081      0.00000
      9      12.1589      0.00000
     10      15.5445      0.00000
     11      18.1778      0.00000
     12      18.6362      0.00000
     13      19.0643      0.00000
     14      22.0771      0.00000
     15      22.7714      0.00000
     16      23.1851      0.00000

 k-point    82 :       0.2283    0.4565    0.2283
  band No.  band energies     occupation 
      1      -4.2739      2.00000
      2       0.8347      2.00000
      3       2.4370      2.00000
      4       4.7698      2.00000
      5       8.4337     -0.00000
      6      10.1798     -0.00000
      7      10.5633     -0.00000
      8      11.6526      0.00000
      9      12.0239      0.00000
     10      16.0430      0.00000
     11      17.6875      0.00000
     12      18.0883      0.00000
     13      19.0598      0.00000
     14      21.4528      0.00000
     15      22.8530      0.00000
     16      23.4839      0.00000

 k-point    83 :       0.2120    0.4239    0.2120
  band No.  band energies     occupation 
      1      -4.4953      2.00000
      2       1.1645      2.00000
      3       2.6871      2.00000
      4       4.9269      2.00000
      5       8.5698     -0.00000
      6       9.9287     -0.00000
      7      10.3008     -0.00000
      8      11.5347      0.00000
      9      11.9256      0.00000
     10      16.3398      0.00000
     11      16.9971      0.00000
     12      17.7813      0.00000
     13      19.2463      0.00000
     14      20.8752      0.00000
     15      22.7811      0.00000
     16      23.7766      0.00000

 k-point    84 :       0.1957    0.3913    0.1957
  band No.  band energies     occupation 
      1      -4.7051      2.00000
      2       1.5115      2.00000
      3       2.9550      2.00000
      4       5.0772      2.00000
      5       8.6791     -0.00000
      6       9.6955     -0.00000
      7      10.0542     -0.00000
      8      11.4566     -0.00000
      9      11.8663      0.00000
     10      16.2870      0.00000
     11      16.4148      0.00000
     12      17.5421      0.00000
     13      19.5093      0.00000
     14      20.4866      0.00000
     15      22.5146      0.00000
     16      24.0490      0.00000

 k-point    85 :       0.1793    0.3587    0.1793
  band No.  band energies     occupation 
      1      -4.9017      2.00000
      2       1.8750      2.00000
      3       3.2379      2.00000
      4       5.2182      2.00000
      5       8.7563     -0.00000
      6       9.4805     -0.00000
      7       9.8234     -0.00000
      8      11.4152     -0.00000
      9      11.8481      0.00000
     10      15.6001      0.00000
     11      16.3237      0.00000
     12      17.3373      0.00000
     13      19.3585      0.00000
     14      20.7269      0.00000
     15      22.0762      0.00000
     16      24.2707      0.00000

 k-point    86 :       0.1630    0.3261    0.1630
  band No.  band energies     occupation 
      1      -5.0840      2.00000
      2       2.2543      2.00000
      3       3.5326      2.00000
      4       5.3473      2.00002
      5       8.7998     -0.00000
      6       9.2838     -0.00000
      7       9.6084     -0.00000
      8      11.3987     -0.00000
      9      11.8725      0.00000
     10      14.9545      0.00000
     11      16.1301      0.00000
     12      17.1622      0.00000
     13      18.9342      0.00000
     14      21.3965      0.00000
     15      21.5299      0.00000
     16      24.3767      0.00000

 k-point    87 :       0.1467    0.2935    0.1467
  band No.  band energies     occupation 
      1      -5.2511      2.00000
      2       2.6483      2.00000
      3       3.8360      2.00000
      4       5.4628      2.00048
      5       8.8124     -0.00000
      6       9.1056     -0.00000
      7       9.4085     -0.00000
      8      11.3814     -0.00000
      9      11.9398      0.00000
     10      14.3727      0.00000
     11      15.8724      0.00000
     12      17.0171      0.00000
     13      18.5052      0.00000
     14      20.9317      0.00000
     15      22.1917      0.00000
     16      24.2698      0.00000

 k-point    88 :       0.1304    0.2609    0.1304
  band No.  band energies     occupation 
      1      -5.4021      2.00000
      2       3.0557      2.00000
      3       4.1440      2.00000
      4       5.5634      2.00493
      5       8.8002     -0.00000
      6       8.9458     -0.00000
      7       9.2234     -0.00000
      8      11.3206     -0.00000
      9      12.0493      0.00000
     10      13.8892      0.00000
     11      15.5725      0.00000
     12      16.9029      0.00000
     13      18.1235      0.00000
     14      20.3170      0.00000
     15      23.0413      0.00000
     16      23.9334      0.00000

 k-point    89 :       0.1141    0.2283    0.1141
  band No.  band energies     occupation 
      1      -5.5365      2.00000
      2       3.4744      2.00000
      3       4.4521      2.00000
      4       5.6486      2.02204
      5       8.7704     -0.00000
      6       8.8047     -0.00000
      7       9.0524     -0.00000
      8      11.1639     -0.00000
      9      12.1987      0.00000
     10      13.5464      0.00000
     11      15.2470      0.00000
     12      16.8210      0.00000
     13      17.8009      0.00000
     14      19.7069      0.00000
     15      23.4674      0.00000
     16      23.9192      0.00000

 k-point    90 :       0.0978    0.1957    0.0978
  band No.  band energies     occupation 
      1      -5.6538      2.00000
      2       3.9012      2.00000
      3       4.7544      2.00000
      4       5.7188      2.05121
      5       8.6823     -0.00000
      6       8.7293     -0.00000
      7       8.8951     -0.00000
      8      10.8826     -0.00000
      9      12.3835      0.00000
     10      13.3636      0.00000
     11      14.9130      0.00000
     12      16.7723      0.00000
     13      17.5373      0.00000
     14      19.1161      0.00000
     15      22.9655      0.00000
     16      24.8094      0.00000

 k-point    91 :       0.0815    0.1630    0.0815
  band No.  band energies     occupation 
      1      -5.7536      2.00000
      2       4.3315      2.00000
      3       5.0438      2.00000
      4       5.7749      2.07045
      5       8.5786     -0.00000
      6       8.6813     -0.00000
      7       8.7515     -0.00000
      8      10.5018     -0.00000
      9      12.5967      0.00000
     10      13.3094      0.00000
     11      14.5886      0.00000
     12      16.7562      0.00000
     13      17.3274      0.00000
     14      18.5568      0.00000
     15      22.4766      0.00000
     16      25.6974      0.00000

 k-point    92 :       0.0652    0.1304    0.0652
  band No.  band energies     occupation 
      1      -5.8356      2.00000
      2       4.7569      2.00000
      3       5.3107      2.00000
      4       5.8181      2.05893
      5       8.4937     -0.00000
      6       8.6225     -0.00000
      7       8.6275     -0.00000
      8      10.0771     -0.00000
      9      12.8272      0.00000
     10      13.3285      0.00000
     11      14.2922      0.00000
     12      16.7692      0.00000
     13      17.1650      0.00000
     14      18.0424      0.00000
     15      22.0294      0.00000
     16      26.5645      0.00000

 k-point    93 :       0.0489    0.0978    0.0489
  band No.  band energies     occupation 
      1      -5.8997      2.00000
      2       5.1630      2.00000
      3       5.5432      2.00324
      4       5.8498      2.01927
      5       8.4276     -0.00000
      6       8.5109     -0.00000
      7       8.5644     -0.00000
      8       9.6657     -0.00000
      9      13.0584      0.00000
     10      13.3759      0.00000
     11      14.0406      0.00000
     12      16.8036      0.00000
     13      17.0443      0.00000
     14      17.5904      0.00000
     15      21.6467      0.00000
     16      27.3791      0.00000

 k-point    94 :       0.0326    0.0652    0.0326
  band No.  band energies     occupation 
      1      -5.9456      2.00000
      2       5.5226      2.00206
      3       5.7270      2.05495
      4       5.8714      1.97071
      5       8.3804     -0.00000
      6       8.4219     -0.00000
      7       8.4834     -0.00000
      8       9.3263     -0.00000
      9      13.2656      0.00000
     10      13.4240      0.00000
     11      13.8488      0.00000
     12      16.8466      0.00000
     13      16.9610      0.00000
     14      17.2258      0.00000
     15      21.3500      0.00000
     16      28.1542      0.00000

 k-point    95 :       0.0163    0.0326    0.0163
  band No.  band energies     occupation 
      1      -5.9731      2.00000
      2       5.7870      2.07078
      3       5.8464      2.02530
      4       5.8839      1.93323
      5       8.3520     -0.00000
      6       8.3632     -0.00000
      7       8.3901     -0.00000
      8       9.1149     -0.00000
      9      13.4145      0.00000
     10      13.4577      0.00000
     11      13.7285      0.00000
     12      16.8822      0.00000
     13      16.9121      0.00000
     14      16.9825      0.00000
     15      21.1606      0.00000
     16      28.6099      0.00000

 k-point    96 :       0.0000    0.0000    0.0000
  band No.  band energies     occupation 
      1      -5.9823      2.00000
      2       5.8879      1.91953
      3       5.8879      1.91937
      4       5.8879      1.91936
      5       8.3426     -0.00000
      6       8.3426     -0.00000
      7       8.3426     -0.00000
      8       9.0474     -0.00000
      9      13.4696      0.00000
     10      13.4696      0.00000
     11      13.6876      0.00000
     12      16.8960      0.00000
     13      16.8960      0.00000
     14      16.8960      0.00000
     15      21.0953      0.00000
     16      28.7071      0.00000


--------------------------------------------------------------------------------------------------------


 soft charge-density along one line, spin component           1
         0         1         2         3         4         5         6         7         8         9
 total charge-density along one line
 
 pseudopotential strength for first ion, spin component:           1
 18.395  25.664   0.000   0.000   0.000   0.000   0.000   0.000
 25.664  35.810   0.000   0.000   0.000   0.000   0.000   0.000
  0.000   0.000   4.177  -0.000  -0.000   7.783  -0.000  -0.000
  0.000   0.000  -0.000   4.177  -0.000  -0.000   7.783  -0.000
  0.000   0.000  -0.000  -0.000   4.177  -0.000  -0.000   7.783
  0.000   0.000   7.783  -0.000  -0.000  14.513  -0.000  -0.000
  0.000   0.000  -0.000   7.783  -0.000  -0.000  14.513  -0.000
  0.000   0.000  -0.000  -0.000   7.783  -0.000  -0.000  14.513
 total augmentation occupancy for first ion, spin component:           1
  6.143  -2.532   0.000   0.000   0.000   0.000   0.000  -0.000
 -2.532   1.150  -0.000   0.000   0.000  -0.000   0.000  -0.000
  0.000   0.000   2.881   0.000   0.000  -0.594  -0.000  -0.000
  0.000  -0.000   0.000   2.881  -0.000  -0.000  -0.594  -0.000
  0.000  -0.000   0.000  -0.000   2.881   0.000   0.000  -0.594
  0.000   0.000  -0.594   0.000   0.000   0.134   0.000   0.000
 -0.000  -0.000   0.000  -0.594  -0.000   0.000   0.134   0.000
 -0.000  -0.000  -0.000  -0.000  -0.594   0.000   0.000   0.134


------------------------ aborting loop because EDIFF is reached ----------------------------------------


 


 total charge     
 
# of ion       s       p       d       tot
------------------------------------------
    1        0.672   1.019   0.000   1.691
    2        0.672   1.019   0.000   1.691
--------------------------------------------------
tot          1.343   2.038   0.000   3.381
 
    FORLOC:  cpu time    0.0001: real time    0.0001
    FORNL :  cpu time    0.0293: real time    0.0293
    STRESS:  cpu time    0.4397: real time    0.4400
    FORCOR:  cpu time    0.0019: real time    0.0019
    OFIELD:  cpu time    0.0006: real time    0.0006

  FORCE on cell =-STRESS in cart. coord.  units (eV):
  Direction    XX          YY          ZZ          XY          YZ          ZX
  --------------------------------------------------------------------------------------
  Alpha Z     3.29450     3.29450     3.29450
  Ewald     -75.65841   -75.65841   -75.65841    -0.00000    -0.00000     0.00000
  Hartree     5.72881     5.72881     5.72881     0.00000     0.00000     0.00000
  E(xc)     -25.60020   -25.60020   -25.60020    -0.00018    -0.00018    -0.00018
  Local     -30.72403   -30.72403   -30.72403     0.00022     0.00022     0.00022
  n-local    72.53937    76.48162    77.55515    -0.83816    -1.27357    -1.89044
  augment   -10.87621   -10.87621   -10.87621    -0.00016    -0.00016    -0.00016
  Kinetic    57.86775    62.33942    63.05688    -0.94377    -1.76438    -1.31563
  Fock        0.00000     0.00000     0.00000     0.00000     0.00000     0.00000
  -------------------------------------------------------------------------------------
  Total       2.77785     2.77785     2.77785     0.00000    -0.00000    -0.00000
  in kB     108.89158   108.89158   108.89158     0.00000    -0.00000    -0.00000
  external pressure =      108.89 kB  Pullay stress =        0.00 kB


 VOLUME and BASIS-vectors are now :
 -----------------------------------------------------------------------------
  energy-cutoff  :      600.00
  volume of cell :       40.87
      direct lattice vectors                 reciprocal lattice vectors
     0.000000000  2.734000000  2.734000000    -0.182882224  0.182882224  0.182882224
     2.734000000  0.000000000  2.734000000     0.182882224 -0.182882224  0.182882224
     2.734000000  2.734000000  0.000000000     0.182882224  0.182882224 -0.182882224

  length of vectors
     3.866459880  3.866459880  3.866459880     0.316761304  0.316761304  0.316761304


 FORCES acting on ions:
    Electron-Ion                     Ewald-Force                    Non-Local-Force
 -----------------------------------------------------------------------------------------------
   -.248E-05 -.248E-05 -.225E-05   0.108E-14 -.120E-14 0.135E-14   -.729E-16 0.153E-15 0.555E-16
   0.248E-05 0.248E-05 0.225E-05   -.991E-15 0.136E-14 -.132E-14   0.121E-15 -.971E-16 -.694E-16
 -----------------------------------------------------------------------------------------------
   -.271E-13 0.424E-13 0.698E-14   0.896E-16 0.159E-15 0.308E-16   0.486E-16 0.555E-16 -.139E-16
 
 
 POSITION                                       TOTAL-FORCE (eV/Angst)
 -----------------------------------------------------------------------------------
      4.78450      4.78450      4.78450         0.000000     -0.000000     -0.000000
      0.68350      0.68350      0.68350        -0.000000      0.000000      0.000000
 -----------------------------------------------------------------------------------
    total drift:                               -0.000000      0.000000      0.000000


--------------------------------------------------------------------------------------------------------



  FREE ENERGIE OF THE ION-ELECTRON SYSTEM (eV)
  ---------------------------------------------------
  free  energy   TOTEN  =        -6.95267723 eV

  energy  without entropy=       -6.95838473  energy(sigma->0) =       -6.95457973
 


--------------------------------------------------------------------------------------------------------


    POTLOK:  cpu time    0.0043: real time    0.0043


--------------------------------------------------------------------------------------------------------


 writing wavefunctions
     LOOP+:  cpu time    7.5900: real time    7.6712
    4ORBIT:  cpu time    0.0010: real time    0.0000
 


 total charge     
 
# of ion       s       p       d       tot
------------------------------------------
    1        0.672   1.019   0.000   1.691
    2        0.672   1.019   0.000   1.691
--------------------------------------------------
tot          1.343   2.038   0.000   3.381
 

 total amount of memory used by VASP MPI-rank0    45820. kBytes
=======================================================================

   base      :      30000. kBytes
   nonl-proj :       8596. kBytes
   fftplans  :        112. kBytes
   grid      :        620. kBytes
   one-center:          6. kBytes
   wavefun   :       6486. kBytes
 
  
  
 General timing and accounting informations for this job:
 ========================================================
  
                  Total CPU time used (sec):        8.439
                            User time (sec):        7.880
                          System time (sec):        0.559
                         Elapsed time (sec):        8.690
  
                   Maximum memory used (kb):       69804.
                   Average memory used (kb):           0.
  
                          Minor page faults:        20524
                          Major page faults:            0
                 Voluntary context switches:          359
