PROCAR lm decomposed
# of k-points:   96         # of bands:   16         # of ions:    2

 k-point     1 :    0.50000000 0.50000000 0.50000000     weight = 0.01041667

band     1 # energy   -3.68040816 # occ.  2.00000000
 
ion      s     py     pz     px    dxy    dyz    dz2    dxz  x2-y2    tot
    1  0.222  0.004  0.004  0.004  0.000  0.000  0.000  0.000  0.000  0.235
    2  0.222  0.004  0.004  0.004  0.000  0.000  0.000  0.000  0.000  0.235
tot    0.444  0.009  0.009  0.009  0.000  0.000  0.000  0.000  0.000  0.470
 
band     2 # energy   -1.04922869 # occ.  2.00000000
 
ion      s     py     pz     px    dxy    dyz    dz2    dxz  x2-y2    tot
    1  0.097  0.031  0.031  0.031  0.000  0.000  0.000  0.000  0.000  0.189
    2  0.097  0.031  0.031  0.031  0.000  0.000  0.000  0.000  0.000  0.189
tot    0.194  0.061  0.061  0.061  0.000  0.000  0.000  0.000  0.000  0.378
 
band     3 # energy    4.68571068 # occ.  2.00000000
 
ion      s     py     pz     px    dxy    dyz    dz2    dxz  x2-y2    tot
    1  0.000  0.107  0.000  0.107  0.000  0.000  0.000  0.000  0.000  0.214
    2  0.000  0.107  0.000  0.107  0.000  0.000  0.000  0.000  0.000  0.214
tot    0.000  0.214  0.000  0.214  0.000  0.000  0.000  0.000  0.000  0.428
 
band     4 # energy    4.68571068 # occ.  2.00000000
 
ion      s     py     pz     px    dxy    dyz    dz2    dxz  x2-y2    tot
    1  0.000  0.036  0.143  0.036  0.000  0.000  0.000  0.000  0.000  0.214
    2  0.000  0.036  0.143  0.036  0.000  0.000  0.000  0.000  0.000  0.214
tot    0.000  0.071  0.286  0.071  0.000  0.000  0.000  0.000  0.000  0.428
 
band     5 # energy    7.30659583 # occ. -0.00000000
 
ion      s     py     pz     px    dxy    dyz    dz2    dxz  x2-y2    tot
    1  0.186  0.006  0.006  0.006  0.000  0.000  0.000  0.000  0.000  0.206
    2  0.186  0.006  0.006  0.006  0.000  0.000  0.000  0.000  0.000  0.206
tot    0.372  0.013  0.013  0.013  0.000  0.000  0.000  0.000  0.000  0.411
 
band     6 # energy    9.11162521 # occ. -0.00000000
 
ion      s     py     pz     px    dxy    dyz    dz2    dxz  x2-y2    tot
    1  0.000  0.057  0.030  0.006  0.000  0.000  0.000  0.000  0.000  0.093
    2  0.000  0.057  0.030  0.006  0.000  0.000  0.000  0.000  0.000  0.093
tot    0.000  0.115  0.059  0.012  0.000  0.000  0.000  0.000  0.000  0.186
 
band     7 # energy    9.11162521 # occ. -0.00000000
 
ion      s     py     pz     px    dxy    dyz    dz2    dxz  x2-y2    tot
    1  0.000  0.004  0.032  0.056  0.000  0.000  0.000  0.000  0.000  0.093
    2  0.000  0.004  0.032  0.056  0.000  0.000  0.000  0.000  0.000  0.093
tot    0.000  0.009  0.065  0.112  0.000  0.000  0.000  0.000  0.000  0.186
 
band     8 # energy   13.46463742 # occ.  0.00000000
 
ion      s     py     pz     px    dxy    dyz    dz2    dxz  x2-y2    tot
    1  0.006  0.017  0.017  0.017  0.000  0.000  0.000  0.000  0.000  0.058
    2  0.006  0.017  0.017  0.017  0.000  0.000  0.000  0.000  0.000  0.058
tot    0.012  0.035  0.035  0.035  0.000  0.000  0.000  0.000  0.000  0.117
 
band     9 # energy   16.29689296 # occ.  0.00000000
 
ion      s     py     pz     px    dxy    dyz    dz2    dxz  x2-y2    tot
    1  0.000  0.000  0.000  0.000  0.000  0.000  0.000  0.000  0.000  0.000
    2  0.000  0.000  0.000  0.000  0.000  0.000  0.000  0.000  0.000  0.000
tot    0.000  0.000  0.000  0.000  0.000  0.000  0.000  0.000  0.000  0.001
 
band    10 # energy   16.29689296 # occ.  0.00000000
 
ion      s     py     pz     px    dxy    dyz    dz2    dxz  x2-y2    tot
    1  0.000  0.000  0.000  0.000  0.000  0.000  0.000  0.000  0.000  0.000
    2  0.000  0.000  0.000  0.000  0.000  0.000  0.000  0.000  0.000  0.000
tot    0.000  0.000  0.000  0.000  0.000  0.000  0.000  0.000  0.000  0.001
 
band    11 # energy   17.01275313 # occ.  0.00000000
 
ion      s     py     pz     px    dxy    dyz    dz2    dxz  x2-y2    tot
    1  0.000  0.037  0.007  0.071  0.000  0.000  0.000  0.000  0.000  0.115
    2  0.000  0.037  0.007  0.071  0.000  0.000  0.000  0.000  0.000  0.115
tot    0.000  0.074  0.014  0.142  0.000  0.000  0.000  0.000  0.000  0.230
 
band    12 # energy   17.01275313 # occ.  0.00000000
 
ion      s     py     pz     px    dxy    dyz    dz2    dxz  x2-y2    tot
    1  0.000  0.040  0.070  0.006  0.000  0.000  0.000  0.000  0.000  0.115
    2  0.000  0.040  0.070  0.006  0.000  0.000  0.000  0.000  0.000  0.115
tot    0.000  0.079  0.140  0.011  0.000  0.000  0.000  0.000  0.000  0.230
 
band    13 # energy   17.07406497 # occ.  0.00000000
 
ion      s     py     pz     px    dxy    dyz    dz2    dxz  x2-y2    tot
    1  0.038  0.050  0.050  0.050  0.000  0.000  0.000  0.000  0.000  0.188
    2  0.038  0.050  0.050  0.050  0.000  0.000  0.000  0.000  0.000  0.188
tot    0.075  0.101  0.101  0.101  0.000  0.000  0.000  0.000  0.000  0.377
 
band    14 # energy   18.61191419 # occ.  0.00000000
 
ion      s     py     pz     px    dxy    dyz    dz2    dxz  x2-y2    tot
    1  0.087  0.069  0.069  0.069  0.000  0.000  0.000  0.000  0.000  0.295
    2  0.087  0.069  0.069  0.069  0.000  0.000  0.000  0.000  0.000  0.295
tot    0.174  0.139  0.139  0.139  0.000  0.000  0.000  0.000  0.000  0.590
 
band    15 # energy   25.02047883 # occ.  0.00000000
 
ion      s     py     pz     px    dxy    dyz    dz2    dxz  x2-y2    tot
    1  0.051  0.004  0.004  0.004  0.000  0.000  0.000  0.000  0.000  0.064
    2  0.051  0.004  0.004  0.004  0.000  0.000  0.000  0.000  0.000  0.064
tot    0.101  0.009  0.009  0.009  0.000  0.000  0.000  0.000  0.000  0.127
 
band    16 # energy   25.55186552 # occ.  0.00000000
 
ion      s     py     pz     px    dxy    dyz    dz2    dxz  x2-y2    tot
    1  0.014  0.023  0.023  0.023  0.000  0.000  0.000  0.000  0.000  0.082
    2  0.014  0.023  0.023  0.023  0.000  0.000  0.000  0.000  0.000  0.082
tot    0.028  0.046  0.046  0.046  0.000  0.000  0.000  0.000  0.000  0.165
 

 k-point     2 :    0.47826087 0.47826087 0.47826087     weight = 0.01041667

band     1 # energy   -3.70699289 # occ.  2.00000000
 
ion      s     py     pz     px    dxy    dyz    dz2    dxz  x2-y2    tot
    1  0.221  0.004  0.004  0.004  0.000  0.000  0.000  0.000  0.000  0.234
    2  0.221  0.004  0.004  0.004  0.000  0.000  0.000  0.000  0.000  0.234
tot    0.442  0.009  0.009  0.009  0.000  0.000  0.000  0.000  0.000  0.469
 
band     2 # energy   -1.01108480 # occ.  2.00000000
 
ion      s     py     pz     px    dxy    dyz    dz2    dxz  x2-y2    tot
    1  0.098  0.031  0.031  0.031  0.000  0.000  0.000  0.000  0.000  0.190
    2  0.098  0.031  0.031  0.031  0.000  0.000  0.000  0.000  0.000  0.190
tot    0.196  0.061  0.061  0.061  0.000  0.000  0.000  0.000  0.000  0.379
 
band     3 # energy    4.68907710 # occ.  2.00000000
 
ion      s     py     pz     px    dxy    dyz    dz2    dxz  x2-y2    tot
    1  0.000  0.107  0.000  0.107  0.000  0.000  0.000  0.000  0.000  0.214
    2  0.000  0.107  0.000  0.107  0.000  0.000  0.000  0.000  0.000  0.214
tot    0.000  0.214  0.000  0.214  0.000  0.000  0.000  0.000  0.000  0.428
 
band     4 # energy    4.68907710 # occ.  2.00000000
 
ion      s     py     pz     px    dxy    dyz    dz2    dxz  x2-y2    tot
    1  0.000  0.036  0.143  0.036  0.000  0.000  0.000  0.000  0.000  0.214
    2  0.000  0.036  0.143  0.036  0.000  0.000  0.000  0.000  0.000  0.214
tot    0.000  0.071  0.285  0.071  0.000  0.000  0.000  0.000  0.000  0.428
 
band     5 # energy    7.31046758 # occ. -0.00000000
 
ion      s     py     pz     px    dxy    dyz    dz2    dxz  x2-y2    tot
    1  0.186  0.007  0.007  0.007  0.000  0.000  0.000  0.000  0.000  0.206
    2  0.186  0.007  0.007  0.007  0.000  0.000  0.000  0.000  0.000  0.206
tot    0.372  0.013  0.013  0.013  0.000  0.000  0.000  0.000  0.000  0.411
 
band     6 # energy    9.11557842 # occ. -0.00000000
 
ion      s     py     pz     px    dxy    dyz    dz2    dxz  x2-y2    tot
    1  0.000  0.052  0.030  0.011  0.000  0.000  0.000  0.000  0.000  0.093
    2  0.000  0.052  0.030  0.011  0.000  0.000  0.000  0.000  0.000  0.093
tot    0.000  0.103  0.060  0.023  0.000  0.000  0.000  0.000  0.000  0.186
 
band     7 # energy    9.11557842 # occ. -0.00000000
 
ion      s     py     pz     px    dxy    dyz    dz2    dxz  x2-y2    tot
    1  0.000  0.010  0.032  0.051  0.000  0.000  0.000  0.000  0.000  0.093
    2  0.000  0.010  0.032  0.051  0.000  0.000  0.000  0.000  0.000  0.093
tot    0.000  0.021  0.064  0.101  0.000  0.000  0.000  0.000  0.000  0.186
 
band     8 # energy   13.47063562 # occ.  0.00000000
 
ion      s     py     pz     px    dxy    dyz    dz2    dxz  x2-y2    tot
    1  0.006  0.018  0.018  0.018  0.000  0.000  0.000  0.000  0.000  0.059
    2  0.006  0.018  0.018  0.018  0.000  0.000  0.000  0.000  0.000  0.059
tot    0.012  0.035  0.035  0.035  0.000  0.000  0.000  0.000  0.000  0.118
 
band     9 # energy   16.08536793 # occ.  0.00000000
 
ion      s     py     pz     px    dxy    dyz    dz2    dxz  x2-y2    tot
    1  0.000  0.013  0.001  0.007  0.000  0.000  0.000  0.000  0.000  0.022
    2  0.000  0.013  0.001  0.007  0.000  0.000  0.000  0.000  0.000  0.022
tot    0.000  0.027  0.003  0.014  0.000  0.000  0.000  0.000  0.000  0.043
 
band    10 # energy   16.08536793 # occ.  0.00000000
 
ion      s     py     pz     px    dxy    dyz    dz2    dxz  x2-y2    tot
    1  0.000  0.001  0.013  0.008  0.000  0.000  0.000  0.000  0.000  0.022
    2  0.000  0.001  0.013  0.008  0.000  0.000  0.000  0.000  0.000  0.022
tot    0.000  0.002  0.026  0.015  0.000  0.000  0.000  0.000  0.000  0.043
 
band    11 # energy   16.96589983 # occ.  0.00000000
 
ion      s     py     pz     px    dxy    dyz    dz2    dxz  x2-y2    tot
    1  0.045  0.050  0.050  0.050  0.000  0.000  0.000  0.000  0.000  0.195
    2  0.045  0.050  0.050  0.050  0.000  0.000  0.000  0.000  0.000  0.195
tot    0.089  0.100  0.100  0.100  0.000  0.000  0.000  0.000  0.000  0.390
 
band    12 # energy   17.23836818 # occ.  0.00000000
 
ion      s     py     pz     px    dxy    dyz    dz2    dxz  x2-y2    tot
    1  0.000  0.058  0.024  0.011  0.000  0.000  0.000  0.000  0.000  0.093
    2  0.000  0.058  0.024  0.011  0.000  0.000  0.000  0.000  0.000  0.093
tot    0.000  0.117  0.048  0.022  0.000  0.000  0.000  0.000  0.000  0.187
 
band    13 # energy   17.23836818 # occ.  0.00000000
 
ion      s     py     pz     px    dxy    dyz    dz2    dxz  x2-y2    tot
    1  0.000  0.004  0.038  0.051  0.000  0.000  0.000  0.000  0.000  0.093
    2  0.000  0.004  0.038  0.051  0.000  0.000  0.000  0.000  0.000  0.093
tot    0.000  0.008  0.076  0.103  0.000  0.000  0.000  0.000  0.000  0.187
 
band    14 # energy   18.71519666 # occ.  0.00000000
 
ion      s     py     pz     px    dxy    dyz    dz2    dxz  x2-y2    tot
    1  0.080  0.070  0.070  0.070  0.000  0.000  0.000  0.000  0.000  0.289
    2  0.080  0.070  0.070  0.070  0.000  0.000  0.000  0.000  0.000  0.289
tot    0.160  0.139  0.139  0.139  0.000  0.000  0.000  0.000  0.000  0.578
 
band    15 # energy   24.57296692 # occ.  0.00000000
 
ion      s     py     pz     px    dxy    dyz    dz2    dxz  x2-y2    tot
    1  0.043  0.008  0.008  0.008  0.000  0.000  0.000  0.000  0.000  0.068
    2  0.043  0.008  0.008  0.008  0.000  0.000  0.000  0.000  0.000  0.068
tot    0.086  0.016  0.017  0.016  0.000  0.000  0.000  0.000  0.000  0.136
 
band    16 # energy   26.01882620 # occ.  0.00000000
 
ion      s     py     pz     px    dxy    dyz    dz2    dxz  x2-y2    tot
    1  0.022  0.019  0.019  0.018  0.000  0.000  0.000  0.000  0.000  0.077
    2  0.022  0.019  0.019  0.018  0.000  0.000  0.000  0.000  0.000  0.077
tot    0.044  0.037  0.037  0.036  0.000  0.000  0.000  0.000  0.000  0.155
 

 k-point     3 :    0.45652174 0.45652174 0.45652174     weight = 0.01041667

band     1 # energy   -3.78230151 # occ.  2.00000000
 
ion      s     py     pz     px    dxy    dyz    dz2    dxz  x2-y2    tot
    1  0.219  0.005  0.005  0.005  0.000  0.000  0.000  0.000  0.000  0.233
    2  0.219  0.005  0.005  0.005  0.000  0.000  0.000  0.000  0.000  0.233
tot    0.438  0.009  0.009  0.009  0.000  0.000  0.000  0.000  0.000  0.465
 
band     2 # energy   -0.90107361 # occ.  2.00000000
 
ion      s     py     pz     px    dxy    dyz    dz2    dxz  x2-y2    tot
    1  0.100  0.031  0.031  0.031  0.000  0.000  0.000  0.000  0.000  0.191
    2  0.100  0.031  0.031  0.031  0.000  0.000  0.000  0.000  0.000  0.191
tot    0.200  0.061  0.061  0.061  0.000  0.000  0.000  0.000  0.000  0.383
 
band     3 # energy    4.69917639 # occ.  2.00000000
 
ion      s     py     pz     px    dxy    dyz    dz2    dxz  x2-y2    tot
    1  0.000  0.105  0.000  0.109  0.000  0.000  0.000  0.000  0.000  0.214
    2  0.000  0.105  0.000  0.109  0.000  0.000  0.000  0.000  0.000  0.214
tot    0.000  0.209  0.000  0.218  0.000  0.000  0.000  0.000  0.000  0.428
 
band     4 # energy    4.69917639 # occ.  2.00000000
 
ion      s     py     pz     px    dxy    dyz    dz2    dxz  x2-y2    tot
    1  0.000  0.038  0.143  0.033  0.000  0.000  0.000  0.000  0.000  0.214
    2  0.000  0.038  0.143  0.033  0.000  0.000  0.000  0.000  0.000  0.214
tot    0.000  0.076  0.285  0.067  0.000  0.000  0.000  0.000  0.000  0.428
 
band     5 # energy    7.32206841 # occ. -0.00000000
 
ion      s     py     pz     px    dxy    dyz    dz2    dxz  x2-y2    tot
    1  0.185  0.007  0.007  0.007  0.000  0.000  0.000  0.000  0.000  0.205
    2  0.185  0.007  0.007  0.007  0.000  0.000  0.000  0.000  0.000  0.205
tot    0.370  0.013  0.013  0.013  0.000  0.000  0.000  0.000  0.000  0.411
 
band     6 # energy    9.12723148 # occ. -0.00000000
 
ion      s     py     pz     px    dxy    dyz    dz2    dxz  x2-y2    tot
    1  0.000  0.012  0.022  0.060  0.000  0.000  0.000  0.000  0.000  0.094
    2  0.000  0.012  0.022  0.060  0.000  0.000  0.000  0.000  0.000  0.094
tot    0.000  0.024  0.044  0.120  0.000  0.000  0.000  0.000  0.000  0.188
 
band     7 # energy    9.12723148 # occ. -0.00000000
 
ion      s     py     pz     px    dxy    dyz    dz2    dxz  x2-y2    tot
    1  0.000  0.051  0.041  0.003  0.000  0.000  0.000  0.000  0.000  0.094
    2  0.000  0.051  0.041  0.003  0.000  0.000  0.000  0.000  0.000  0.094
tot    0.000  0.101  0.081  0.006  0.000  0.000  0.000  0.000  0.000  0.188
 
band     8 # energy   13.48826753 # occ.  0.00000000
 
ion      s     py     pz     px    dxy    dyz    dz2    dxz  x2-y2    tot
    1  0.005  0.018  0.018  0.018  0.000  0.000  0.000  0.000  0.000  0.060
    2  0.005  0.018  0.018  0.018  0.000  0.000  0.000  0.000  0.000  0.060
tot    0.011  0.037  0.037  0.037  0.000  0.000  0.000  0.000  0.000  0.121
 
band     9 # energy   15.71242976 # occ.  0.00000000
 
ion      s     py     pz     px    dxy    dyz    dz2    dxz  x2-y2    tot
    1  0.000  0.004  0.009  0.022  0.000  0.000  0.000  0.000  0.000  0.035
    2  0.000  0.004  0.009  0.022  0.000  0.000  0.000  0.000  0.000  0.035
tot    0.000  0.009  0.017  0.045  0.000  0.000  0.000  0.000  0.000  0.071
 
band    10 # energy   15.71242976 # occ.  0.00000000
 
ion      s     py     pz     px    dxy    dyz    dz2    dxz  x2-y2    tot
    1  0.000  0.019  0.015  0.001  0.000  0.000  0.000  0.000  0.000  0.035
    2  0.000  0.019  0.015  0.001  0.000  0.000  0.000  0.000  0.000  0.035
tot    0.000  0.038  0.030  0.002  0.000  0.000  0.000  0.000  0.000  0.071
 
band    11 # energy   16.70258454 # occ.  0.00000000
 
ion      s     py     pz     px    dxy    dyz    dz2    dxz  x2-y2    tot
    1  0.058  0.049  0.049  0.049  0.000  0.000  0.000  0.000  0.000  0.205
    2  0.058  0.049  0.049  0.049  0.000  0.000  0.000  0.000  0.000  0.205
tot    0.117  0.098  0.098  0.098  0.000  0.000  0.000  0.000  0.000  0.410
 
band    12 # energy   17.65343167 # occ.  0.00000000
 
ion      s     py     pz     px    dxy    dyz    dz2    dxz  x2-y2    tot
    1  0.000  0.042  0.035  0.002  0.000  0.000  0.000  0.000  0.000  0.079
    2  0.000  0.042  0.035  0.002  0.000  0.000  0.000  0.000  0.000  0.079
tot    0.000  0.083  0.070  0.005  0.000  0.000  0.000  0.000  0.000  0.158
 
band    13 # energy   17.65343167 # occ.  0.00000000
 
ion      s     py     pz     px    dxy    dyz    dz2    dxz  x2-y2    tot
    1  0.000  0.011  0.018  0.050  0.000  0.000  0.000  0.000  0.000  0.079
    2  0.000  0.011  0.018  0.050  0.000  0.000  0.000  0.000  0.000  0.079
tot    0.000  0.022  0.036  0.100  0.000  0.000  0.000  0.000  0.000  0.158
 
band    14 # energy   18.96095267 # occ.  0.00000000
 
ion      s     py     pz     px    dxy    dyz    dz2    dxz  x2-y2    tot
    1  0.065  0.071  0.071  0.071  0.000  0.000  0.000  0.000  0.000  0.279
    2  0.065  0.071  0.071  0.071  0.000  0.000  0.000  0.000  0.000  0.279
tot    0.130  0.142  0.142  0.142  0.000  0.000  0.000  0.000  0.000  0.557
 
band    15 # energy   23.96282746 # occ.  0.00000000
 
ion      s     py     pz     px    dxy    dyz    dz2    dxz  x2-y2    tot
    1  0.046  0.007  0.007  0.007  0.000  0.000  0.000  0.000  0.000  0.067
    2  0.046  0.007  0.007  0.007  0.000  0.000  0.000  0.000  0.000  0.067
tot    0.092  0.014  0.014  0.014  0.000  0.000  0.000  0.000  0.000  0.134
 
band    16 # energy   26.18810430 # occ.  0.00000000
 
ion      s     py     pz     px    dxy    dyz    dz2    dxz  x2-y2    tot
    1  0.000  0.012  0.009  0.002  0.000  0.000  0.000  0.000  0.000  0.024
    2  0.000  0.016  0.007  0.001  0.000  0.000  0.000  0.000  0.000  0.024
tot    0.001  0.028  0.016  0.002  0.000  0.000  0.000  0.000  0.000  0.047
 

 k-point     4 :    0.43478261 0.43478261 0.43478261     weight = 0.01041667

band     1 # energy   -3.89560768 # occ.  2.00000000
 
ion      s     py     pz     px    dxy    dyz    dz2    dxz  x2-y2    tot
    1  0.216  0.005  0.005  0.005  0.000  0.000  0.000  0.000  0.000  0.230
    2  0.216  0.005  0.005  0.005  0.000  0.000  0.000  0.000  0.000  0.230
tot    0.432  0.010  0.010  0.010  0.000  0.000  0.000  0.000  0.000  0.460
 
band     2 # energy   -0.72997497 # occ.  2.00000000
 
ion      s     py     pz     px    dxy    dyz    dz2    dxz  x2-y2    tot
    1  0.102  0.031  0.031  0.031  0.000  0.000  0.000  0.000  0.000  0.194
    2  0.102  0.031  0.031  0.031  0.000  0.000  0.000  0.000  0.000  0.194
tot    0.204  0.061  0.061  0.061  0.000  0.000  0.000  0.000  0.000  0.388
 
band     3 # energy    4.71599817 # occ.  2.00000000
 
ion      s     py     pz     px    dxy    dyz    dz2    dxz  x2-y2    tot
    1  0.000  0.107  0.000  0.106  0.000  0.000  0.000  0.000  0.000  0.214
    2  0.000  0.107  0.000  0.106  0.000  0.000  0.000  0.000  0.000  0.214
tot    0.000  0.215  0.000  0.212  0.000  0.000  0.000  0.000  0.000  0.427
 
band     4 # energy    4.71599817 # occ.  2.00000000
 
ion      s     py     pz     px    dxy    dyz    dz2    dxz  x2-y2    tot
    1  0.000  0.035  0.142  0.036  0.000  0.000  0.000  0.000  0.000  0.214
    2  0.000  0.035  0.142  0.036  0.000  0.000  0.000  0.000  0.000  0.214
tot    0.000  0.070  0.285  0.072  0.000  0.000  0.000  0.000  0.000  0.427
 
band     5 # energy    7.34136411 # occ. -0.00000000
 
ion      s     py     pz     px    dxy    dyz    dz2    dxz  x2-y2    tot
    1  0.184  0.007  0.007  0.007  0.000  0.000  0.000  0.000  0.000  0.205
    2  0.184  0.007  0.007  0.007  0.000  0.000  0.000  0.000  0.000  0.205
tot    0.368  0.014  0.014  0.014  0.000  0.000  0.000  0.000  0.000  0.411
 
band     6 # energy    9.14594877 # occ. -0.00000000
 
ion      s     py     pz     px    dxy    dyz    dz2    dxz  x2-y2    tot
    1  0.000  0.042  0.001  0.053  0.000  0.000  0.000  0.000  0.000  0.096
    2  0.000  0.042  0.001  0.053  0.000  0.000  0.000  0.000  0.000  0.096
tot    0.000  0.085  0.001  0.106  0.000  0.000  0.000  0.000  0.000  0.192
 
band     7 # energy    9.14594877 # occ. -0.00000000
 
ion      s     py     pz     px    dxy    dyz    dz2    dxz  x2-y2    tot
    1  0.000  0.022  0.063  0.011  0.000  0.000  0.000  0.000  0.000  0.096
    2  0.000  0.022  0.063  0.011  0.000  0.000  0.000  0.000  0.000  0.096
tot    0.000  0.043  0.127  0.022  0.000  0.000  0.000  0.000  0.000  0.192
 
band     8 # energy   13.51632020 # occ.  0.00000000
 
ion      s     py     pz     px    dxy    dyz    dz2    dxz  x2-y2    tot
    1  0.005  0.019  0.019  0.019  0.000  0.000  0.000  0.000  0.000  0.063
    2  0.005  0.019  0.019  0.019  0.000  0.000  0.000  0.000  0.000  0.063
tot    0.010  0.039  0.039  0.039  0.000  0.000  0.000  0.000  0.000  0.126
 
band     9 # energy   15.32257287 # occ.  0.00000000
 
ion      s     py     pz     px    dxy    dyz    dz2    dxz  x2-y2    tot
    1  0.000  0.018  0.000  0.022  0.000  0.000  0.000  0.000  0.000  0.041
    2  0.000  0.018  0.000  0.022  0.000  0.000  0.000  0.000  0.000  0.041
tot    0.000  0.036  0.000  0.045  0.000  0.000  0.000  0.000  0.000  0.081
 
band    10 # energy   15.32257287 # occ.  0.00000000
 
ion      s     py     pz     px    dxy    dyz    dz2    dxz  x2-y2    tot
    1  0.000  0.009  0.027  0.005  0.000  0.000  0.000  0.000  0.000  0.041
    2  0.000  0.009  0.027  0.005  0.000  0.000  0.000  0.000  0.000  0.041
tot    0.000  0.018  0.054  0.009  0.000  0.000  0.000  0.000  0.000  0.081
 
band    11 # energy   16.36868454 # occ.  0.00000000
 
ion      s     py     pz     px    dxy    dyz    dz2    dxz  x2-y2    tot
    1  0.072  0.047  0.047  0.047  0.000  0.000  0.000  0.000  0.000  0.212
    2  0.072  0.047  0.047  0.047  0.000  0.000  0.000  0.000  0.000  0.212
tot    0.143  0.093  0.093  0.093  0.000  0.000  0.000  0.000  0.000  0.423
 
band    12 # energy   18.11290905 # occ.  0.00000000
 
ion      s     py     pz     px    dxy    dyz    dz2    dxz  x2-y2    tot
    1  0.000  0.033  0.000  0.039  0.000  0.000  0.000  0.000  0.000  0.072
    2  0.000  0.033  0.000  0.039  0.000  0.000  0.000  0.000  0.000  0.072
tot    0.000  0.065  0.001  0.078  0.000  0.000  0.000  0.000  0.000  0.144
 
band    13 # energy   18.11290906 # occ.  0.00000000
 
ion      s     py     pz     px    dxy    dyz    dz2    dxz  x2-y2    tot
    1  0.000  0.015  0.048  0.009  0.000  0.000  0.000  0.000  0.000  0.072
    2  0.000  0.015  0.048  0.009  0.000  0.000  0.000  0.000  0.000  0.072
tot    0.000  0.031  0.095  0.018  0.000  0.000  0.000  0.000  0.000  0.144
 
band    14 # energy   19.25419773 # occ.  0.00000000
 
ion      s     py     pz     px    dxy    dyz    dz2    dxz  x2-y2    tot
    1  0.050  0.074  0.074  0.074  0.000  0.000  0.000  0.000  0.000  0.271
    2  0.050  0.074  0.074  0.074  0.000  0.000  0.000  0.000  0.000  0.271
tot    0.100  0.147  0.147  0.147  0.000  0.000  0.000  0.000  0.000  0.542
 
band    15 # energy   23.37881027 # occ.  0.00000000
 
ion      s     py     pz     px    dxy    dyz    dz2    dxz  x2-y2    tot
    1  0.051  0.004  0.004  0.004  0.000  0.000  0.000  0.000  0.000  0.064
    2  0.051  0.004  0.004  0.004  0.000  0.000  0.000  0.000  0.000  0.064
tot    0.102  0.009  0.009  0.009  0.000  0.000  0.000  0.000  0.000  0.129
 
band    16 # energy   25.61458406 # occ.  0.00000000
 
ion      s     py     pz     px    dxy    dyz    dz2    dxz  x2-y2    tot
    1  0.000  0.010  0.000  0.013  0.000  0.000  0.000  0.000  0.000  0.024
    2  0.000  0.011  0.000  0.013  0.000  0.000  0.000  0.000  0.000  0.024
tot    0.000  0.021  0.000  0.026  0.000  0.000  0.000  0.000  0.000  0.047
 

 k-point     5 :    0.41304348 0.41304348 0.41304348     weight = 0.01041667

band     1 # energy   -4.03471006 # occ.  2.00000000
 
ion      s     py     pz     px    dxy    dyz    dz2    dxz  x2-y2    tot
    1  0.213  0.005  0.005  0.005  0.000  0.000  0.000  0.000  0.000  0.228
    2  0.213  0.005  0.005  0.005  0.000  0.000  0.000  0.000  0.000  0.228
tot    0.427  0.010  0.010  0.010  0.000  0.000  0.000  0.000  0.000  0.455
 
band     2 # energy   -0.51009060 # occ.  2.00000000
 
ion      s     py     pz     px    dxy    dyz    dz2    dxz  x2-y2    tot
    1  0.104  0.031  0.031  0.031  0.000  0.000  0.000  0.000  0.000  0.197
    2  0.104  0.031  0.031  0.031  0.000  0.000  0.000  0.000  0.000  0.197
tot    0.208  0.062  0.062  0.062  0.000  0.000  0.000  0.000  0.000  0.393
 
band     3 # energy    4.73953642 # occ.  2.00000000
 
ion      s     py     pz     px    dxy    dyz    dz2    dxz  x2-y2    tot
    1  0.000  0.109  0.000  0.105  0.000  0.000  0.000  0.000  0.000  0.213
    2  0.000  0.109  0.000  0.105  0.000  0.000  0.000  0.000  0.000  0.213
tot    0.000  0.218  0.000  0.209  0.000  0.000  0.000  0.000  0.000  0.427
 
band     4 # energy    4.73953642 # occ.  2.00000000
 
ion      s     py     pz     px    dxy    dyz    dz2    dxz  x2-y2    tot
    1  0.000  0.034  0.142  0.038  0.000  0.000  0.000  0.000  0.000  0.213
    2  0.000  0.034  0.142  0.038  0.000  0.000  0.000  0.000  0.000  0.213
tot    0.000  0.067  0.284  0.075  0.000  0.000  0.000  0.000  0.000  0.427
 
band     5 # energy    7.36829111 # occ. -0.00000000
 
ion      s     py     pz     px    dxy    dyz    dz2    dxz  x2-y2    tot
    1  0.183  0.008  0.008  0.008  0.000  0.000  0.000  0.000  0.000  0.205
    2  0.183  0.008  0.008  0.008  0.000  0.000  0.000  0.000  0.000  0.205
tot    0.365  0.015  0.015  0.015  0.000  0.000  0.000  0.000  0.000  0.411
 
band     6 # energy    9.17064225 # occ. -0.00000000
 
ion      s     py     pz     px    dxy    dyz    dz2    dxz  x2-y2    tot
    1  0.000  0.026  0.015  0.058  0.000  0.000  0.000  0.000  0.000  0.098
    2  0.000  0.026  0.015  0.058  0.000  0.000  0.000  0.000  0.000  0.098
tot    0.000  0.052  0.029  0.116  0.000  0.000  0.000  0.000  0.000  0.196
 
band     7 # energy    9.17064225 # occ. -0.00000000
 
ion      s     py     pz     px    dxy    dyz    dz2    dxz  x2-y2    tot
    1  0.000  0.040  0.051  0.008  0.000  0.000  0.000  0.000  0.000  0.098
    2  0.000  0.040  0.051  0.008  0.000  0.000  0.000  0.000  0.000  0.098
tot    0.000  0.079  0.102  0.015  0.000  0.000  0.000  0.000  0.000  0.196
 
band     8 # energy   13.55229370 # occ.  0.00000000
 
ion      s     py     pz     px    dxy    dyz    dz2    dxz  x2-y2    tot
    1  0.004  0.021  0.021  0.021  0.000  0.000  0.000  0.000  0.000  0.068
    2  0.004  0.021  0.021  0.021  0.000  0.000  0.000  0.000  0.000  0.068
tot    0.008  0.042  0.042  0.042  0.000  0.000  0.000  0.000  0.000  0.136
 
band     9 # energy   14.94166197 # occ.  0.00000000
 
ion      s     py     pz     px    dxy    dyz    dz2    dxz  x2-y2    tot
    1  0.000  0.011  0.006  0.025  0.000  0.000  0.000  0.000  0.000  0.042
    2  0.000  0.011  0.006  0.025  0.000  0.000  0.000  0.000  0.000  0.042
tot    0.000  0.022  0.012  0.050  0.000  0.000  0.000  0.000  0.000  0.084
 
band    10 # energy   14.94166197 # occ.  0.00000000
 
ion      s     py     pz     px    dxy    dyz    dz2    dxz  x2-y2    tot
    1  0.000  0.017  0.022  0.003  0.000  0.000  0.000  0.000  0.000  0.042
    2  0.000  0.017  0.022  0.003  0.000  0.000  0.000  0.000  0.000  0.042
tot    0.000  0.034  0.044  0.007  0.000  0.000  0.000  0.000  0.000  0.084
 
band    11 # energy   16.00871656 # occ.  0.00000000
 
ion      s     py     pz     px    dxy    dyz    dz2    dxz  x2-y2    tot
    1  0.084  0.044  0.044  0.044  0.000  0.000  0.000  0.000  0.000  0.214
    2  0.084  0.044  0.044  0.044  0.000  0.000  0.000  0.000  0.000  0.214
tot    0.167  0.087  0.087  0.087  0.000  0.000  0.000  0.000  0.000  0.429
 
band    12 # energy   18.58971581 # occ.  0.00000000
 
ion      s     py     pz     px    dxy    dyz    dz2    dxz  x2-y2    tot
    1  0.000  0.017  0.010  0.040  0.000  0.000  0.000  0.000  0.000  0.068
    2  0.000  0.017  0.010  0.040  0.000  0.000  0.000  0.000  0.000  0.068
tot    0.000  0.035  0.021  0.080  0.000  0.000  0.000  0.000  0.000  0.136
 
band    13 # energy   18.58971583 # occ.  0.00000000
 
ion      s     py     pz     px    dxy    dyz    dz2    dxz  x2-y2    tot
    1  0.000  0.028  0.035  0.005  0.000  0.000  0.000  0.000  0.000  0.068
    2  0.000  0.028  0.035  0.005  0.000  0.000  0.000  0.000  0.000  0.068
tot    0.000  0.056  0.070  0.010  0.000  0.000  0.000  0.000  0.000  0.136
 
band    14 # energy   19.52667013 # occ.  0.00000000
 
ion      s     py     pz     px    dxy    dyz    dz2    dxz  x2-y2    tot
    1  0.036  0.076  0.076  0.076  0.000  0.000  0.000  0.000  0.000  0.264
    2  0.036  0.076  0.076  0.076  0.000  0.000  0.000  0.000  0.000  0.264
tot    0.071  0.152  0.152  0.152  0.000  0.000  0.000  0.000  0.000  0.528
 
band    15 # energy   22.86127987 # occ.  0.00000000
 
ion      s     py     pz     px    dxy    dyz    dz2    dxz  x2-y2    tot
    1  0.058  0.001  0.001  0.001  0.000  0.000  0.000  0.000  0.000  0.062
    2  0.058  0.001  0.001  0.001  0.000  0.000  0.000  0.000  0.000  0.062
tot    0.116  0.003  0.003  0.003  0.000  0.000  0.000  0.000  0.000  0.125
 
band    16 # energy   25.05643105 # occ.  0.00000000
 
ion      s     py     pz     px    dxy    dyz    dz2    dxz  x2-y2    tot
    1  0.000  0.007  0.004  0.015  0.000  0.000  0.000  0.000  0.000  0.025
    2  0.000  0.007  0.004  0.015  0.000  0.000  0.000  0.000  0.000  0.025
tot    0.000  0.013  0.007  0.029  0.000  0.000  0.000  0.000  0.000  0.050
 

 k-point     6 :    0.39130435 0.39130435 0.39130435     weight = 0.01041667

band     1 # energy   -4.18913714 # occ.  2.00000000
 
ion      s     py     pz     px    dxy    dyz    dz2    dxz  x2-y2    tot
    1  0.211  0.005  0.005  0.005  0.000  0.000  0.000  0.000  0.000  0.225
    2  0.211  0.005  0.005  0.005  0.000  0.000  0.000  0.000  0.000  0.225
tot    0.422  0.009  0.009  0.009  0.000  0.000  0.000  0.000  0.000  0.451
 
band     2 # energy   -0.25206214 # occ.  2.00000000
 
ion      s     py     pz     px    dxy    dyz    dz2    dxz  x2-y2    tot
    1  0.105  0.031  0.031  0.031  0.000  0.000  0.000  0.000  0.000  0.199
    2  0.105  0.031  0.031  0.031  0.000  0.000  0.000  0.000  0.000  0.199
tot    0.211  0.063  0.063  0.063  0.000  0.000  0.000  0.000  0.000  0.399