<?xml version="1.0" encoding="ISO-8859-1"?>
<modeling>
 <generator>
  <i name="program" type="string">vasp </i>
  <i name="version" type="string">5.4.4.18Apr17-6-g9f103f2a35  </i>
  <i name="subversion" type="string">(build Jul 29 2018 09:17:02) complex            parallel </i>
  <i name="platform" type="string">LinuxIFC </i>
  <i name="date" type="string">2018 08 05 </i>
  <i name="time" type="string">18:40:42 </i>
 </generator>
 <incar>
  <i type="string" name="SYSTEM"> Si</i>
  <i type="int" name="ISTART">     0</i>
  <i type="string" name="PREC">medium</i>
  <i type="string" name="ALGO"> A</i>
  <i name="EDIFF">      0.00000001</i>
  <i name="ENCUT">    600.00000000</i>
  <i type="int" name="LORBIT">    11</i>
  <v type="int" name="KPOINT_BSE">    -1     0     0     0</v>
  <i type="string" name="GGA"> PE</i>
 </incar>
 <structure name="primitive_cell" >
  <crystal>
   <varray name="basis" >
    <v>       0.00000000       2.73400000       2.73400000 </v>
    <v>       2.73400000       0.00000000       2.73400000 </v>
    <v>       2.73400000       2.73400000       0.00000000 </v>
   </varray>
   <i name="volume">     40.87196581 </i>
   <varray name="rec_basis" >
    <v>      -0.18288222       0.18288222       0.18288222 </v>
    <v>       0.18288222      -0.18288222       0.18288222 </v>
    <v>       0.18288222       0.18288222      -0.18288222 </v>
   </varray>
  </crystal>
  <varray name="positions" >
   <v>      -0.12500000      -0.12500000      -0.12500000 </v>
   <v>       0.12500000       0.12500000       0.12500000 </v>
  </varray>
 </structure>
 <varray name="primitive_index" >
  <v type="int" >        1 </v>
  <v type="int" >        2 </v>
 </varray>
 <kpoints>
  <generation param="listgenerated">
   <i name="divisions" type="int">      24 </i>
   <v>       0.50000000       0.50000000       0.50000000 </v>
   <v>       0.00000000       0.00000000       0.00000000 </v>
   <v>       0.00000000       0.50000000       0.50000000 </v>
   <v>       0.37500000       0.75000000       0.37500000 </v>
   <v>       0.00000000       0.00000000       0.00000000 </v>
  </generation>
  <varray name="kpointlist" >
   <v>       0.50000000       0.50000000       0.50000000 </v>
   <v>       0.47826087       0.47826087       0.47826087 </v>
   <v>       0.45652174       0.45652174       0.45652174 </v>
   <v>       0.43478261       0.43478261       0.43478261 </v>
   <v>       0.41304348       0.41304348       0.41304348 </v>
   <v>       0.39130435       0.39130435       0.39130435 </v>
   <v>       0.36956522       0.36956522       0.36956522 </v>
   <v>       0.34782609       0.34782609       0.34782609 </v>
   <v>       0.32608696       0.32608696       0.32608696 </v>
   <v>       0.30434783       0.30434783       0.30434783 </v>
   <v>       0.28260870       0.28260870       0.28260870 </v>
   <v>       0.26086957       0.26086957       0.26086957 </v>
   <v>       0.23913043       0.23913043       0.23913043 </v>
   <v>       0.21739130       0.21739130       0.21739130 </v>
   <v>       0.19565217       0.19565217       0.19565217 </v>
   <v>       0.17391304       0.17391304       0.17391304 </v>
   <v>       0.15217391       0.15217391       0.15217391 </v>
   <v>       0.13043478       0.13043478       0.13043478 </v>
   <v>       0.10869565       0.10869565       0.10869565 </v>
   <v>       0.08695652       0.08695652       0.08695652 </v>
   <v>       0.06521739       0.06521739       0.06521739 </v>
   <v>       0.04347826       0.04347826       0.04347826 </v>
   <v>       0.02173913       0.02173913       0.02173913 </v>
   <v>       0.00000000       0.00000000       0.00000000 </v>
   <v>       0.00000000       0.00000000       0.00000000 </v>
   <v>       0.00000000       0.02173913       0.02173913 </v>
   <v>       0.00000000       0.04347826       0.04347826 </v>
   <v>       0.00000000       0.06521739       0.06521739 </v>
   <v>       0.00000000       0.08695652       0.08695652 </v>
   <v>       0.00000000       0.10869565       0.10869565 </v>
   <v>       0.00000000       0.13043478       0.13043478 </v>
   <v>       0.00000000       0.15217391       0.15217391 </v>
   <v>       0.00000000       0.17391304       0.17391304 </v>
   <v>       0.00000000       0.19565217       0.19565217 </v>
   <v>       0.00000000       0.21739130       0.21739130 </v>
   <v>       0.00000000       0.23913043       0.23913043 </v>
   <v>       0.00000000       0.26086957       0.26086957 </v>
   <v>       0.00000000       0.28260870       0.28260870 </v>
   <v>       0.00000000       0.30434783       0.30434783 </v>
   <v>       0.00000000       0.32608696       0.32608696 </v>
   <v>       0.00000000       0.34782609       0.34782609 </v>
   <v>       0.00000000       0.36956522       0.36956522 </v>
   <v>       0.00000000       0.39130435       0.39130435 </v>
   <v>       0.00000000       0.41304348       0.41304348 </v>
   <v>       0.00000000       0.43478261       0.43478261 </v>
   <v>       0.00000000       0.45652174       0.45652174 </v>
   <v>       0.00000000       0.47826087       0.47826087 </v>
   <v>       0.00000000       0.50000000       0.50000000 </v>
   <v>       0.00000000       0.50000000       0.50000000 </v>
   <v>       0.01086957       0.50543478       0.50543478 </v>
   <v>       0.02173913       0.51086957       0.51086957 </v>
   <v>       0.03260870       0.51630435       0.51630435 </v>
   <v>       0.04347826       0.52173913       0.52173913 </v>
   <v>       0.05434783       0.52717391       0.52717391 </v>
   <v>       0.06521739       0.53260870       0.53260870 </v>
   <v>       0.07608696       0.53804348       0.53804348 </v>
   <v>       0.08695652       0.54347826       0.54347826 </v>
   <v>       0.09782609       0.54891304       0.54891304 </v>
   <v>       0.10869565       0.55434783       0.55434783 </v>
   <v>       0.11956522       0.55978261       0.55978261 </v>
   <v>       0.13043478       0.56521739       0.56521739 </v>
   <v>       0.14130435       0.57065217       0.57065217 </v>
   <v>       0.15217391       0.57608696       0.57608696 </v>
   <v>       0.16304348       0.58152174       0.58152174 </v>
   <v>       0.17391304       0.58695652       0.58695652 </v>
   <v>       0.18478261       0.59239130       0.59239130 </v>
   <v>       0.19565217       0.59782609       0.59782609 </v>
   <v>       0.20652174       0.60326087       0.60326087 </v>
   <v>       0.21739130       0.60869565       0.60869565 </v>
   <v>       0.22826087       0.61413043       0.61413043 </v>
   <v>       0.23913043       0.61956522       0.61956522 </v>
   <v>       0.25000000       0.62500000       0.62500000 </v>
   <v>       0.37500000       0.75000000       0.37500000 </v>
   <v>       0.35869565       0.71739130       0.35869565 </v>
   <v>       0.34239130       0.68478261       0.34239130 </v>
   <v>       0.32608696       0.65217391       0.32608696 </v>
   <v>       0.30978261       0.61956522       0.30978261 </v>
   <v>       0.29347826       0.58695652       0.29347826 </v>
   <v>       0.27717391       0.55434783       0.27717391 </v>
   <v>       0.26086957       0.52173913       0.26086957 </v>
   <v>       0.24456522       0.48913043       0.24456522 </v>
   <v>       0.22826087       0.45652174       0.22826087 </v>
   <v>       0.21195652       0.42391304       0.21195652 </v>
   <v>       0.19565217       0.39130435       0.19565217 </v>
   <v>       0.17934783       0.35869565       0.17934783 </v>
   <v>       0.16304348       0.32608696       0.16304348 </v>
   <v>       0.14673913       0.29347826       0.14673913 </v>
   <v>       0.13043478       0.26086957       0.13043478 </v>
   <v>       0.11413043       0.22826087       0.11413043 </v>
   <v>       0.09782609       0.19565217       0.09782609 </v>
   <v>       0.08152174       0.16304348       0.08152174 </v>
   <v>       0.06521739       0.13043478       0.06521739 </v>
   <v>       0.04891304       0.09782609       0.04891304 </v>
   <v>       0.03260870       0.06521739       0.03260870 </v>
   <v>       0.01630435       0.03260870       0.01630435 </v>
   <v>       0.00000000       0.00000000       0.00000000 </v>
  </varray>
  <varray name="weights" >
   <v>       0.01041667 </v>
   <v>       0.01041667 </v>
   <v>       0.01041667 </v>
   <v>       0.01041667 </v>
   <v>       0.01041667 </v>
   <v>       0.01041667 </v>
   <v>       0.01041667 </v>
   <v>       0.01041667 </v>
   <v>       0.01041667 </v>
   <v>       0.01041667 </v>
   <v>       0.01041667 </v>
   <v>       0.01041667 </v>
   <v>       0.01041667 </v>
   <v>       0.01041667 </v>
   <v>       0.01041667 </v>
   <v>       0.01041667 </v>
   <v>       0.01041667 </v>
   <v>       0.01041667 </v>
   <v>       0.01041667 </v>
   <v>       0.01041667 </v>
   <v>       0.01041667 </v>
   <v>       0.01041667 </v>
   <v>       0.01041667 </v>
   <v>       0.01041667 </v>
   <v>       0.01041667 </v>
   <v>       0.01041667 </v>
   <v>       0.01041667 </v>
   <v>       0.01041667 </v>
   <v>       0.01041667 </v>
   <v>       0.01041667 </v>
   <v>       0.01041667 </v>
   <v>       0.01041667 </v>
   <v>       0.01041667 </v>
   <v>       0.01041667 </v>
   <v>       0.01041667 </v>
   <v>       0.01041667 </v>
   <v>       0.01041667 </v>
   <v>       0.01041667 </v>
   <v>       0.01041667 </v>
   <v>       0.01041667 </v>
   <v>       0.01041667 </v>
   <v>       0.01041667 </v>
   <v>       0.01041667 </v>
   <v>       0.01041667 </v>
   <v>       0.01041667 </v>
   <v>       0.01041667 </v>
   <v>       0.01041667 </v>
   <v>       0.01041667 </v>
   <v>       0.01041667 </v>
   <v>       0.01041667 </v>
   <v>       0.01041667 </v>
   <v>       0.01041667 </v>
   <v>       0.01041667 </v>
   <v>       0.01041667 </v>
   <v>       0.01041667 </v>
   <v>       0.01041667 </v>
   <v>       0.01041667 </v>
   <v>       0.01041667 </v>
   <v>       0.01041667 </v>
   <v>       0.01041667 </v>
   <v>       0.01041667 </v>
   <v>       0.01041667 </v>
   <v>       0.01041667 </v>
   <v>       0.01041667 </v>
   <v>       0.01041667 </v>
   <v>       0.01041667 </v>
   <v>       0.01041667 </v>
   <v>       0.01041667 </v>
   <v>       0.01041667 </v>
   <v>       0.01041667 </v>
   <v>       0.01041667 </v>
   <v>       0.01041667 </v>
   <v>       0.01041667 </v>
   <v>       0.01041667 </v>
   <v>       0.01041667 </v>
   <v>       0.01041667 </v>
   <v>       0.01041667 </v>
   <v>       0.01041667 </v>
   <v>       0.01041667 </v>
   <v>       0.01041667 </v>
   <v>       0.01041667 </v>
   <v>       0.01041667 </v>
   <v>       0.01041667 </v>
   <v>       0.01041667 </v>
   <v>       0.01041667 </v>
   <v>       0.01041667 </v>
   <v>       0.01041667 </v>
   <v>       0.01041667 </v>
   <v>       0.01041667 </v>
   <v>       0.01041667 </v>
   <v>       0.01041667 </v>
   <v>       0.01041667 </v>
   <v>       0.01041667 </v>
   <v>       0.01041667 </v>
   <v>       0.01041667 </v>
   <v>       0.01041667 </v>
  </varray>
 </kpoints>
 <parameters>
  <separator name="general" >
   <i type="string" name="SYSTEM">Si</i>
   <i type="logical" name="LCOMPAT"> F  </i>
  </separator>
  <separator name="electronic" >
   <i type="string" name="PREC">medium</i>
   <i name="ENMAX">    600.00000000</i>
   <i name="ENAUG">    322.06900000</i>
   <i name="EDIFF">      0.00000001</i>
   <i type="int" name="IALGO">    58</i>
   <i type="int" name="IWAVPR">    10</i>
   <i type="int" name="NBANDS">    16</i>
   <i name="NELECT">      8.00000000</i>
   <i type="int" name="TURBO">     0</i>
   <i type="int" name="IRESTART">     0</i>
   <i type="int" name="NREBOOT">     0</i>
   <i type="int" name="NMIN">     0</i>
   <i name="EREF">      0.00000000</i>
   <separator name="electronic smearing" >
    <i type="int" name="ISMEAR">     1</i>
    <i name="SIGMA">      0.20000000</i>
    <i name="KSPACING">      0.50000000</i>
    <i type="logical" name="KGAMMA"> T  </i>
   </separator>
   <separator name="electronic projectors" >
    <i type="logical" name="LREAL"> F  </i>
    <v name="ROPT">      0.00000000</v>
    <i type="int" name="LMAXPAW">  -100</i>
    <i type="int" name="LMAXMIX">     2</i>
    <i type="logical" name="NLSPLINE"> F  </i>
   </separator>
   <separator name="electronic startup" >
    <i type="int" name="ISTART">     0</i>
    <i type="int" name="ICHARG">     2</i>
    <i type="int" name="INIWAV">     1</i>
   </separator>
   <separator name="electronic spin" >
    <i type="int" name="ISPIN">     1</i>
    <i type="logical" name="LNONCOLLINEAR"> F  </i>
    <v name="MAGMOM">      1.00000000      1.00000000</v>
    <i name="NUPDOWN">     -1.00000000</i>
    <i type="logical" name="LSORBIT"> F  </i>
    <v name="SAXIS">      0.00000000      0.00000000      1.00000000</v>
    <i type="logical" name="LSPIRAL"> F  </i>
    <v name="QSPIRAL">      0.00000000      0.00000000      0.00000000</v>
    <i type="logical" name="LZEROZ"> F  </i>
   </separator>
   <separator name="electronic exchange-correlation" >
    <i type="logical" name="LASPH"> F  </i>
    <i type="logical" name="LMETAGGA"> F  </i>
   </separator>
   <separator name="electronic convergence" >
    <i type="int" name="NELM">    60</i>
    <i type="int" name="NELMDL">    -5</i>
    <i type="int" name="NELMIN">     2</i>
    <i name="ENINI">    600.00000000</i>
    <separator name="electronic convergence detail" >
     <i type="logical" name="LDIAG"> T  </i>
     <i type="logical" name="LSUBROT"> F  </i>
     <i name="WEIMIN">      0.00000000</i>
     <i name="EBREAK">      0.00000000</i>
     <i name="DEPER">      0.30000000</i>
     <i type="int" name="NRMM">     4</i>
     <i name="TIME">      0.40000000</i>
    </separator>
   </separator>
   <separator name="electronic mixer" >
    <i name="AMIX">      0.40000000</i>
    <i name="BMIX">      1.00000000</i>
    <i name="AMIN">      0.10000000</i>
    <i name="AMIX_MAG">      1.60000000</i>
    <i name="BMIX_MAG">      1.00000000</i>
    <separator name="electronic mixer details" >
     <i type="int" name="IMIX">     4</i>
     <i type="logical" name="MIXFIRST"> F  </i>
     <i type="int" name="MAXMIX">   -45</i>
     <i name="WC">    100.00000000</i>
     <i type="int" name="INIMIX">     1</i>
     <i type="int" name="MIXPRE">     1</i>
     <i type="int" name="MREMOVE">     5</i>
    </separator>
   </separator>
   <separator name="electronic dipolcorrection" >
    <i type="logical" name="LDIPOL"> F  </i>
    <i type="logical" name="LMONO"> F  </i>
    <i type="int" name="IDIPOL">     0</i>
    <i name="EPSILON">      1.00000000</i>
    <v name="DIPOL">   -100.00000000   -100.00000000   -100.00000000</v>
    <i name="EFIELD">      0.00000000</i>
   </separator>
  </separator>
  <separator name="grids" >
   <i type="int" name="NGX">    24</i>
   <i type="int" name="NGY">    24</i>
   <i type="int" name="NGZ">    24</i>
   <i type="int" name="NGXF">    24</i>
   <i type="int" name="NGYF">    24</i>
   <i type="int" name="NGZF">    24</i>
   <i type="logical" name="ADDGRID"> F  </i>
  </separator>
  <separator name="ionic" >
   <i type="int" name="NSW">     0</i>
   <i type="int" name="IBRION">    -1</i>
   <i type="int" name="MDALGO">     0</i>
   <i type="int" name="ISIF">     2</i>
   <i name="PSTRESS">      0.00000000</i>
   <i name="EDIFFG">      0.00000010</i>
   <i type="int" name="NFREE">     0</i>
   <i name="POTIM">      0.50000000</i>
   <i name="SMASS">     -3.00000000</i>
   <i name="SCALEE">      1.00000000</i>
  </separator>
  <separator name="ionic md" >
   <i name="TEBEG">      0.00010000</i>
   <i name="TEEND">      0.00010000</i>
   <i type="int" name="NBLOCK">     1</i>
   <i type="int" name="KBLOCK">     1</i>
   <i type="int" name="NPACO">   256</i>
   <i name="APACO">     16.00000000</i>
  </separator>
  <separator name="symmetry" >
   <i type="int" name="ISYM">     2</i>
   <i name="SYMPREC">      0.00001000</i>
  </separator>
  <separator name="dos" >
   <i type="int" name="LORBIT">    11</i>
   <v name="RWIGS">     -1.00000000</v>
   <i type="int" name="NEDOS">   301</i>
   <i name="EMIN">     10.00000000</i>
   <i name="EMAX">    -10.00000000</i>
   <i name="EFERMI">      0.00000000</i>
  </separator>
  <separator name="writing" >
   <i type="int" name="NWRITE">     2</i>
   <i type="logical" name="LWAVE"> T  </i>
   <i type="logical" name="LDOWNSAMPLE"> F  </i>
   <i type="logical" name="LCHARG"> T  </i>
   <i type="logical" name="LPARD"> F  </i>
   <i type="logical" name="LVTOT"> F  </i>
   <i type="logical" name="LVHAR"> F  </i>
   <i type="logical" name="LELF"> F  </i>
   <i type="logical" name="LOPTICS"> F  </i>
   <v name="STM">      0.00000000      0.00000000      0.00000000      0.00000000      0.00000000      0.00000000      0.00000000</v>
  </separator>
  <separator name="performance" >
   <i type="int" name="NPAR">    16</i>
   <i type="int" name="NSIM">     4</i>
   <i type="int" name="NBLK">    -1</i>
   <i type="logical" name="LPLANE"> T  </i>
   <i type="logical" name="LSCALAPACK"> T  </i>
   <i type="logical" name="LSCAAWARE"> F  </i>
   <i type="logical" name="LSCALU"> F  </i>
   <i type="logical" name="LASYNC"> F  </i>
   <i type="logical" name="LORBITALREAL"> F  </i>
  </separator>
  <separator name="miscellaneous" >
   <i type="int" name="IDIOT">     3</i>
   <i type="int" name="ISPECIAL">     0</i>
   <i type="logical" name="LMUSIC"> F  </i>
   <v name="POMASS">     28.08500000</v>
   <v name="DARWINR">      0.00000000</v>
   <v name="DARWINV">      1.00000000</v>
   <i type="logical" name="LCORR"> T  </i>
  </separator>
  <i type="logical" name="GGA_COMPAT"> T  </i>
  <i type="logical" name="LBERRY"> F  </i>
  <i type="int" name="ICORELEVEL">     0</i>
  <i type="logical" name="LDAU"> F  </i>
  <i type="int" name="I_CONSTRAINED_M">     0</i>
  <separator name="electronic exchange-correlation" >
   <i type="string" name="GGA">PE</i>
   <i type="int" name="VOSKOWN">     0</i>
   <i type="logical" name="LHFCALC"> F  </i>
   <i type="string" name="PRECFOCK"></i>
   <i type="logical" name="LSYMGRAD"> F  </i>
   <i type="logical" name="LHFONE"> F  </i>
   <i type="logical" name="LRHFCALC"> F  </i>
   <i type="logical" name="LTHOMAS"> F  </i>
   <i type="logical" name="LMODELHF"> F  </i>
   <i name="ENCUT4O">     -1.00000000</i>
   <i type="int" name="EXXOEP">     0</i>
   <i type="int" name="FOURORBIT">     0</i>
   <i name="AEXX">      0.00000000</i>
   <i name="HFALPHA">      0.00000000</i>
   <i name="MCALPHA">      0.00000000</i>
   <i name="ALDAX">      1.00000000</i>
   <i name="AGGAX">      1.00000000</i>
   <i name="ALDAC">      1.00000000</i>
   <i name="AGGAC">      1.00000000</i>
   <i type="int" name="NKREDX">     1</i>
   <i type="int" name="NKREDY">     1</i>
   <i type="int" name="NKREDZ">     1</i>
   <i type="logical" name="SHIFTRED"> F  </i>
   <i type="logical" name="ODDONLY"> F  </i>
   <i type="logical" name="EVENONLY"> F  </i>
   <i type="int" name="LMAXFOCK">     0</i>
   <i type="int" name="NMAXFOCKAE">     0</i>
   <i type="logical" name="LFOCKAEDFT"> F  </i>
   <i name="HFSCREEN">      0.00000000</i>
   <i name="HFSCREENC">      0.00000000</i>
   <i type="int" name="NBANDSGWLOW">     0</i>
  </separator>
  <separator name="vdW DFT" >
   <i type="logical" name="LUSE_VDW"> F  </i>
   <i name="Zab_VDW">     -0.84910000</i>
   <i name="PARAM1">      0.12340000</i>
   <i name="PARAM2">      1.00000000</i>
   <i name="PARAM3">      0.00000000</i>
  </separator>
  <separator name="model GW" >
   <i type="int" name="MODEL_GW">     0</i>
   <i name="MODEL_EPS0">     12.26158974</i>
   <i name="MODEL_ALPHA">      1.00000000</i>
  </separator>
  <separator name="linear response parameters" >
   <i type="logical" name="LEPSILON"> F  </i>
   <i type="logical" name="LRPA"> F  </i>
   <i type="logical" name="LNABLA"> F  </i>
   <i type="logical" name="LVEL"> F  </i>
   <i type="int" name="KINTER">     0</i>
   <i name="CSHIFT">      0.10000000</i>
   <i name="OMEGAMAX">     -1.00000000</i>
   <i name="DEG_THRESHOLD">      0.00200000</i>
   <i name="RTIME">     -0.10000000</i>
   <i name="WPLASMAI">      0.00000000</i>
   <v name="DFIELD">      0.00000000      0.00000000      0.00000000</v>
   <v name="WPLASMA">      0.00000000      0.00000000      0.00000000      0.00000000      0.00000000      0.00000000      0.00000000      0.00000000      0.00000000</v>
  </separator>
  <separator name="orbital magnetization" >
   <i type="logical" name="NUCIND"> F  </i>
   <v name="MAGPOS">      0.00000000      0.00000000      0.00000000</v>
   <i type="logical" name="LNICSALL"> T  </i>
   <i type="logical" name="ORBITALMAG"> F  </i>
   <i type="logical" name="LMAGBLOCH"> F  </i>
   <i type="logical" name="LCHIMAG"> F  </i>
   <i type="logical" name="LGAUGE"> T  </i>
   <i type="int" name="MAGATOM">     0</i>
   <v name="MAGDIPOL">      0.00000000      0.00000000      0.00000000</v>
   <v name="AVECCONST">      0.00000000      0.00000000      0.00000000</v>
  </separator>
  <separator name="response functions" >
   <i type="logical" name="LADDER"> F  </i>
   <i type="logical" name="LRPAFORCE"> F  </i>
   <i type="logical" name="LFXC"> F  </i>
   <i type="logical" name="LHARTREE"> T  </i>
   <i type="int" name="IBSE">     0</i>
   <v type="int" name="KPOINT">    -1     0     0     0</v>
   <i type="logical" name="LTCTE"> F  </i>
   <i type="logical" name="LTETE"> F  </i>
   <i type="logical" name="LTRIPLET"> F  </i>
   <i type="logical" name="LFXCEPS"> F  </i>
   <i type="logical" name="LFXHEG"> F  </i>
   <i type="int" name="NATURALO">     2</i>
   <i type="logical" name="L2ORDER"> F  </i>
   <i type="logical" name="LMP2LT"> F  </i>
   <i type="logical" name="LUSEW"> F  </i>
   <i name="ENCUTGW">     -2.00000000</i>
   <i name="ENCUTGWSOFT">     -2.00000000</i>
   <i name="ENCUTLF">     -1.00000000</i>
   <i type="int" name="LMAXMP2">    -1</i>
   <i name="SCISSOR">      0.00000000</i>
   <i type="int" name="NOMEGA">     0</i>
   <i type="int" name="NOMEGAR">     0</i>
   <i type="int" name="NBANDSGW">    -1</i>
   <i type="int" name="NBANDSO">    -1</i>
   <i type="int" name="NBANDSV">    -1</i>
   <i type="int" name="NELM">     1</i>
   <i type="int" name="NELMHF">     1</i>
   <i type="int" name="DIM">     3</i>
   <i type="int" name="ANTIRES">     0</i>
   <i name="OMEGAMAX">    -30.00000000</i>
   <i name="OMEGAMIN">    -30.00000000</i>
   <i name="OMEGATL">   -200.00000000</i>
   <i type="int" name="OMEGAGRID">   140</i>
   <i name="CSHIFT">     -0.10000000</i>
   <i type="logical" name="SELFENERGY"> F  </i>
   <i type="logical" name="LSPECTRAL"> F  </i>
   <i type="logical" name="LSPECTRALGW"> F  </i>
   <i type="logical" name="LSINGLES"> F  </i>
   <i type="logical" name="LFERMIGW"> F  </i>
   <i type="logical" name="ODDONLYGW"> F  </i>
   <i type="logical" name="EVENONLYGW"> F  </i>
   <i type="int" name="NKREDLFX">     1</i>
   <i type="int" name="NKREDLFY">     1</i>
   <i type="int" name="NKREDLFZ">     1</i>
   <i type="int" name="MAXMEM">  2800</i>
   <i type="int" name="TELESCOPE">     0</i>
   <i type="int" name="TAUPAR">     1</i>
   <i type="int" name="OMEGAPAR">    -1</i>
   <i name="LAMBDA">      1.00000000</i>
  </separator>
  <separator name="External order field" >
   <i name="OFIELD_KAPPA">      0.00000000</i>
   <v name="OFIELD_K">      0.00000000      0.00000000      0.00000000</v>
   <i name="OFIELD_Q6_NEAR">      0.00000000</i>
   <i name="OFIELD_Q6_FAR">      0.00000000</i>
   <i name="OFIELD_A">      0.00000000</i>
  </separator>
 </parameters>
 <atominfo>
  <atoms>       2 </atoms>
  <types>       1 </types>
  <array name="atoms" >
   <dimension dim="1">ion</dimension>
   <field type="string">element</field>
   <field type="int">atomtype</field>
   <set>
    <rc><c>Si</c><c>   1</c></rc>
    <rc><c>Si</c><c>   1</c></rc>
   </set>
  </array>
  <array name="atomtypes" >
   <dimension dim="1">type</dimension>
   <field type="int">atomspertype</field>
   <field type="string">element</field>
   <field>mass</field>
   <field>valence</field>
   <field type="string">pseudopotential</field>
   <set>
    <rc><c>   2</c><c>Si</c><c>     28.08500000</c><c>      4.00000000</c><c>  PAW_PBE Si 05Jan2001                  </c></rc>
   </set>
  </array>
 </atominfo>
 <structure name="initialpos" >
  <crystal>
   <varray name="basis" >
    <v>       0.00000000       2.73400000       2.73400000 </v>
    <v>       2.73400000       0.00000000       2.73400000 </v>
    <v>       2.73400000       2.73400000       0.00000000 </v>
   </varray>
   <i name="volume">     40.87196581 </i>
   <varray name="rec_basis" >
    <v>      -0.18288222       0.18288222       0.18288222 </v>
    <v>       0.18288222      -0.18288222       0.18288222 </v>
    <v>       0.18288222       0.18288222      -0.18288222 </v>
   </varray>
  </crystal>
  <varray name="positions" >
   <v>       0.87500000       0.87500000       0.87500000 </v>
   <v>       0.12500000       0.12500000       0.12500000 </v>
  </varray>
 </structure>
 <calculation>
  <scstep>
   <time name="total">    0.35    0.37</time>
   <energy>
    <i name="alphaZ">      3.29449589 </i>
    <i name="ewald">   -226.97511711 </i>
    <i name="hartreedc">    -11.31730863 </i>
    <i name="XCdc">    -18.68326879 </i>
    <i name="pawpsdc">    176.24759923 </i>
    <i name="pawaedc">   -141.06103558 </i>
    <i name="eentropy">      0.00178438 </i>
    <i name="bandstr">     16.65811418 </i>
    <i name="atom">    206.13311910 </i>
    <i name="e_fr_energy">      4.29838266 </i>
    <i name="e_wo_entrp">      4.29659828 </i>
    <i name="e_0_energy">      4.29778786 </i>
   </energy>
  </scstep>
  <scstep>
   <time name="total">    0.67    0.67</time>
   <energy>
    <i name="e_fr_energy">     -7.20669284 </i>
    <i name="e_wo_entrp">     -7.21172864 </i>
    <i name="e_0_energy">     -7.20837144 </i>
   </energy>
  </scstep>
  <scstep>
   <time name="total">    0.50    0.50</time>
   <energy>
    <i name="e_fr_energy">     -7.29603819 </i>
    <i name="e_wo_entrp">     -7.30090261 </i>
    <i name="e_0_energy">     -7.29765966 </i>
   </energy>
  </scstep>
  <scstep>
   <time name="total">    0.98    0.98</time>
   <energy>
    <i name="e_fr_energy">     -7.29629780 </i>
    <i name="e_wo_entrp">     -7.30116187 </i>
    <i name="e_0_energy">     -7.29791916 </i>
   </energy>
  </scstep>
  <scstep>
   <time name="total">    0.56    0.56</time>
   <energy>
    <i name="e_fr_energy">     -7.29629782 </i>
    <i name="e_wo_entrp">     -7.30116190 </i>
    <i name="e_0_energy">     -7.29791918 </i>
   </energy>
  </scstep>
  <scstep>
   <time name="total">    0.42    0.42</time>
   <energy>
    <i name="e_fr_energy">     -6.84878935 </i>
    <i name="e_wo_entrp">     -6.85356002 </i>
    <i name="e_0_energy">     -6.85037957 </i>
   </energy>
  </scstep>
  <scstep>
   <time name="total">    0.40    0.40</time>
   <energy>
    <i name="e_fr_energy">     -6.93490769 </i>
    <i name="e_wo_entrp">     -6.94004411 </i>
    <i name="e_0_energy">     -6.93661983 </i>
   </energy>
  </scstep>
  <scstep>
   <time name="total">    0.40    0.40</time>
   <energy>
    <i name="e_fr_energy">     -6.95024579 </i>
    <i name="e_wo_entrp">     -6.95589690 </i>
    <i name="e_0_energy">     -6.95212949 </i>
   </energy>
  </scstep>
  <scstep>
   <time name="total">    0.39    0.40</time>
   <energy>
    <i name="e_fr_energy">     -6.95257525 </i>
    <i name="e_wo_entrp">     -6.95827505 </i>
    <i name="e_0_energy">     -6.95447518 </i>
   </energy>
  </scstep>
  <scstep>
   <time name="total">    0.40    0.40</time>
   <energy>
    <i name="e_fr_energy">     -6.95266982 </i>
    <i name="e_wo_entrp">     -6.95837550 </i>
    <i name="e_0_energy">     -6.95457172 </i>
   </energy>
  </scstep>
  <scstep>
   <time name="total">    0.40    0.41</time>
   <energy>
    <i name="e_fr_energy">     -6.95267649 </i>
    <i name="e_wo_entrp">     -6.95838319 </i>
    <i name="e_0_energy">     -6.95457872 </i>
   </energy>
  </scstep>
  <scstep>
   <time name="total">    0.40    0.40</time>
   <energy>
    <i name="e_fr_energy">     -6.95267714 </i>
    <i name="e_wo_entrp">     -6.95838421 </i>
    <i name="e_0_energy">     -6.95457949 </i>
   </energy>
  </scstep>
  <scstep>
   <time name="total">    0.32    0.32</time>
   <energy>
    <i name="e_fr_energy">     -6.95267721 </i>
    <i name="e_wo_entrp">     -6.95838447 </i>
    <i name="e_0_energy">     -6.95457963 </i>
   </energy>
  </scstep>
  <scstep>
   <time name="total">    0.32    0.32</time>
   <energy>
    <i name="e_fr_energy">     -6.95267722 </i>
    <i name="e_wo_entrp">     -6.95838461 </i>
    <i name="e_0_energy">     -6.95457969 </i>
   </energy>
  </scstep>
  <scstep>
   <time name="total">    0.43    0.43</time>
   <energy>
    <i name="alphaZ">      3.29449589 </i>
    <i name="ewald">   -226.97511711 </i>
    <i name="hartreedc">    -17.18640784 </i>
    <i name="XCdc">    -17.82413324 </i>
    <i name="pawpsdc">    872.10379480 </i>
    <i name="pawaedc">   -837.16157162 </i>
    <i name="eentropy">      0.00570750 </i>
    <i name="bandstr">     10.65743540 </i>
    <i name="atom">    206.13311910 </i>
    <i name="e_fr_energy">     -6.95267723 </i>
    <i name="e_wo_entrp">     -6.95838473 </i>
    <i name="e_0_energy">     -6.95457973 </i>
   </energy>
  </scstep>
  <structure>
   <crystal>
    <varray name="basis" >
     <v>       0.00000000       2.73400000       2.73400000 </v>
     <v>       2.73400000       0.00000000       2.73400000 </v>
     <v>       2.73400000       2.73400000       0.00000000 </v>
    </varray>
    <i name="volume">     40.87196581 </i>
    <varray name="rec_basis" >
     <v>      -0.18288222       0.18288222       0.18288222 </v>
     <v>       0.18288222      -0.18288222       0.18288222 </v>
     <v>       0.18288222       0.18288222      -0.18288222 </v>
    </varray>
   </crystal>
   <varray name="positions" >
    <v>       0.87500000       0.87500000       0.87500000 </v>
    <v>       0.12500000       0.12500000       0.12500000 </v>
   </varray>
  </structure>
  <varray name="forces" >
   <v>       0.00000000      -0.00000000      -0.00000000 </v>
   <v>      -0.00000000       0.00000000       0.00000000 </v>
  </varray>
  <varray name="stress" >
   <v>     108.89157629       0.00000000      -0.00000000 </v>
   <v>       0.00000000     108.89157629      -0.00000000 </v>
   <v>      -0.00000000      -0.00000000     108.89157629 </v>
  </varray>
  <energy>
   <i name="e_fr_energy">     -6.95267723 </i>
   <i name="e_wo_entrp">     -6.95457973 </i>
   <i name="e_0_energy">      0.00570750 </i>
  </energy>
  <time name="totalsc">    7.59    7.67</time>
  <eigenvalues>
   <array>
    <dimension dim="1">band</dimension>
    <dimension dim="2">kpoint</dimension>
    <dimension dim="3">spin</dimension>
    <field>eigene</field>
    <field>occ</field>
    <set>
     <set comment="spin 1">
      <set comment="kpoint 1">
       <r>   -3.6804    1.0000 </r>
       <r>   -1.0492    1.0000 </r>
       <r>    4.6857    1.0000 </r>
       <r>    4.6857    1.0000 </r>
       <r>    7.3066   -0.0000 </r>
       <r>    9.1116   -0.0000 </r>
       <r>    9.1116   -0.0000 </r>
       <r>   13.4646    0.0000 </r>
       <r>   16.2969    0.0000 </r>
       <r>   16.2969    0.0000 </r>
       <r>   17.0128    0.0000 </r>
       <r>   17.0128    0.0000 </r>
       <r>   17.0741    0.0000 </r>
       <r>   18.6119    0.0000 </r>
       <r>   25.0205    0.0000 </r>
       <r>   25.5519    0.0000 </r>
      </set>
      <set comment="kpoint 2">
       <r>   -3.7070    1.0000 </r>
       <r>   -1.0111    1.0000 </r>
       <r>    4.6891    1.0000 </r>
       <r>    4.6891    1.0000 </r>
       <r>    7.3105   -0.0000 </r>
       <r>    9.1156   -0.0000 </r>
       <r>    9.1156   -0.0000 </r>
       <r>   13.4706    0.0000 </r>
       <r>   16.0854    0.0000 </r>
       <r>   16.0854    0.0000 </r>
       <r>   16.9659    0.0000 </r>
       <r>   17.2384    0.0000 </r>
       <r>   17.2384    0.0000 </r>
       <r>   18.7152    0.0000 </r>
       <r>   24.5730    0.0000 </r>
       <r>   26.0188    0.0000 </r>
      </set>
      <set comment="kpoint 3">
       <r>   -3.7823    1.0000 </r>
       <r>   -0.9011    1.0000 </r>
       <r>    4.6992    1.0000 </r>
       <r>    4.6992    1.0000 </r>
       <r>    7.3221   -0.0000 </r>
       <r>    9.1272   -0.0000 </r>
       <r>    9.1272   -0.0000 </r>
       <r>   13.4883    0.0000 </r>
       <r>   15.7124    0.0000 </r>
       <r>   15.7124    0.0000 </r>
       <r>   16.7026    0.0000 </r>
       <r>   17.6534    0.0000 </r>
       <r>   17.6534    0.0000 </r>
       <r>   18.9610    0.0000 </r>
       <r>   23.9628    0.0000 </r>
       <r>   26.1881    0.0000 </r>
      </set>
      <set comment="kpoint 4">
       <r>   -3.8956    1.0000 </r>
       <r>   -0.7300    1.0000 </r>
       <r>    4.7160    1.0000 </r>
       <r>    4.7160    1.0000 </r>
       <r>    7.3414   -0.0000 </r>
       <r>    9.1459   -0.0000 </r>
       <r>    9.1459   -0.0000 </r>
       <r>   13.5163    0.0000 </r>
       <r>   15.3226    0.0000 </r>
       <r>   15.3226    0.0000 </r>
       <r>   16.3687    0.0000 </r>
       <r>   18.1129    0.0000 </r>
       <r>   18.1129    0.0000 </r>
       <r>   19.2542    0.0000 </r>
       <r>   23.3788    0.0000 </r>
       <r>   25.6146    0.0000 </r>
      </set>
      <set comment="kpoint 5">
       <r>   -4.0347    1.0000 </r>
       <r>   -0.5101    1.0000 </r>
       <r>    4.7395    1.0000 </r>
       <r>    4.7395    1.0000 </r>
       <r>    7.3683   -0.0000 </r>
       <r>    9.1706   -0.0000 </r>
       <r>    9.1706   -0.0000 </r>
       <r>   13.5523    0.0000 </r>
       <r>   14.9417    0.0000 </r>
       <r>   14.9417    0.0000 </r>
       <r>   16.0087    0.0000 </r>
       <r>   18.5897    0.0000 </r>
       <r>   18.5897    0.0000 </r>
       <r>   19.5267    0.0000 </r>
       <r>   22.8613    0.0000 </r>
       <r>   25.0564    0.0000 </r>
      </set>
      <set comment="kpoint 6">
       <r>   -4.1891    1.0000 </r>
       <r>   -0.2521    1.0000 </r>
       <r>    4.7698    1.0000 </r>
       <r>    4.7698    1.0000 </r>
       <r>    7.4027   -0.0000 </r>
       <r>    9.1997   -0.0000 </r>
       <r>    9.1997   -0.0000 </r>
       <r>   13.5913    0.0000 </r>
       <r>   14.5779    0.0000 </r>
       <r>   14.5779    0.0000 </r>
       <r>   15.6452    0.0000 </r>
       <r>   19.0729    0.0000 </r>
       <r>   19.0729    0.0000 </r>
       <r>   19.7083    0.0000 </r>
       <r>   22.4660    0.0000 </r>
       <r>   24.5130    0.0000 </r>
      </set>
      <set comment="kpoint 7">
       <r>   -4.3510    1.0000 </r>
       <r>    0.0360    1.0000 </r>
       <r>    4.8066    1.0000 </r>
       <r>    4.8066    1.0000 </r>
       <r>    7.4446   -0.0000 </r>
       <r>    9.2309   -0.0000 </r>
       <r>    9.2309   -0.0000 </r>
       <r>   13.6236    0.0000 </r>
       <r>   14.2362    0.0000 </r>
       <r>   14.2362    0.0000 </r>
       <r>   15.2954    0.0000 </r>
       <r>   19.5514    0.0000 </r>
       <r>   19.5514    0.0000 </r>
       <r>   19.7150    0.0000 </r>
       <r>   22.2704    0.0000 </r>
       <r>   23.9957    0.0000 </r>
      </set>
      <set comment="kpoint 8">
       <r>   -4.5147    1.0000 </r>
       <r>    0.3483    1.0000 </r>
       <r>    4.8501    1.0000 </r>
       <r>    4.8501    1.0000 </r>
       <r>    7.4936   -0.0000 </r>
       <r>    9.2614   -0.0000 </r>
       <r>    9.2614   -0.0000 </r>
       <r>   13.6291    0.0000 </r>
       <r>   13.9205    0.0000 </r>
       <r>   13.9205    0.0000 </r>
       <r>   14.9828    0.0000 </r>
       <r>   19.5072    0.0000 </r>
       <r>   20.0067    0.0000 </r>
       <r>   20.0067    0.0000 </r>
       <r>   22.3104    0.0000 </r>
       <r>   23.5241    0.0000 </r>
      </set>
      <set comment="kpoint 9">
       <r>   -4.6763    1.0000 </r>
       <r>    0.6806    1.0000 </r>
       <r>    4.9000    1.0000 </r>
       <r>    4.9000    1.0000 </r>
       <r>    7.5496   -0.0000 </r>
       <r>    9.2875   -0.0000 </r>
       <r>    9.2875   -0.0000 </r>
       <r>   13.5703    0.0000 </r>
       <r>   13.6351    0.0000 </r>
       <r>   13.6351    0.0000 </r>
       <r>   14.7454    0.0000 </r>
       <r>   19.1401    0.0000 </r>
       <r>   20.3997    0.0000 </r>
       <r>   20.3997    0.0000 </r>
       <r>   22.5278    0.0000 </r>
       <r>   23.1378    0.0000 </r>
      </set>
      <set comment="kpoint 10">
       <r>   -4.8331    1.0000 </r>
       <r>    1.0297    1.0000 </r>
       <r>    4.9562    1.0000 </r>
       <r>    4.9562    1.0000 </r>
       <r>    7.6121   -0.0000 </r>
       <r>    9.3051   -0.0000 </r>
       <r>    9.3051   -0.0000 </r>
       <r>   13.3847    0.0000 </r>
       <r>   13.3847    0.0000 </r>
       <r>   13.4070    0.0000 </r>
       <r>   14.6227    0.0000 </r>
       <r>   18.6936    0.0000 </r>
       <r>   20.6501    0.0000 </r>
       <r>   20.6501    0.0000 </r>
       <r>   22.8385    0.0000 </r>
       <r>   22.9180    0.0000 </r>
      </set>
      <set comment="kpoint 11">
       <r>   -4.9832    1.0000 </r>
       <r>    1.3932    1.0000 </r>
       <r>    5.0184    1.0000 </r>
       <r>    5.0184    1.0000 </r>
       <r>    7.6808   -0.0000 </r>
       <r>    9.3095   -0.0000 </r>
       <r>    9.3095   -0.0000 </r>
       <r>   13.1427    0.0000 </r>
       <r>   13.1739    0.0000 </r>
       <r>   13.1739    0.0000 </r>
       <r>   14.6088    0.0000 </r>
       <r>   18.2197    0.0000 </r>
       <r>   20.6601    0.0000 </r>
       <r>   20.6602    0.0000 </r>
       <r>   22.9627    0.0000 </r>
       <r>   23.1570    0.0000 </r>
      </set>
      <set comment="kpoint 12">
       <r>   -5.1251    1.0000 </r>
       <r>    1.7691    1.0000 </r>
       <r>    5.0864    1.0000 </r>
       <r>    5.0864    1.0000 </r>
       <r>    7.7550   -0.0000 </r>
       <r>    9.2962   -0.0000 </r>
       <r>    9.2962   -0.0000 </r>
       <r>   12.8159    0.0000 </r>
       <r>   13.0073    0.0000 </r>
       <r>   13.0073    0.0000 </r>
       <r>   14.6604    0.0000 </r>
       <r>   17.7490    0.0000 </r>
       <r>   20.4420    0.0000 </r>
       <r>   20.4421    0.0000 </r>
       <r>   23.2601    0.0000 </r>
       <r>   23.4825    0.0000 </r>
      </set>
      <set comment="kpoint 13">
       <r>   -5.2578    1.0000 </r>
       <r>    2.1555    1.0000 </r>
       <r>    5.1597    1.0000 </r>
       <r>    5.1597    1.0000 </r>
       <r>    7.8338   -0.0000 </r>
       <r>    9.2616   -0.0000 </r>
       <r>    9.2616   -0.0000 </r>
       <r>   12.4567    0.0000 </r>
       <r>   12.8882    0.0000 </r>
       <r>   12.8882    0.0000 </r>
       <r>   14.7397    0.0000 </r>
       <r>   17.3030    0.0000 </r>
       <r>   20.0996    0.0000 </r>
       <r>   20.0996    0.0000 </r>
       <r>   23.7064    0.0000 </r>
       <r>   23.7133    0.0000 </r>
      </set>
      <set comment="kpoint 14">
       <r>   -5.3807    1.0000 </r>
       <r>    2.5507    1.0000 </r>
       <r>    5.2375    1.0000 </r>
       <r>    5.2375    1.0000 </r>
       <r>    7.9164   -0.0000 </r>
       <r>    9.2041   -0.0000 </r>
       <r>    9.2041   -0.0000 </r>
       <r>   12.0805    0.0000 </r>
       <r>   12.8181    0.0000 </r>
       <r>   12.8181    0.0000 </r>
       <r>   14.8168    0.0000 </r>
       <r>   16.9041    0.0000 </r>
       <r>   19.7075    0.0000 </r>
       <r>   19.7076    0.0000 </r>
       <r>   23.7078    0.0000 </r>
       <r>   24.2267    0.0000 </r>
      </set>
      <set comment="kpoint 15">
       <r>   -5.4930    1.0000 </r>
       <r>    2.9527    1.0000 </r>
       <r>    5.3192    1.0000 </r>
       <r>    5.3192    1.0000 </r>
       <r>    8.0012   -0.0000 </r>
       <r>    9.1246   -0.0000 </r>
       <r>    9.1246   -0.0000 </r>
       <r>   11.6950    0.0000 </r>
       <r>   12.7955    0.0000 </r>
       <r>   12.7955    0.0000 </r>
       <r>   14.8595    0.0000 </r>
       <r>   16.5823    0.0000 </r>
       <r>   19.3017    0.0000 </r>
       <r>   19.3017    0.0000 </r>
       <r>   23.4768    0.0000 </r>
       <r>   24.7850    0.0000 </r>
      </set>
      <set comment="kpoint 16">
       <r>   -5.5944    1.0000 </r>
       <r>    3.3593    1.0000 </r>
       <r>    5.4036    1.0000 </r>
       <r>    5.4036    1.0000 </r>
       <r>    8.0865   -0.0000 </r>
       <r>    9.0266   -0.0000 </r>
       <r>    9.0266   -0.0000 </r>
       <r>   11.3046   -0.0000 </r>
       <r>   12.8161    0.0000 </r>
       <r>   12.8161    0.0000 </r>
       <r>   14.8297    0.0000 </r>
       <r>   16.3751    0.0000 </r>
       <r>   18.8997    0.0000 </r>
       <r>   18.8997    0.0000 </r>
       <r>   23.1335    0.0000 </r>
       <r>   25.3638    0.0000 </r>
      </set>
      <set comment="kpoint 17">
       <r>   -5.6844    1.0000 </r>
       <r>    3.7676    1.0000 </r>
       <r>    5.4891    1.0005 </r>
       <r>    5.4891    1.0005 </r>
       <r>    8.1700   -0.0000 </r>
       <r>    8.9157   -0.0000 </r>
       <r>    8.9157   -0.0000 </r>
       <r>   10.9131   -0.0000 </r>
       <r>   12.8736    0.0000 </r>
       <r>   12.8736    0.0000 </r>
       <r>   14.7070    0.0000 </r>
       <r>   16.3030    0.0000 </r>
       <r>   18.5116    0.0000 </r>
       <r>   18.5116    0.0000 </r>
       <r>   22.7589    0.0000 </r>
       <r>   25.9570    0.0000 </r>
      </set>
      <set comment="kpoint 18">
       <r>   -5.7629    1.0000 </r>
       <r>    4.1738    1.0000 </r>
       <r>    5.5737    1.0030 </r>
       <r>    5.5737    1.0030 </r>
       <r>    8.2485   -0.0000 </r>
       <r>    8.7982   -0.0000 </r>
       <r>    8.7982   -0.0000 </r>
       <r>   10.5251   -0.0000 </r>
       <r>   12.9597    0.0000 </r>
       <r>   12.9597    0.0000 </r>
       <r>   14.5162    0.0000 </r>
       <r>   16.3403    0.0000 </r>
       <r>   18.1454    0.0000 </r>
       <r>   18.1454    0.0000 </r>
       <r>   22.3886    0.0000 </r>
       <r>   26.5378    0.0000 </r>
      </set>
      <set comment="kpoint 19">
       <r>   -5.8297    1.0000 </r>
       <r>    4.5723    1.0000 </r>
       <r>    5.6551    1.0121 </r>
       <r>    5.6551    1.0121 </r>
       <r>    8.3176   -0.0000 </r>
       <r>    8.6815   -0.0000 </r>
       <r>    8.6815   -0.0000 </r>
       <r>   10.1477   -0.0000 </r>
       <r>   13.0652    0.0000 </r>
       <r>   13.0652    0.0000 </r>
       <r>   14.3023    0.0000 </r>
       <r>   16.4406    0.0000 </r>
       <r>   17.8083    0.0000 </r>
       <r>   17.8083    0.0000 </r>
       <r>   22.0410    0.0000 </r>
       <r>   27.1021    0.0000 </r>
      </set>
      <set comment="kpoint 20">
       <r>   -5.8845    1.0000 </r>
       <r>    4.9543    1.0000 </r>
       <r>    5.7299    1.0281 </r>
       <r>    5.7299    1.0281 </r>
       <r>    8.3711   -0.0000 </r>
       <r>    8.5724   -0.0000 </r>
       <r>    8.5724   -0.0000 </r>
       <r>    9.7924   -0.0000 </r>
       <r>   13.1792    0.0000 </r>
       <r>   13.1792    0.0000 </r>
       <r>   14.0989    0.0000 </r>
       <r>   16.5666    0.0000 </r>
       <r>   17.5084    0.0000 </r>
       <r>   17.5084    0.0000 </r>
       <r>   21.7298    0.0000 </r>
       <r>   27.6333    0.0000 </r>
      </set>
      <set comment="kpoint 21">
       <r>   -5.9272    1.0000 </r>
       <r>    5.3058    1.0000 </r>
       <r>    5.7945    1.0349 </r>
       <r>    5.7945    1.0349 </r>
       <r>    8.4002   -0.0000 </r>
       <r>    8.4781   -0.0000 </r>
       <r>    8.4781   -0.0000 </r>
       <r>    9.4789   -0.0000 </r>
       <r>   13.2898    0.0000 </r>
       <r>   13.2898    0.0000 </r>
       <r>   13.9261    0.0000 </r>
       <r>   16.6926    0.0000 </r>
       <r>   17.2557    0.0000 </r>
       <r>   17.2557    0.0000 </r>
       <r>   21.4672    0.0000 </r>
       <r>   28.0820    0.0000 </r>
      </set>
      <set comment="kpoint 22">
       <r>   -5.9578    1.0000 </r>
       <r>    5.6035    1.0053 </r>
       <r>    5.8448    1.0139 </r>
       <r>    5.8448    1.0139 </r>
       <r>    8.3954   -0.0000 </r>
       <r>    8.4050   -0.0000 </r>
       <r>    8.4050   -0.0000 </r>
       <r>    9.2366   -0.0000 </r>
       <r>   13.3835    0.0000 </r>
       <r>   13.3835    0.0000 </r>
       <r>   13.7958    0.0000 </r>
       <r>   16.7993    0.0000 </r>
       <r>   17.0616    0.0000 </r>
       <r>   17.0616    0.0000 </r>
       <r>   21.2661    0.0000 </r>
       <r>   28.4026    0.0000 </r>
      </set>
      <set comment="kpoint 23">
       <r>   -5.9762    1.0000 </r>
       <r>    5.8115    1.0316 </r>
       <r>    5.8769    0.9775 </r>
       <r>    5.8769    0.9775 </r>
       <r>    8.3585   -0.0000 </r>
       <r>    8.3585   -0.0000 </r>
       <r>    8.3630   -0.0000 </r>
       <r>    9.0925   -0.0000 </r>
       <r>   13.4471    0.0000 </r>
       <r>   13.4471    0.0000 </r>
       <r>   13.7149    0.0000 </r>
       <r>   16.8708    0.0000 </r>
       <r>   16.9384    0.0000 </r>
       <r>   16.9384    0.0000 </r>
       <r>   21.1389    0.0000 </r>
       <r>   28.6327    0.0000 </r>
      </set>
      <set comment="kpoint 24">
       <r>   -5.9823    1.0000 </r>
       <r>    5.8879    0.9598 </r>
       <r>    5.8879    0.9597 </r>
       <r>    5.8879    0.9597 </r>
       <r>    8.3426   -0.0000 </r>
       <r>    8.3426   -0.0000 </r>
       <r>    8.3426   -0.0000 </r>
       <r>    9.0474   -0.0000 </r>
       <r>   13.4696    0.0000 </r>
       <r>   13.4696    0.0000 </r>
       <r>   13.6876    0.0000 </r>
       <r>   16.8960    0.0000 </r>
       <r>   16.8960    0.0000 </r>
       <r>   16.8960    0.0000 </r>
       <r>   21.0953    0.0000 </r>
       <r>   28.7076    0.0000 </r>
      </set>
      <set comment="kpoint 25">
       <r>   -5.9823    1.0000 </r>
       <r>    5.8879    0.9598 </r>
       <r>    5.8879    0.9597 </r>
       <r>    5.8879    0.9597 </r>
       <r>    8.3426   -0.0000 </r>
       <r>    8.3426   -0.0000 </r>
       <r>    8.3426   -0.0000 </r>
       <r>    9.0474   -0.0000 </r>
       <r>   13.4696    0.0000 </r>
       <r>   13.4696    0.0000 </r>
       <r>   13.6876    0.0000 </r>
       <r>   16.8960    0.0000 </r>
       <r>   16.8960    0.0000 </r>
       <r>   16.8960    0.0000 </r>
       <r>   21.0953    0.0000 </r>
       <r>   28.7070    0.0000 </r>
      </set>
      <set comment="kpoint 26">
       <r>   -5.9741    1.0000 </r>
       <r>    5.8295    1.0243 </r>
       <r>    5.8513    1.0083 </r>
       <r>    5.8513    1.0083 </r>
       <r>    8.3223   -0.0000 </r>
       <r>    8.3893   -0.0000 </r>
       <r>    8.3893   -0.0000 </r>
       <r>    9.1047   -0.0000 </r>
       <r>   13.4011    0.0000 </r>
       <r>   13.4787    0.0000 </r>
       <r>   13.7240    0.0000 </r>
       <r>   16.9103    0.0000 </r>
       <r>   16.9103    0.0000 </r>
       <r>   16.9458    0.0000 </r>
       <r>   21.1538    0.0000 </r>
       <r>   28.6031    0.0000 </r>
      </set>
      <set comment="kpoint 27">
       <r>   -5.9496    1.0000 </r>
       <r>    5.6660    1.0141 </r>
       <r>    5.7491    1.0320 </r>
       <r>    5.7491    1.0320 </r>
       <r>    8.2634   -0.0000 </r>
       <r>    8.5216   -0.0000 </r>
       <r>    8.5217   -0.0000 </r>
       <r>    9.2628   -0.0000 </r>
       <r>   13.2131    0.0000 </r>
       <r>   13.5058    0.0000 </r>
       <r>   13.8316    0.0000 </r>
       <r>   16.9531    0.0000 </r>
       <r>   16.9531    0.0000 </r>
       <r>   17.0809    0.0000 </r>
       <r>   21.3275    0.0000 </r>
       <r>   28.2250    0.0000 </r>
      </set>
      <set comment="kpoint 28">
       <r>   -5.9088    1.0000 </r>
       <r>    5.4237    1.0001 </r>
       <r>    5.5991    1.0049 </r>
       <r>    5.5991    1.0049 </r>
       <r>    8.1707   -0.0000 </r>
       <r>    8.7219   -0.0000 </r>
       <r>    8.7219   -0.0000 </r>
       <r>    9.4894   -0.0000 </r>
       <r>   12.9472    0.0000 </r>
       <r>   13.5510    0.0000 </r>
       <r>   14.0050    0.0000 </r>
       <r>   17.0244    0.0000 </r>
       <r>   17.0244    0.0000 </r>
       <r>   17.2704    0.0000 </r>
       <r>   21.6113    0.0000 </r>
       <r>   27.7501    0.0000 </r>
      </set>
      <set comment="kpoint 29">
       <r>   -5.8517    1.0000 </r>
       <r>    5.1285    1.0000 </r>
       <r>    5.4192    1.0001 </r>
       <r>    5.4192    1.0001 </r>
       <r>    8.0512   -0.0000 </r>
       <r>    8.9718   -0.0000 </r>
       <r>    8.9719   -0.0000 </r>
       <r>    9.7448   -0.0000 </r>
       <r>   12.6528    0.0000 </r>
       <r>   13.6143    0.0000 </r>
       <r>   14.2372    0.0000 </r>
       <r>   17.1240    0.0000 </r>
       <r>   17.1240    0.0000 </r>
       <r>   17.4870    0.0000 </r>
       <r>   21.9958    0.0000 </r>
       <r>   27.2127    0.0000 </r>
      </set>
      <set comment="kpoint 30">
       <r>   -5.7784    1.0000 </r>
       <r>    4.7992    1.0000 </r>
       <r>    5.2233    1.0000 </r>
       <r>    5.2234    1.0000 </r>
       <r>    7.9122   -0.0000 </r>
       <r>    9.2573   -0.0000 </r>
       <r>    9.2574   -0.0000 </r>
       <r>    9.9813   -0.0000 </r>
       <r>   12.3854    0.0000 </r>
       <r>   13.6956    0.0000 </r>
       <r>   14.5203    0.0000 </r>
       <r>   17.2516    0.0000 </r>
       <r>   17.2516    0.0000 </r>
       <r>   17.7150    0.0000 </r>
       <r>   22.4680    0.0000 </r>
       <r>   26.6439    0.0000 </r>
      </set>
      <set comment="kpoint 31">
       <r>   -5.6889    1.0000 </r>
       <r>    4.4482    1.0000 </r>
       <r>    5.0210    1.0000 </r>
       <r>    5.0210    1.0000 </r>
       <r>    7.7609   -0.0000 </r>
       <r>    9.5686   -0.0000 </r>
       <r>    9.5686   -0.0000 </r>
       <r>   10.1333   -0.0000 </r>
       <r>   12.2167    0.0000 </r>
       <r>   13.7950    0.0000 </r>
       <r>   14.8467    0.0000 </r>
       <r>   17.4067    0.0000 </r>
       <r>   17.4067    0.0000 </r>
       <r>   17.9485    0.0000 </r>
       <r>   23.0126    0.0000 </r>
       <r>   26.0625    0.0000 </r>
      </set>
      <set comment="kpoint 32">
       <r>   -5.5835    1.0000 </r>
       <r>    4.0833    1.0000 </r>
       <r>    4.8185    1.0000 </r>
       <r>    4.8185    1.0000 </r>
       <r>    7.6032   -0.0000 </r>
       <r>    9.8990   -0.0000 </r>
       <r>    9.8990   -0.0000 </r>
       <r>   10.1313   -0.0000 </r>
       <r>   12.2205    0.0000 </r>
       <r>   13.9124    0.0000 </r>
       <r>   15.2094    0.0000 </r>
       <r>   17.5883    0.0000 </r>
       <r>   17.5883    0.0000 </r>
       <r>   18.1878    0.0000 </r>
       <r>   23.6136    0.0000 </r>
       <r>   25.4791    0.0000 </r>
      </set>
      <set comment="kpoint 33">
       <r>   -5.4620    1.0000 </r>
       <r>    3.7092    1.0000 </r>
       <r>    4.6199    1.0000 </r>
       <r>    4.6200    1.0000 </r>
       <r>    7.4442   -0.0000 </r>
       <r>    9.9680   -0.0000 </r>
       <r>   10.2440   -0.0000 </r>
       <r>   10.2440   -0.0000 </r>
       <r>   12.4071    0.0000 </r>
       <r>   14.0479    0.0000 </r>
       <r>   15.6020    0.0000 </r>
       <r>   17.7949    0.0000 </r>
       <r>   17.7949    0.0000 </r>
       <r>   18.4357    0.0000 </r>
       <r>   24.2546    0.0000 </r>
       <r>   24.9018    0.0000 </r>
      </set>
      <set comment="kpoint 34">
       <r>   -5.3249    1.0000 </r>
       <r>    3.3292    1.0000 </r>
       <r>    4.4283    1.0000 </r>
       <r>    4.4283    1.0000 </r>
       <r>    7.2882   -0.0000 </r>
       <r>    9.7022   -0.0000 </r>
       <r>   10.6004   -0.0000 </r>
       <r>   10.6005   -0.0000 </r>
       <r>   12.7196    0.0000 </r>
       <r>   14.2013    0.0000 </r>
       <r>   16.0189    0.0000 </r>
       <r>   18.0239    0.0000 </r>
       <r>   18.0240    0.0000 </r>
       <r>   18.6957    0.0000 </r>
       <r>   24.3373    0.0000 </r>
       <r>   24.3374    0.0000 </r>
      </set>
      <set comment="kpoint 35">
       <r>   -5.1720    1.0000 </r>
       <r>    2.9454    1.0000 </r>
       <r>    4.2455    1.0000 </r>
       <r>    4.2455    1.0000 </r>
       <r>    7.1383   -0.0000 </r>
       <r>    9.3903   -0.0000 </r>
       <r>   10.9660   -0.0000 </r>
       <r>   10.9660   -0.0000 </r>
       <r>   13.1028    0.0000 </r>
       <r>   14.3727    0.0000 </r>
       <r>   16.4543    0.0000 </r>
       <r>   18.2710    0.0000 </r>
       <r>   18.2710    0.0000 </r>
       <r>   18.9713    0.0000 </r>
       <r>   23.7927    0.0000 </r>
       <r>   23.7928    0.0000 </r>
      </set>
      <set comment="kpoint 36">
       <r>   -5.0038    1.0000 </r>
       <r>    2.5594    1.0000 </r>
       <r>    4.0731    1.0000 </r>
       <r>    4.0731    1.0000 </r>
       <r>    6.9972   -0.0000 </r>
       <r>    9.0646   -0.0000 </r>
       <r>   11.3391   -0.0000 </r>
       <r>   11.3391   -0.0000 </r>
       <r>   13.5249    0.0000 </r>
       <r>   14.5620    0.0000 </r>
       <r>   16.9022    0.0000 </r>
       <r>   18.5285    0.0000 </r>
       <r>   18.5285    0.0000 </r>
       <r>   19.2656    0.0000 </r>
       <r>   23.2775    0.0000 </r>
       <r>   23.2776    0.0000 </r>
      </set>
      <set comment="kpoint 37">
       <r>   -4.8202    1.0000 </r>
       <r>    2.1722    1.0000 </r>
       <r>    3.9120    1.0000 </r>
       <r>    3.9120    1.0000 </r>
       <r>    6.8671   -0.0000 </r>
       <r>    8.7419   -0.0000 </r>
       <r>   11.7184    0.0000 </r>
       <r>   11.7184    0.0000 </r>
       <r>   13.9687    0.0000 </r>
       <r>   14.7692    0.0000 </r>
       <r>   17.3559    0.0000 </r>
       <r>   18.7827    0.0000 </r>
       <r>   18.7827    0.0000 </r>
       <r>   19.5813    0.0000 </r>
       <r>   22.8065    0.0000 </r>
       <r>   22.8065    0.0000 </r>
      </set>
      <set comment="kpoint 38">
       <r>   -4.6218    1.0000 </r>
       <r>    1.7849    1.0000 </r>
       <r>    3.7632    1.0000 </r>
       <r>    3.7632    1.0000 </r>
       <r>    6.7498   -0.0000 </r>
       <r>    8.4313   -0.0000 </r>
       <r>   12.1031    0.0000 </r>
       <r>   12.1031    0.0000 </r>
       <r>   14.4245    0.0000 </r>
       <r>   14.9943    0.0000 </r>
       <r>   17.8065    0.0000 </r>
       <r>   19.0088    0.0000 </r>
       <r>   19.0088    0.0000 </r>
       <r>   19.9205    0.0000 </r>
       <r>   22.4053    0.0000 </r>
       <r>   22.4053    0.0000 </r>
      </set>
      <set comment="kpoint 39">
       <r>   -4.4085    1.0000 </r>
       <r>    1.3985    1.0000 </r>
       <r>    3.6272    1.0000 </r>
       <r>    3.6272    1.0000 </r>
       <r>    6.6466   -0.0001 </r>
       <r>    8.1381   -0.0000 </r>
       <r>   12.4924    0.0000 </r>
       <r>   12.4924    0.0000 </r>
       <r>   14.8859    0.0000 </r>
       <r>   15.2372    0.0000 </r>
       <r>   18.2425    0.0000 </r>
       <r>   19.1645    0.0000 </r>
       <r>   19.1645    0.0000 </r>
       <r>   20.2848    0.0000 </r>
       <r>   22.1164    0.0000 </r>
       <r>   22.1167    0.0000 </r>
      </set>
      <set comment="kpoint 40">
       <r>   -4.1808    1.0000 </r>
       <r>    1.0139    1.0000 </r>
       <r>    3.5045    1.0000 </r>
       <r>    3.5045    1.0000 </r>
       <r>    6.5588   -0.0006 </r>
       <r>    7.8652   -0.0000 </r>
       <r>   12.8859    0.0000 </r>
       <r>   12.8860    0.0000 </r>
       <r>   15.3483    0.0000 </r>
       <r>   15.4978    0.0000 </r>
       <r>   18.6480    0.0000 </r>
       <r>   19.1944    0.0000 </r>
       <r>   19.1945    0.0000 </r>
       <r>   20.6756    0.0000 </r>
       <r>   21.9951    0.0000 </r>
       <r>   22.0035    0.0000 </r>
      </set>
      <set comment="kpoint 41">
       <r>   -3.9390    1.0000 </r>
       <r>    0.6319    1.0000 </r>
       <r>    3.3955    1.0000 </r>
       <r>    3.3955    1.0000 </r>
       <r>    6.4874   -0.0027 </r>
       <r>    7.6144   -0.0000 </r>
       <r>   13.2832    0.0000 </r>
       <r>   13.2832    0.0000 </r>
       <r>   15.7762    0.0000 </r>
       <r>   15.8083    0.0000 </r>
       <r>   19.0015    0.0000 </r>
       <r>   19.0667    0.0000 </r>
       <r>   19.0667    0.0000 </r>
       <r>   21.0935    0.0000 </r>
       <r>   21.4751    0.0000 </r>
       <r>   22.0732    0.0000 </r>
      </set>
      <set comment="kpoint 42">
       <r>   -3.6835    1.0000 </r>
       <r>    0.2535    1.0000 </r>
       <r>    3.3005    1.0000 </r>
       <r>    3.3005    1.0000 </r>
       <r>    6.4334   -0.0073 </r>
       <r>    7.3868   -0.0000 </r>
       <r>   13.6837    0.0000 </r>
       <r>   13.6838    0.0000 </r>
       <r>   16.0722    0.0000 </r>
       <r>   16.2626    0.0000 </r>
       <r>   18.8050    0.0000 </r>
       <r>   18.8050    0.0000 </r>
       <r>   19.2767    0.0000 </r>
       <r>   20.9616    0.0000 </r>
       <r>   21.5384    0.0000 </r>
       <r>   22.3267    0.0000 </r>
      </set>
      <set comment="kpoint 43">
       <r>   -3.4147    1.0000 </r>
       <r>   -0.1202    1.0000 </r>
       <r>    3.2197    1.0000 </r>
       <r>    3.2198    1.0000 </r>
       <r>    6.3976   -0.0126 </r>
       <r>    7.1829   -0.0000 </r>
       <r>   14.0867    0.0000 </r>
       <r>   14.0867    0.0000 </r>
       <r>   16.3857    0.0000 </r>
       <r>   16.7086    0.0000 </r>
       <r>   18.4597    0.0000 </r>
       <r>   18.4597    0.0000 </r>
       <r>   19.4470    0.0000 </r>
       <r>   20.4634    0.0000 </r>
       <r>   22.0094    0.0000 </r>
       <r>   22.7049    0.0000 </r>
      </set>
      <set comment="kpoint 44">
       <r>   -3.1330    1.0000 </r>
       <r>   -0.4885    1.0000 </r>
       <r>    3.1535    1.0000 </r>
       <r>    3.1535    1.0000 </r>
       <r>    6.3807   -0.0158 </r>
       <r>    7.0027   -0.0000 </r>
       <r>   14.4904    0.0000 </r>
       <r>   14.4904    0.0000 </r>
       <r>   16.7168    0.0000 </r>
       <r>   17.1436    0.0000 </r>
       <r>   18.0718    0.0000 </r>
       <r>   18.0718    0.0000 </r>
       <r>   19.4961    0.0000 </r>
       <r>   19.9810    0.0000 </r>
       <r>   22.5045    0.0000 </r>
       <r>   23.1672    0.0000 </r>
      </set>
      <set comment="kpoint 45">
       <r>   -2.8390    1.0000 </r>
       <r>   -0.8504    1.0000 </r>
       <r>    3.1018    1.0000 </r>
       <r>    3.1018    1.0000 </r>
       <r>    6.3835   -0.0153 </r>
       <r>    6.8463   -0.0000 </r>
       <r>   14.8912    0.0000 </r>
       <r>   14.8913    0.0000 </r>
       <r>   17.0652    0.0000 </r>
       <r>   17.5644    0.0000 </r>
       <r>   17.6684    0.0000 </r>
       <r>   17.6684    0.0000 </r>
       <r>   19.4259    0.0000 </r>
       <r>   19.5145    0.0000 </r>
       <r>   23.0184    0.0000 </r>
       <r>   23.6880    0.0000 </r>
      </set>
      <set comment="kpoint 46">
       <r>   -2.5332    1.0000 </r>
       <r>   -1.2050    1.0000 </r>
       <r>    3.0648    1.0000 </r>
       <r>    3.0648    1.0000 </r>
       <r>    6.4065   -0.0111 </r>
       <r>    6.7132   -0.0000 </r>
       <r>   15.2791    0.0000 </r>
       <r>   15.2791    0.0000 </r>
       <r>   17.2722    0.0000 </r>
       <r>   17.2722    0.0000 </r>
       <r>   17.4310    0.0000 </r>
       <r>   17.9673    0.0000 </r>
       <r>   19.0644    0.0000 </r>
       <r>   19.2541    0.0000 </r>
       <r>   23.5433    0.0000 </r>
       <r>   24.2510    0.0000 </r>
      </set>
      <set comment="kpoint 47">
       <r>   -2.2161    1.0000 </r>
       <r>   -1.5513    1.0000 </r>
       <r>    3.0425    1.0000 </r>
       <r>    3.0425    1.0000 </r>
       <r>    6.4504   -0.0055 </r>
       <r>    6.6032   -0.0002 </r>
       <r>   15.6201    0.0000 </r>
       <r>   15.6202    0.0000 </r>
       <r>   16.9240    0.0000 </r>
       <r>   16.9241    0.0000 </r>
       <r>   17.8139    0.0000 </r>
       <r>   18.3471    0.0000 </r>
       <r>   18.6308    0.0000 </r>
       <r>   19.0039    0.0000 </r>
       <r>   24.0607    0.0000 </r>
       <r>   24.8288    0.0000 </r>
      </set>
      <set comment="kpoint 48">
       <r>   -1.8886    1.0000 </r>
       <r>   -1.8886    1.0000 </r>
       <r>    3.0351    1.0000 </r>
       <r>    3.0351    1.0000 </r>
       <r>    6.5158   -0.0015 </r>
       <r>    6.5158   -0.0015 </r>
       <r>   15.7863    0.0000 </r>
       <r>   15.7863    0.0000 </r>
       <r>   16.7551    0.0000 </r>
       <r>   16.7551    0.0000 </r>
       <r>   18.2139    0.0000 </r>
       <r>   18.2139    0.0000 </r>
       <r>   18.6963    0.0000 </r>
       <r>   18.6963    0.0000 </r>
       <r>   24.5254    0.0000 </r>
       <r>   24.5258    0.0000 </r>
      </set>
      <set comment="kpoint 49">
       <r>   -1.8886    1.0000 </r>
       <r>   -1.8886    1.0000 </r>
       <r>    3.0351    1.0000 </r>
       <r>    3.0351    1.0000 </r>
       <r>    6.5158   -0.0015 </r>
       <r>    6.5158   -0.0015 </r>
       <r>   15.7863    0.0000 </r>
       <r>   15.7863    0.0000 </r>
       <r>   16.7551    0.0000 </r>
       <r>   16.7551    0.0000 </r>
       <r>   18.2139    0.0000 </r>
       <r>   18.2139    0.0000 </r>
       <r>   18.6963    0.0000 </r>
       <r>   18.6963    0.0000 </r>
       <r>   24.5253    0.0000 </r>
       <r>   24.5253    0.0000 </r>
      </set>
      <set comment="kpoint 50">
       <r>   -1.8890    1.0000 </r>
       <r>   -1.8875    1.0000 </r>
       <r>    3.0279    1.0000 </r>
       <r>    3.0360    1.0000 </r>
       <r>    6.5167   -0.0015 </r>
       <r>    6.5264   -0.0012 </r>
       <r>   15.7747    0.0000 </r>
       <r>   15.7801    0.0000 </r>
       <r>   16.7378    0.0000 </r>
       <r>   16.7411    0.0000 </r>
       <r>   18.2262    0.0000 </r>
       <r>   18.2278    0.0000 </r>
       <r>   18.7023    0.0000 </r>
       <r>   18.7153    0.0000 </r>
       <r>   24.4997    0.0000 </r>
       <r>   24.5136    0.0000 </r>
      </set>
      <set comment="kpoint 51">
       <r>   -1.8903    1.0000 </r>
       <r>   -1.8842    1.0000 </r>
       <r>    3.0066    1.0000 </r>
       <r>    3.0384    1.0000 </r>
       <r>    6.5195   -0.0014 </r>
       <r>    6.5578   -0.0006 </r>
       <r>   15.7405    0.0000 </r>
       <r>   15.7616    0.0000 </r>
       <r>   16.6877    0.0000 </r>
       <r>   16.7003    0.0000 </r>
       <r>   18.2626    0.0000 </r>
       <r>   18.2678    0.0000 </r>
       <r>   18.7202    0.0000 </r>
       <r>   18.7705    0.0000 </r>
       <r>   24.4282    0.0000 </r>
       <r>   24.4774    0.0000 </r>
      </set>
      <set comment="kpoint 52">
       <r>   -1.8925    1.0000 </r>
       <r>   -1.8787    1.0000 </r>
       <r>    2.9721    1.0000 </r>
       <r>    3.0426    1.0000 </r>
       <r>    6.5243   -0.0013 </r>
       <r>    6.6093   -0.0002 </r>
       <r>   15.6857    0.0000 </r>
       <r>   15.7313    0.0000 </r>
       <r>   16.6096    0.0000 </r>
       <r>   16.6369    0.0000 </r>
       <r>   18.3210    0.0000 </r>
       <r>   18.3302    0.0000 </r>
       <r>   18.7494    0.0000 </r>
       <r>   18.8569    0.0000 </r>
       <r>   24.3231    0.0000 </r>
       <r>   24.4189    0.0000 </r>
      </set>
      <set comment="kpoint 53">
       <r>   -1.8955    1.0000 </r>
       <r>   -1.8709    1.0000 </r>
       <r>    2.9257    1.0000 </r>
       <r>    3.0483    1.0000 </r>
       <r>    6.5309   -0.0011 </r>
       <r>    6.6796   -0.0000 </r>
       <r>   15.6130    0.0000 </r>
       <r>   15.6900    0.0000 </r>
       <r>   16.5097    0.0000 </r>
       <r>   16.5555    0.0000 </r>
       <r>   18.3988    0.0000 </r>
       <r>   18.4100    0.0000 </r>
       <r>   18.7893    0.0000 </r>
       <r>   18.9686    0.0000 </r>
       <r>   24.1958    0.0000 </r>
       <r>   24.3404    0.0000 </r>
      </set>
      <set comment="kpoint 54">
       <r>   -1.8996    1.0000 </r>
       <r>   -1.8610    1.0000 </r>
       <r>    2.8688    1.0000 </r>
       <r>    3.0557    1.0000 </r>
       <r>    6.5393   -0.0009 </r>
       <r>    6.7672   -0.0000 </r>
       <r>   15.5253    0.0000 </r>
       <r>   15.6385    0.0000 </r>
       <r>   16.3933    0.0000 </r>
       <r>   16.4605    0.0000 </r>
       <r>   18.4929    0.0000 </r>
       <r>   18.5030    0.0000 </r>
       <r>   18.8390    0.0000 </r>
       <r>   19.1000    0.0000 </r>
       <r>   24.0545    0.0000 </r>
       <r>   24.2444    0.0000 </r>
      </set>
      <set comment="kpoint 55">
       <r>   -1.9047    1.0000 </r>
       <r>   -1.8488    1.0000 </r>
       <r>    2.8033    1.0000 </r>
       <r>    3.0648    1.0000 </r>
       <r>    6.5497   -0.0007 </r>
       <r>    6.8704   -0.0000 </r>
       <r>   15.4254    0.0000 </r>
       <r>   15.5779    0.0000 </r>
       <r>   16.2652    0.0000 </r>
       <r>   16.3556    0.0000 </r>
       <r>   18.6006    0.0000 </r>
       <r>   18.6054    0.0000 </r>
       <r>   18.8973    0.0000 </r>
       <r>   19.2463    0.0000 </r>
       <r>   23.9046    0.0000 </r>
       <r>   24.1338    0.0000 </r>
      </set>
      <set comment="kpoint 56">
       <r>   -1.9110    1.0000 </r>
       <r>   -1.8344    1.0000 </r>
       <r>    2.7308    1.0000 </r>
       <r>    3.0755    1.0000 </r>
       <r>    6.5619   -0.0005 </r>
       <r>    6.9877   -0.0000 </r>
       <r>   15.3158    0.0000 </r>
       <r>   15.5093    0.0000 </r>
       <r>   16.1288    0.0000 </r>
       <r>   16.2436    0.0000 </r>
       <r>   18.7145    0.0000 </r>
       <r>   18.7192    0.0000 </r>
       <r>   18.9633    0.0000 </r>
       <r>   19.4042    0.0000 </r>
       <r>   23.7494    0.0000 </r>
       <r>   24.0123    0.0000 </r>
      </set>
      <set comment="kpoint 57">
       <r>   -1.9186    1.0000 </r>
       <r>   -1.8179    1.0000 </r>
       <r>    2.6530    1.0000 </r>
       <r>    3.0878    1.0000 </r>
       <r>    6.5759   -0.0004 </r>
       <r>    7.1175   -0.0000 </r>
       <r>   15.1987    0.0000 </r>
       <r>   15.4336    0.0000 </r>
       <r>   15.9865    0.0000 </r>
       <r>   16.1264    0.0000 </r>
       <r>   18.8283    0.0000 </r>
       <r>   18.8467    0.0000 </r>
       <r>   19.0358    0.0000 </r>
       <r>   19.5709    0.0000 </r>
       <r>   23.5911    0.0000 </r>
       <r>   23.8817    0.0000 </r>
      </set>
      <set comment="kpoint 58">
       <r>   -1.9276    1.0000 </r>
       <r>   -1.7991    1.0000 </r>
       <r>    2.5715    1.0000 </r>
       <r>    3.1018    1.0000 </r>
       <r>    6.5919   -0.0002 </r>
       <r>    7.2583   -0.0000 </r>
       <r>   15.0758    0.0000 </r>
       <r>   15.3519    0.0000 </r>
       <r>   15.8404    0.0000 </r>
       <r>   16.0055    0.0000 </r>
       <r>   18.9453    0.0000 </r>
       <r>   18.9812    0.0000 </r>
       <r>   19.1140    0.0000 </r>
       <r>   19.7445    0.0000 </r>
       <r>   23.4311    0.0000 </r>
       <r>   23.7459    0.0000 </r>
      </set>
      <set comment="kpoint 59">
       <r>   -1.9382    1.0000 </r>
       <r>   -1.7781    1.0000 </r>
       <r>    2.4876    1.0000 </r>
       <r>    3.1173    1.0000 </r>
       <r>    6.6096   -0.0002 </r>
       <r>    7.4090   -0.0000 </r>
       <r>   14.9484    0.0000 </r>
       <r>   15.2650    0.0000 </r>
       <r>   15.6916    0.0000 </r>
       <r>   15.8821    0.0000 </r>
       <r>   19.0643    0.0000 </r>
       <r>   19.1213    0.0000 </r>
       <r>   19.1970    0.0000 </r>
       <r>   19.9236    0.0000 </r>
       <r>   23.2702    0.0000 </r>
       <r>   23.6073    0.0000 </r>
      </set>
      <set comment="kpoint 60">
       <r>   -1.9505    1.0000 </r>
       <r>   -1.7549    1.0000 </r>
       <r>    2.4026    1.0000 </r>
       <r>    3.1345    1.0000 </r>
       <r>    6.6292   -0.0001 </r>
       <r>    7.5683   -0.0000 </r>
       <r>   14.8176    0.0000 </r>
       <r>   15.1737    0.0000 </r>
       <r>   15.5412    0.0000 </r>
       <r>   15.7570    0.0000 </r>
       <r>   19.1845    0.0000 </r>
       <r>   19.2658    0.0000 </r>
       <r>   19.2838    0.0000 </r>
       <r>   20.1068    0.0000 </r>
       <r>   23.1092    0.0000 </r>
       <r>   23.4648    0.0000 </r>
      </set>
      <set comment="kpoint 61">
       <r>   -1.9647    1.0000 </r>
       <r>   -1.7295    1.0000 </r>
       <r>    2.3175    1.0000 </r>
       <r>    3.1532    1.0000 </r>
       <r>    6.6507   -0.0000 </r>
       <r>    7.7354   -0.0000 </r>
       <r>   14.6844    0.0000 </r>
       <r>   15.0787    0.0000 </r>
       <r>   15.3900    0.0000 </r>
       <r>   15.6309    0.0000 </r>
       <r>   19.3054    0.0000 </r>
       <r>   19.3738    0.0000 </r>
       <r>   19.4138    0.0000 </r>
       <r>   20.2931    0.0000 </r>
       <r>   22.9487    0.0000 </r>
       <r>   23.3217    0.0000 </r>
      </set>
      <set comment="kpoint 62">
       <r>   -1.9810    1.0000 </r>
       <r>   -1.7019    1.0000 </r>
       <r>    2.2334    1.0000 </r>
       <r>    3.1735    1.0000 </r>
       <r>    6.6739   -0.0000 </r>
       <r>    7.9095   -0.0000 </r>
       <r>   14.5494    0.0000 </r>
       <r>   14.9808    0.0000 </r>
       <r>   15.2386    0.0000 </r>
       <r>   15.5042    0.0000 </r>
       <r>   19.4264    0.0000 </r>
       <r>   19.4663    0.0000 </r>
       <r>   19.5644    0.0000 </r>
       <r>   20.4816    0.0000 </r>
       <r>   22.7890    0.0000 </r>
       <r>   23.1783    0.0000 </r>
      </set>
      <set comment="kpoint 63">
       <r>   -1.9996    1.0000 </r>
       <r>   -1.6721    1.0000 </r>
       <r>    2.1512    1.0000 </r>
       <r>    3.1954    1.0000 </r>
       <r>    6.6989   -0.0000 </r>
       <r>    8.0898   -0.0000 </r>
       <r>   14.4132    0.0000 </r>
       <r>   14.8803    0.0000 </r>
       <r>   15.0873    0.0000 </r>
       <r>   15.3773    0.0000 </r>
       <r>   19.5471    0.0000 </r>
       <r>   19.5606    0.0000 </r>
       <r>   19.7171    0.0000 </r>
       <r>   20.6712    0.0000 </r>
       <r>   22.6305    0.0000 </r>
       <r>   23.0360    0.0000 </r>
      </set>
      <set comment="kpoint 64">
       <r>   -2.0207    1.0000 </r>
       <r>   -1.6401    1.0000 </r>
       <r>    2.0715    1.0000 </r>
       <r>    3.2189    1.0000 </r>
       <r>    6.7257   -0.0000 </r>
       <r>    8.2757   -0.0000 </r>
       <r>   14.2762    0.0000 </r>
       <r>   14.7778    0.0000 </r>
       <r>   14.9365    0.0000 </r>
       <r>   15.2507    0.0000 </r>
       <r>   19.6563    0.0000 </r>
       <r>   19.6672    0.0000 </r>
       <r>   19.8713    0.0000 </r>
       <r>   20.8604    0.0000 </r>
       <r>   22.4735    0.0000 </r>
       <r>   22.8961    0.0000 </r>
      </set>
      <set comment="kpoint 65">
       <r>   -2.0444    1.0000 </r>
       <r>   -1.6059    1.0000 </r>
       <r>    1.9951    1.0000 </r>
       <r>    3.2439    1.0000 </r>
       <r>    6.7543   -0.0000 </r>
       <r>    8.4667   -0.0000 </r>
       <r>   14.1389    0.0000 </r>
       <r>   14.6737    0.0000 </r>
       <r>   14.7865    0.0000 </r>
       <r>   15.1245    0.0000 </r>
       <r>   19.7528    0.0000 </r>
       <r>   19.7866    0.0000 </r>
       <r>   20.0265    0.0000 </r>
       <r>   21.0474    0.0000 </r>
       <r>   22.3184    0.0000 </r>
       <r>   22.7607    0.0000 </r>
      </set>
      <set comment="kpoint 66">
       <r>   -2.0710    1.0000 </r>
       <r>   -1.5695    1.0000 </r>
       <r>    1.9226    1.0000 </r>
       <r>    3.2704    1.0000 </r>
       <r>    6.7846   -0.0000 </r>
       <r>    8.6624   -0.0000 </r>
       <r>   14.0016    0.0000 </r>
       <r>   14.5685    0.0000 </r>
       <r>   14.6375    0.0000 </r>
       <r>   14.9990    0.0000 </r>
       <r>   19.8495    0.0000 </r>
       <r>   19.9051    0.0000 </r>
       <r>   20.1823    0.0000 </r>
       <r>   21.2286    0.0000 </r>
       <r>   22.1655    0.0000 </r>
       <r>   22.6330    0.0000 </r>
      </set>
      <set comment="kpoint 67">
       <r>   -2.1006    1.0000 </r>
       <r>   -1.5309    1.0000 </r>
       <r>    1.8544    1.0000 </r>
       <r>    3.2983    1.0000 </r>
       <r>    6.8166   -0.0000 </r>
       <r>    8.8623   -0.0000 </r>
       <r>   13.8644    0.0000 </r>
       <r>   14.4623    0.0000 </r>
       <r>   14.4898    0.0000 </r>
       <r>   14.8744    0.0000 </r>
       <r>   19.9458    0.0000 </r>
       <r>   20.0224    0.0000 </r>
       <r>   20.3383    0.0000 </r>
       <r>   21.3977    0.0000 </r>
       <r>   22.0151    0.0000 </r>
       <r>   22.5196    0.0000 </r>
      </set>
      <set comment="kpoint 68">
       <r>   -2.1333    1.0000 </r>
       <r>   -1.4902    1.0000 </r>
       <r>    1.7911    1.0000 </r>
       <r>    3.3278    1.0000 </r>
       <r>    6.8504   -0.0000 </r>
       <r>    9.0661   -0.0000 </r>
       <r>   13.7277    0.0000 </r>
       <r>   14.3434    0.0000 </r>
       <r>   14.3556    0.0000 </r>
       <r>   14.7508    0.0000 </r>
       <r>   20.0409    0.0000 </r>
       <r>   20.1386    0.0000 </r>
       <r>   20.4944    0.0000 </r>
       <r>   21.5412    0.0000 </r>
       <r>   21.8680    0.0000 </r>
       <r>   22.4335    0.0000 </r>
      </set>
      <set comment="kpoint 69">
       <r>   -2.1694    1.0000 </r>
       <r>   -1.4472    1.0000 </r>
       <r>    1.7330    1.0000 </r>
       <r>    3.3588    1.0000 </r>
       <r>    6.8858   -0.0000 </r>
       <r>    9.2734   -0.0000 </r>
       <r>   13.5917    0.0000 </r>
       <r>   14.1985    0.0000 </r>
       <r>   14.2485    0.0000 </r>
       <r>   14.6285    0.0000 </r>
       <r>   20.1340    0.0000 </r>
       <r>   20.2535    0.0000 </r>
       <r>   20.6501    0.0000 </r>
       <r>   21.6343    0.0000 </r>
       <r>   21.7248    0.0000 </r>
       <r>   22.3995    0.0000 </r>
      </set>
      <set comment="kpoint 70">
       <r>   -2.2088    1.0000 </r>
       <r>   -1.4021    1.0000 </r>
       <r>    1.6805    1.0000 </r>
       <r>    3.3911    1.0000 </r>
       <r>    6.9228   -0.0000 </r>
       <r>    9.4840   -0.0000 </r>
       <r>   13.4563    0.0000 </r>
       <r>   14.0554    0.0000 </r>
       <r>   14.1413    0.0000 </r>
       <r>   14.5076    0.0000 </r>
       <r>   20.2236    0.0000 </r>
       <r>   20.3672    0.0000 </r>
       <r>   20.8053    0.0000 </r>
       <r>   21.5868    0.0000 </r>
       <r>   21.6519    0.0000 </r>
       <r>   22.4424    0.0000 </r>
      </set>
      <set comment="kpoint 71">
       <r>   -2.2516    1.0000 </r>
       <r>   -1.3548    1.0000 </r>
       <r>    1.6337    1.0000 </r>
       <r>    3.4249    1.0000 </r>
       <r>    6.9615   -0.0000 </r>
       <r>    9.6975   -0.0000 </r>
       <r>   13.3220    0.0000 </r>
       <r>   13.9141    0.0000 </r>
       <r>   14.0342    0.0000 </r>
       <r>   14.3881    0.0000 </r>
       <r>   20.3074    0.0000 </r>
       <r>   20.4795    0.0000 </r>
       <r>   20.9598    0.0000 </r>
       <r>   21.4562    0.0000 </r>
       <r>   21.6005    0.0000 </r>
       <r>   22.5553    0.0000 </r>
      </set>
      <set comment="kpoint 72">
       <r>   -2.2979    1.0000 </r>
       <r>   -1.3053    1.0000 </r>
       <r>    1.5929    1.0000 </r>
       <r>    3.4601    1.0000 </r>
       <r>    7.0017   -0.0000 </r>
       <r>    9.9136   -0.0000 </r>
       <r>   13.1886    0.0000 </r>
       <r>   13.7747    0.0000 </r>
       <r>   13.9274    0.0000 </r>
       <r>   14.2703    0.0000 </r>
       <r>   20.3816    0.0000 </r>
       <r>   20.5906    0.0000 </r>
       <r>   21.1134    0.0000 </r>
       <r>   21.3367    0.0000 </r>
       <r>   21.5089    0.0000 </r>
       <r>   22.7090    0.0000 </r>
      </set>
      <set comment="kpoint 73">
       <r>   -2.2979    1.0000 </r>
       <r>   -1.3053    1.0000 </r>
       <r>    1.5929    1.0000 </r>
       <r>    3.4601    1.0000 </r>
       <r>    7.0017   -0.0000 </r>
       <r>    9.9136   -0.0000 </r>
       <r>   13.1886    0.0000 </r>
       <r>   13.7747    0.0000 </r>
       <r>   13.9274    0.0000 </r>
       <r>   14.2703    0.0000 </r>
       <r>   20.3816    0.0000 </r>
       <r>   20.5906    0.0000 </r>
       <r>   21.1134    0.0000 </r>
       <r>   21.3367    0.0000 </r>
       <r>   21.5089    0.0000 </r>
       <r>   22.7090    0.0000 </r>
      </set>
      <set comment="kpoint 74">
       <r>   -2.4571    1.0000 </r>
       <r>   -1.1438    1.0000 </r>
       <r>    1.5074    1.0000 </r>
       <r>    3.5735    1.0000 </r>
       <r>    7.1316   -0.0000 </r>
       <r>   10.5739   -0.0000 </r>
       <r>   12.7956    0.0000 </r>
       <r>   13.3710    0.0000 </r>
       <r>   13.6105    0.0000 </r>
       <r>   13.9274    0.0000 </r>
       <r>   20.4617    0.0000 </r>
       <r>   20.9159    0.0000 </r>
       <r>   21.1270    0.0000 </r>
       <r>   21.1528    0.0000 </r>
       <r>   21.5674    0.0000 </r>
       <r>   23.2471    0.0000 </r>
      </set>
      <set comment="kpoint 75">
       <r>   -2.6443    1.0000 </r>
       <r>   -0.9629    1.0000 </r>
       <r>    1.4769    1.0000 </r>
       <r>    3.6983    1.0000 </r>
       <r>    7.2743   -0.0000 </r>
       <r>   11.2392   -0.0000 </r>
       <r>   12.4148    0.0000 </r>
       <r>   12.9990    0.0000 </r>
       <r>   13.3018    0.0000 </r>
       <r>   13.6026    0.0000 </r>
       <r>   20.2286    0.0000 </r>
       <r>   20.7736    0.0000 </r>
       <r>   21.2300    0.0000 </r>
       <r>   21.2322    0.0000 </r>
       <r>   22.0093    0.0000 </r>
       <r>   23.6627    0.0000 </r>
      </set>
      <set comment="kpoint 76">
       <r>   -2.8547    1.0000 </r>
       <r>   -0.7626    1.0000 </r>
       <r>    1.4985    1.0000 </r>
       <r>    3.8333    1.0000 </r>
       <r>    7.4283   -0.0000 </r>
       <r>   11.8433    0.0000 </r>
       <r>   12.0477    0.0000 </r>
       <r>   12.7210    0.0000 </r>
       <r>   13.0048    0.0000 </r>
       <r>   13.2982    0.0000 </r>
       <r>   19.8821    0.0000 </r>
       <r>   20.4033    0.0000 </r>
       <r>   21.4195    0.0000 </r>
       <r>   21.5334    0.0000 </r>
       <r>   22.4381    0.0000 </r>
       <r>   22.9016    0.0000 </r>
      </set>
      <set comment="kpoint 77">
       <r>   -3.0820    1.0000 </r>
       <r>   -0.5432    1.0000 </r>
       <r>    1.5672    1.0000 </r>
       <r>    3.9773    1.0000 </r>
       <r>    7.5917   -0.0000 </r>
       <r>   11.6955    0.0000 </r>
       <r>   12.0007    0.0000 </r>
       <r>   12.7226    0.0000 </r>
       <r>   12.9177    0.0000 </r>
       <r>   13.0163    0.0000 </r>
       <r>   19.5236    0.0000 </r>
       <r>   20.0526    0.0000 </r>
       <r>   21.4070    0.0000 </r>
       <r>   21.8257    0.0000 </r>
       <r>   22.3735    0.0000 </r>
       <r>   22.8540    0.0000 </r>
      </set>
      <set comment="kpoint 78">
       <r>   -3.3197    1.0000 </r>
       <r>   -0.3048    1.0000 </r>
       <r>    1.6775    1.0000 </r>
       <r>    4.1288    1.0000 </r>
       <r>    7.7621   -0.0000 </r>
       <r>   11.3589   -0.0000 </r>
       <r>   11.7457    0.0000 </r>
       <r>   12.4583    0.0000 </r>
       <r>   12.7592    0.0000 </r>
       <r>   13.5482    0.0000 </r>
       <r>   19.1737    0.0000 </r>
       <r>   19.7289    0.0000 </r>
       <r>   20.8794    0.0000 </r>
       <r>   22.1048    0.0000 </r>
       <r>   22.3773    0.0000 </r>
       <r>   23.2588    0.0000 </r>
      </set>
      <set comment="kpoint 79">
       <r>   -3.5622    1.0000 </r>
       <r>   -0.0475    1.0000 </r>
       <r>    1.8241    1.0000 </r>
       <r>    4.2859    1.0000 </r>
       <r>    7.9362   -0.0000 </r>
       <r>   11.0386   -0.0000 </r>
       <r>   11.4389   -0.0000 </r>
       <r>   12.2153    0.0000 </r>
       <r>   12.5290    0.0000 </r>
       <r>   14.2407    0.0000 </r>
       <r>   18.8372    0.0000 </r>
       <r>   19.4424    0.0000 </r>
       <r>   20.1402    0.0000 </r>
       <r>   22.3652    0.0000 </r>
       <r>   22.6089    0.0000 </r>
       <r>   23.3185    0.0000 </r>
[...]
       </set>
       <set comment="band 12">
        <r>  0.0129  0.0006  0.0092  0.0092  0.0000  0.0000  0.0000  0.0000  0.0000 </r>
        <r>  0.0129  0.0006  0.0092  0.0092  0.0000  0.0000  0.0000  0.0000  0.0000 </r>
       </set>
       <set comment="band 13">
        <r>  0.0008  0.0347  0.0008  0.0008  0.0000  0.0000  0.0000  0.0000  0.0000 </r>
        <r>  0.0008  0.0347  0.0008  0.0008  0.0000  0.0000  0.0000  0.0000  0.0000 </r>
       </set>
       <set comment="band 14">
        <r>  0.0000  0.0000  0.0173  0.0173  0.0000  0.0000  0.0000  0.0000  0.0000 </r>
        <r>  0.0000  0.0000  0.0173  0.0173  0.0000  0.0000  0.0000  0.0000  0.0000 </r>
       </set>
       <set comment="band 15">
        <r>  0.0240  0.0004  0.0084  0.0084  0.0000  0.0000  0.0000  0.0000  0.0000 </r>
        <r>  0.0240  0.0004  0.0084  0.0084  0.0000  0.0000  0.0000  0.0000  0.0000 </r>
       </set>
       <set comment="band 16">
        <r>  0.0036  0.0051  0.0274  0.0274  0.0000  0.0000  0.0000  0.0000  0.0000 </r>
        <r>  0.0036  0.0050  0.0274  0.0274  0.0000  0.0000  0.0000  0.0000  0.0000 </r>
       </set>
      </set>
      <set comment="kpoint 92">
       <set comment="band 1">
        <r>  0.2092  0.0000  0.0008  0.0008  0.0000  0.0000  0.0000  0.0000  0.0000 </r>
        <r>  0.2092  0.0000  0.0008  0.0008  0.0000  0.0000  0.0000  0.0000  0.0000 </r>
       </set>
       <set comment="band 2">
        <r>  0.0597  0.0198  0.0717  0.0717  0.0000  0.0000  0.0000  0.0000  0.0000 </r>
        <r>  0.0597  0.0198  0.0717  0.0717  0.0000  0.0000  0.0000  0.0000  0.0000 </r>
       </set>
       <set comment="band 3">
        <r>  0.0015  0.1655  0.0165  0.0165  0.0000  0.0000  0.0000  0.0000  0.0000 </r>
        <r>  0.0015  0.1655  0.0165  0.0165  0.0000  0.0000  0.0000  0.0000  0.0000 </r>
       </set>
       <set comment="band 4">
        <r>  0.0000  0.0000  0.1074  0.1074  0.0000  0.0000  0.0000  0.0000  0.0000 </r>
        <r>  0.0000  0.0000  0.1074  0.1074  0.0000  0.0000  0.0000  0.0000  0.0000 </r>
       </set>
       <set comment="band 5">
        <r>  0.0000  0.0000  0.0743  0.0743  0.0000  0.0000  0.0000  0.0000  0.0000 </r>
        <r>  0.0000  0.0000  0.0743  0.0743  0.0000  0.0000  0.0000  0.0000  0.0000 </r>
       </set>
       <set comment="band 6">
        <r>  0.0117  0.0473  0.0474  0.0474  0.0000  0.0000  0.0000  0.0000  0.0000 </r>
        <r>  0.0117  0.0473  0.0474  0.0474  0.0000  0.0000  0.0000  0.0000  0.0000 </r>
       </set>
       <set comment="band 7">
        <r>  0.0807  0.1115  0.0012  0.0012  0.0000  0.0000  0.0000  0.0000  0.0000 </r>
        <r>  0.0807  0.1115  0.0012  0.0012  0.0000  0.0000  0.0000  0.0000  0.0000 </r>
       </set>
       <set comment="band 8">
        <r>  0.2112  0.0156  0.0365  0.0365  0.0000  0.0000  0.0000  0.0000  0.0000 </r>
        <r>  0.2112  0.0156  0.0365  0.0365  0.0000  0.0000  0.0000  0.0000  0.0000 </r>
       </set>
       <set comment="band 9">
        <r>  0.0000  0.0000  0.0006  0.0006  0.0000  0.0000  0.0000  0.0000  0.0000 </r>
        <r>  0.0000  0.0000  0.0006  0.0006  0.0000  0.0000  0.0000  0.0000  0.0000 </r>
       </set>
       <set comment="band 10">
        <r>  0.0027  0.0011  0.0001  0.0001  0.0000  0.0000  0.0000  0.0000  0.0000 </r>
        <r>  0.0027  0.0011  0.0001  0.0001  0.0000  0.0000  0.0000  0.0000  0.0000 </r>
       </set>
       <set comment="band 11">
        <r>  0.0856  0.0014  0.0115  0.0115  0.0000  0.0000  0.0000  0.0000  0.0000 </r>
        <r>  0.0856  0.0014  0.0115  0.0115  0.0000  0.0000  0.0000  0.0000  0.0000 </r>
       </set>
       <set comment="band 12">
        <r>  0.0099  0.0004  0.0119  0.0119  0.0000  0.0000  0.0000  0.0000  0.0000 </r>
        <r>  0.0099  0.0004  0.0119  0.0119  0.0000  0.0000  0.0000  0.0000  0.0000 </r>
       </set>
       <set comment="band 13">
        <r>  0.0003  0.0367  0.0004  0.0004  0.0000  0.0000  0.0000  0.0000  0.0000 </r>
        <r>  0.0003  0.0367  0.0004  0.0004  0.0000  0.0000  0.0000  0.0000  0.0000 </r>
       </set>
       <set comment="band 14">
        <r>  0.0000  0.0000  0.0178  0.0178  0.0000  0.0000  0.0000  0.0000  0.0000 </r>
        <r>  0.0000  0.0000  0.0178  0.0178  0.0000  0.0000  0.0000  0.0000  0.0000 </r>
       </set>
       <set comment="band 15">
        <r>  0.0280  0.0001  0.0061  0.0061  0.0000  0.0000  0.0000  0.0000  0.0000 </r>
        <r>  0.0280  0.0001  0.0061  0.0061  0.0000  0.0000  0.0000  0.0000  0.0000 </r>
       </set>
       <set comment="band 16">
        <r>  0.0022  0.0064  0.0251  0.0250  0.0000  0.0000  0.0000  0.0000  0.0000 </r>
        <r>  0.0022  0.0054  0.0255  0.0256  0.0000  0.0000  0.0000  0.0000  0.0000 </r>
       </set>
      </set>
      <set comment="kpoint 93">
       <set comment="band 1">
        <r>  0.2095  0.0000  0.0004  0.0004  0.0000  0.0000  0.0000  0.0000  0.0000 </r>
        <r>  0.2095  0.0000  0.0004  0.0004  0.0000  0.0000  0.0000  0.0000  0.0000 </r>
       </set>
       <set comment="band 2">
        <r>  0.0435  0.0152  0.0807  0.0807  0.0000  0.0000  0.0000  0.0000  0.0000 </r>
        <r>  0.0435  0.0152  0.0807  0.0807  0.0000  0.0000  0.0000  0.0000  0.0000 </r>
       </set>
       <set comment="band 3">
        <r>  0.0006  0.1813  0.0112  0.0112  0.0000  0.0000  0.0000  0.0000  0.0000 </r>
        <r>  0.0006  0.1813  0.0112  0.0112  0.0000  0.0000  0.0000  0.0000  0.0000 </r>
       </set>
       <set comment="band 4">
        <r>  0.0000  0.0000  0.1070  0.1070  0.0000  0.0000  0.0000  0.0000  0.0000 </r>
        <r>  0.0000  0.0000  0.1070  0.1070  0.0000  0.0000  0.0000  0.0000  0.0000 </r>
       </set>
       <set comment="band 5">
        <r>  0.0000  0.0000  0.0743  0.0743  0.0000  0.0000  0.0000  0.0000  0.0000 </r>
        <r>  0.0000  0.0000  0.0743  0.0743  0.0000  0.0000  0.0000  0.0000  0.0000 </r>
       </set>
       <set comment="band 6">
        <r>  0.0075  0.0316  0.0567  0.0567  0.0000  0.0000  0.0000  0.0000  0.0000 </r>
        <r>  0.0075  0.0316  0.0567  0.0567  0.0000  0.0000  0.0000  0.0000  0.0000 </r>
       </set>
       <set comment="band 7">
        <r>  0.0561  0.1209  0.0021  0.0021  0.0000  0.0000  0.0000  0.0000  0.0000 </r>
        <r>  0.0561  0.1209  0.0021  0.0021  0.0000  0.0000  0.0000  0.0000  0.0000 </r>
       </set>
       <set comment="band 8">
        <r>  0.2549  0.0120  0.0252  0.0252  0.0000  0.0000  0.0000  0.0000  0.0000 </r>
        <r>  0.2549  0.0120  0.0252  0.0252  0.0000  0.0000  0.0000  0.0000  0.0000 </r>
       </set>
       <set comment="band 9">
        <r>  0.0000  0.0000  0.0006  0.0006  0.0000  0.0000  0.0000  0.0000  0.0000 </r>
        <r>  0.0000  0.0000  0.0006  0.0006  0.0000  0.0000  0.0000  0.0000  0.0000 </r>
       </set>
       <set comment="band 10">
        <r>  0.0008  0.0003  0.0002  0.0002  0.0000  0.0000  0.0000  0.0000  0.0000 </r>
        <r>  0.0008  0.0003  0.0002  0.0002  0.0000  0.0000  0.0000  0.0000  0.0000 </r>
       </set>
       <set comment="band 11">
        <r>  0.0923  0.0005  0.0070  0.0070  0.0000  0.0000  0.0000  0.0000  0.0000 </r>
        <r>  0.0923  0.0005  0.0070  0.0070  0.0000  0.0000  0.0000  0.0000  0.0000 </r>
       </set>
       <set comment="band 12">
        <r>  0.0066  0.0003  0.0147  0.0147  0.0000  0.0000  0.0000  0.0000  0.0000 </r>
        <r>  0.0066  0.0003  0.0147  0.0147  0.0000  0.0000  0.0000  0.0000  0.0000 </r>
       </set>
       <set comment="band 13">
        <r>  0.0001  0.0380  0.0002  0.0002  0.0000  0.0000  0.0000  0.0000  0.0000 </r>
        <r>  0.0001  0.0380  0.0002  0.0002  0.0000  0.0000  0.0000  0.0000  0.0000 </r>
       </set>
       <set comment="band 14">
        <r>  0.0000  0.0000  0.0183  0.0183  0.0000  0.0000  0.0000  0.0000  0.0000 </r>
        <r>  0.0000  0.0000  0.0183  0.0183  0.0000  0.0000  0.0000  0.0000  0.0000 </r>
       </set>
       <set comment="band 15">
        <r>  0.0318  0.0000  0.0039  0.0039  0.0000  0.0000  0.0000  0.0000  0.0000 </r>
        <r>  0.0318  0.0000  0.0039  0.0039  0.0000  0.0000  0.0000  0.0000  0.0000 </r>
       </set>
       <set comment="band 16">
        <r>  0.0011  0.0065  0.0213  0.0222  0.0000  0.0000  0.0000  0.0000  0.0000 </r>
        <r>  0.0011  0.0074  0.0213  0.0212  0.0000  0.0000  0.0000  0.0000  0.0000 </r>
       </set>
      </set>
      <set comment="kpoint 94">
       <set comment="band 1">
        <r>  0.2097  0.0000  0.0002  0.0002  0.0000  0.0000  0.0000  0.0000  0.0000 </r>
        <r>  0.2097  0.0000  0.0002  0.0002  0.0000  0.0000  0.0000  0.0000  0.0000 </r>
       </set>
       <set comment="band 2">
        <r>  0.0253  0.0093  0.0912  0.0912  0.0000  0.0000  0.0000  0.0000  0.0000 </r>
        <r>  0.0253  0.0093  0.0912  0.0912  0.0000  0.0000  0.0000  0.0000  0.0000 </r>
       </set>
       <set comment="band 3">
        <r>  0.0002  0.1966  0.0059  0.0059  0.0000  0.0000  0.0000  0.0000  0.0000 </r>
        <r>  0.0002  0.1966  0.0059  0.0059  0.0000  0.0000  0.0000  0.0000  0.0000 </r>
       </set>
       <set comment="band 4">
        <r>  0.0000  0.0000  0.1066  0.1066  0.0000  0.0000  0.0000  0.0000  0.0000 </r>
        <r>  0.0000  0.0000  0.1066  0.1066  0.0000  0.0000  0.0000  0.0000  0.0000 </r>
       </set>
       <set comment="band 5">
        <r>  0.0000  0.0000  0.0744  0.0744  0.0000  0.0000  0.0000  0.0000  0.0000 </r>
        <r>  0.0000  0.0000  0.0744  0.0744  0.0000  0.0000  0.0000  0.0000  0.0000 </r>
       </set>
       <set comment="band 6">
        <r>  0.0037  0.0163  0.0655  0.0655  0.0000  0.0000  0.0000  0.0000  0.0000 </r>
        <r>  0.0037  0.0163  0.0655  0.0655  0.0000  0.0000  0.0000  0.0000  0.0000 </r>
       </set>
       <set comment="band 7">
        <r>  0.0235  0.1340  0.0030  0.0030  0.0000  0.0000  0.0000  0.0000  0.0000 </r>
        <r>  0.0235  0.1340  0.0030  0.0030  0.0000  0.0000  0.0000  0.0000  0.0000 </r>
       </set>
       <set comment="band 8">
        <r>  0.3074  0.0053  0.0130  0.0130  0.0000  0.0000  0.0000  0.0000  0.0000 </r>
        <r>  0.3074  0.0053  0.0130  0.0130  0.0000  0.0000  0.0000  0.0000  0.0000 </r>
       </set>
       <set comment="band 9">
        <r>  0.0000  0.0000  0.0004  0.0004  0.0000  0.0000  0.0000  0.0000  0.0000 </r>
        <r>  0.0000  0.0000  0.0004  0.0004  0.0000  0.0000  0.0000  0.0000  0.0000 </r>
       </set>
       <set comment="band 10">
        <r>  0.0002  0.0001  0.0001  0.0001  0.0000  0.0000  0.0000  0.0000  0.0000 </r>
        <r>  0.0002  0.0001  0.0001  0.0001  0.0000  0.0000  0.0000  0.0000  0.0000 </r>
       </set>
       <set comment="band 11">
        <r>  0.0976  0.0001  0.0033  0.0033  0.0000  0.0000  0.0000  0.0000  0.0000 </r>
        <r>  0.0976  0.0001  0.0033  0.0033  0.0000  0.0000  0.0000  0.0000  0.0000 </r>
       </set>
       <set comment="band 12">
        <r>  0.0033  0.0001  0.0172  0.0172  0.0000  0.0000  0.0000  0.0000  0.0000 </r>
        <r>  0.0033  0.0001  0.0172  0.0172  0.0000  0.0000  0.0000  0.0000  0.0000 </r>
       </set>
       <set comment="band 13">
        <r>  0.0000  0.0389  0.0001  0.0001  0.0000  0.0000  0.0000  0.0000  0.0000 </r>
        <r>  0.0000  0.0389  0.0001  0.0001  0.0000  0.0000  0.0000  0.0000  0.0000 </r>
       </set>
       <set comment="band 14">
        <r>  0.0000  0.0000  0.0189  0.0189  0.0000  0.0000  0.0000  0.0000  0.0000 </r>
        <r>  0.0000  0.0000  0.0189  0.0189  0.0000  0.0000  0.0000  0.0000  0.0000 </r>
       </set>
       <set comment="band 15">
        <r>  0.0353  0.0000  0.0019  0.0019  0.0000  0.0000  0.0000  0.0000  0.0000 </r>
        <r>  0.0353  0.0000  0.0019  0.0019  0.0000  0.0000  0.0000  0.0000  0.0000 </r>
       </set>
       <set comment="band 16">
        <r>  0.0004  0.0108  0.0148  0.0132  0.0000  0.0000  0.0000  0.0000  0.0000 </r>
        <r>  0.0003  0.0171  0.0110  0.0109  0.0000  0.0000  0.0000  0.0000  0.0000 </r>
       </set>
      </set>
      <set comment="kpoint 95">
       <set comment="band 1">
        <r>  0.2098  0.0000  0.0000  0.0000  0.0000  0.0000  0.0000  0.0000  0.0000 </r>
        <r>  0.2098  0.0000  0.0000  0.0000  0.0000  0.0000  0.0000  0.0000  0.0000 </r>
       </set>
       <set comment="band 2">
        <r>  0.0079  0.0031  0.1015  0.1015  0.0000  0.0000  0.0000  0.0000  0.0000 </r>
        <r>  0.0079  0.0031  0.1015  0.1015  0.0000  0.0000  0.0000  0.0000  0.0000 </r>
       </set>
       <set comment="band 3">
        <r>  0.0000  0.2082  0.0016  0.0016  0.0000  0.0000  0.0000  0.0000  0.0000 </r>
        <r>  0.0000  0.2082  0.0016  0.0016  0.0000  0.0000  0.0000  0.0000  0.0000 </r>
       </set>
       <set comment="band 4">
        <r>  0.0000  0.0000  0.1064  0.1064  0.0000  0.0000  0.0000  0.0000  0.0000 </r>
        <r>  0.0000  0.0000  0.1064  0.1064  0.0000  0.0000  0.0000  0.0000  0.0000 </r>
       </set>
       <set comment="band 5">
        <r>  0.0000  0.0000  0.0744  0.0744  0.0000  0.0000  0.0000  0.0000  0.0000 </r>
        <r>  0.0000  0.0000  0.0744  0.0744  0.0000  0.0000  0.0000  0.0000  0.0000 </r>
       </set>
       <set comment="band 6">
        <r>  0.0010  0.0045  0.0720  0.0720  0.0000  0.0000  0.0000  0.0000  0.0000 </r>
        <r>  0.0010  0.0045  0.0720  0.0720  0.0000  0.0000  0.0000  0.0000  0.0000 </r>
       </set>
       <set comment="band 7">
        <r>  0.0024  0.1452  0.0017  0.0017  0.0000  0.0000  0.0000  0.0000  0.0000 </r>
        <r>  0.0024  0.1452  0.0017  0.0017  0.0000  0.0000  0.0000  0.0000  0.0000 </r>
       </set>
       <set comment="band 8">
        <r>  0.3465  0.0005  0.0033  0.0033  0.0000  0.0000  0.0000  0.0000  0.0000 </r>
        <r>  0.3465  0.0005  0.0033  0.0033  0.0000  0.0000  0.0000  0.0000  0.0000 </r>
       </set>
       <set comment="band 9">
        <r>  0.0000  0.0000  0.0001  0.0001  0.0000  0.0000  0.0000  0.0000  0.0000 </r>
        <r>  0.0000  0.0000  0.0001  0.0001  0.0000  0.0000  0.0000  0.0000  0.0000 </r>
       </set>
       <set comment="band 10">
        <r>  0.0000  0.0000  0.0000  0.0000  0.0000  0.0000  0.0000  0.0000  0.0000 </r>
        <r>  0.0000  0.0000  0.0000  0.0000  0.0000  0.0000  0.0000  0.0000  0.0000 </r>
       </set>
       <set comment="band 11">
        <r>  0.1010  0.0000  0.0009  0.0009  0.0000  0.0000  0.0000  0.0000  0.0000 </r>
        <r>  0.1010  0.0000  0.0009  0.0009  0.0000  0.0000  0.0000  0.0000  0.0000 </r>
       </set>
       <set comment="band 12">
        <r>  0.0009  0.0000  0.0191  0.0191  0.0000  0.0000  0.0000  0.0000  0.0000 </r>
        <r>  0.0009  0.0000  0.0191  0.0191  0.0000  0.0000  0.0000  0.0000  0.0000 </r>
       </set>
       <set comment="band 13">
        <r>  0.0000  0.0393  0.0000  0.0000  0.0000  0.0000  0.0000  0.0000  0.0000 </r>
        <r>  0.0000  0.0393  0.0000  0.0000  0.0000  0.0000  0.0000  0.0000  0.0000 </r>
       </set>
       <set comment="band 14">
        <r>  0.0000  0.0000  0.0195  0.0195  0.0000  0.0000  0.0000  0.0000  0.0000 </r>
        <r>  0.0000  0.0000  0.0195  0.0195  0.0000  0.0000  0.0000  0.0000  0.0000 </r>
       </set>
       <set comment="band 15">
        <r>  0.0377  0.0000  0.0005  0.0005  0.0000  0.0000  0.0000  0.0000  0.0000 </r>
        <r>  0.0377  0.0000  0.0005  0.0005  0.0000  0.0000  0.0000  0.0000  0.0000 </r>
       </set>
       <set comment="band 16">
        <r>  0.0000  0.0052  0.0012  0.0083  0.0000  0.0000  0.0000  0.0000  0.0000 </r>
        <r>  0.0000  0.0054  0.0028  0.0076  0.0000  0.0000  0.0000  0.0000  0.0000 </r>
       </set>
      </set>
      <set comment="kpoint 96">
       <set comment="band 1">
        <r>  0.2099  0.0000  0.0000  0.0000  0.0000  0.0000  0.0000  0.0000  0.0000 </r>
        <r>  0.2099  0.0000  0.0000  0.0000  0.0000  0.0000  0.0000  0.0000  0.0000 </r>
       </set>
       <set comment="band 2">
        <r>  0.0000  0.0472  0.0787  0.0867  0.0000  0.0000  0.0000  0.0000  0.0000 </r>
        <r>  0.0000  0.0472  0.0787  0.0867  0.0000  0.0000  0.0000  0.0000  0.0000 </r>
       </set>
       <set comment="band 3">
        <r>  0.0000  0.1603  0.0092  0.0431  0.0000  0.0000  0.0000  0.0000  0.0000 </r>
        <r>  0.0000  0.1603  0.0092  0.0431  0.0000  0.0000  0.0000  0.0000  0.0000 </r>
       </set>
       <set comment="band 4">
        <r>  0.0000  0.0051  0.1247  0.0829  0.0000  0.0000  0.0000  0.0000  0.0000 </r>
        <r>  0.0000  0.0051  0.1247  0.0829  0.0000  0.0000  0.0000  0.0000  0.0000 </r>
       </set>
       <set comment="band 5">
        <r>  0.0000  0.0496  0.0496  0.0496  0.0000  0.0000  0.0000  0.0000  0.0000 </r>
        <r>  0.0000  0.0496  0.0496  0.0496  0.0000  0.0000  0.0000  0.0000  0.0000 </r>
       </set>
       <set comment="band 6">
        <r>  0.0000  0.0323  0.0183  0.0983  0.0000  0.0000  0.0000  0.0000  0.0000 </r>
        <r>  0.0000  0.0323  0.0183  0.0983  0.0000  0.0000  0.0000  0.0000  0.0000 </r>
       </set>
       <set comment="band 7">
        <r>  0.0000  0.0670  0.0810  0.0009  0.0000  0.0000  0.0000  0.0000  0.0000 </r>
        <r>  0.0000  0.0670  0.0810  0.0009  0.0000  0.0000  0.0000  0.0000  0.0000 </r>
       </set>
       <set comment="band 8">
        <r>  0.3571  0.0000  0.0000  0.0000  0.0000  0.0000  0.0000  0.0000  0.0000 </r>
        <r>  0.3571  0.0000  0.0000  0.0000  0.0000  0.0000  0.0000  0.0000  0.0000 </r>
       </set>
       <set comment="band 9">
        <r>  0.0000  0.0000  0.0000  0.0000  0.0000  0.0000  0.0000  0.0000  0.0000 </r>
        <r>  0.0000  0.0000  0.0000  0.0000  0.0000  0.0000  0.0000  0.0000  0.0000 </r>
       </set>
       <set comment="band 10">
        <r>  0.0000  0.0000  0.0000  0.0000  0.0000  0.0000  0.0000  0.0000  0.0000 </r>
        <r>  0.0000  0.0000  0.0000  0.0000  0.0000  0.0000  0.0000  0.0000  0.0000 </r>
       </set>
       <set comment="band 11">
        <r>  0.1022  0.0000  0.0000  0.0000  0.0000  0.0000  0.0000  0.0000  0.0000 </r>
        <r>  0.1022  0.0000  0.0000  0.0000  0.0000  0.0000  0.0000  0.0000  0.0000 </r>
       </set>
       <set comment="band 12">
        <r>  0.0000  0.0001  0.0160  0.0233  0.0000  0.0000  0.0000  0.0000  0.0000 </r>
        <r>  0.0000  0.0001  0.0160  0.0233  0.0000  0.0000  0.0000  0.0000  0.0000 </r>
       </set>
       <set comment="band 13">
        <r>  0.0000  0.0382  0.0004  0.0009  0.0000  0.0000  0.0000  0.0000  0.0000 </r>
        <r>  0.0000  0.0382  0.0004  0.0009  0.0000  0.0000  0.0000  0.0000  0.0000 </r>
       </set>
       <set comment="band 14">
        <r>  0.0000  0.0012  0.0231  0.0153  0.0000  0.0000  0.0000  0.0000  0.0000 </r>
        <r>  0.0000  0.0012  0.0231  0.0153  0.0000  0.0000  0.0000  0.0000  0.0000 </r>
       </set>
       <set comment="band 15">
        <r>  0.0386  0.0000  0.0000  0.0000  0.0000  0.0000  0.0000  0.0000  0.0000 </r>
        <r>  0.0386  0.0000  0.0000  0.0000  0.0000  0.0000  0.0000  0.0000  0.0000 </r>
       </set>
       <set comment="band 16">
        <r>  0.0000  0.0002  0.0037  0.0060  0.0000  0.0000  0.0000  0.0000  0.0000 </r>
        <r>  0.0000  0.0002  0.0037  0.0059  0.0000  0.0000  0.0000  0.0000  0.0000 </r>
       </set>
      </set>
     </set>
    </set>
   </array>
  </projected>
 </calculation>
 <structure name="finalpos" >
  <crystal>
   <varray name="basis" >
    <v>       0.00000000       2.73400000       2.73400000 </v>
    <v>       2.73400000       0.00000000       2.73400000 </v>
    <v>       2.73400000       2.73400000       0.00000000 </v>
   </varray>
   <i name="volume">     40.87196581 </i>
   <varray name="rec_basis" >
    <v>      -0.18288222       0.18288222       0.18288222 </v>
    <v>       0.18288222      -0.18288222       0.18288222 </v>
    <v>       0.18288222       0.18288222      -0.18288222 </v>
   </varray>
  </crystal>
  <varray name="positions" >
   <v>       0.87500000       0.87500000       0.87500000 </v>
   <v>       0.12500000       0.12500000       0.12500000 </v>
  </varray>
 </structure>
</modeling>
