[1537873936.506760] [r8n3:19898:0]         sys.c:744  MXM  WARN  Conflicting CPU frequencies detected, using: 2499.99
[1537873936.514455] [r8n3:19898:0]         mxm.c:196  MXM  WARN  The 'ulimit -s' on the system is set to 'unlimited'. This may have negative performance implications. Please set the stack size to the default value (10240) 
[1537873936.517146] [r8n3:19898:0]         mxm.c:196  MXM  WARN  The 'ulimit -s' on the system is set to 'unlimited'. This may have negative performance implications. Please set the stack size to the default value (10240) 
 argument  1 = -
                                         
                                         


              Northwest Computational Chemistry Package (NWChem) 6.6
              ------------------------------------------------------


                    Environmental Molecular Sciences Laboratory
                       Pacific Northwest National Laboratory
                                Richland, WA 99352

                              Copyright (c) 1994-2015
                       Pacific Northwest National Laboratory
                            Battelle Memorial Institute

             NWChem is an open-source computational chemistry package
                        distributed under the terms of the
                      Educational Community License (ECL) 2.0
             A copy of the license is included with this distribution
                              in the LICENSE.TXT file

                                  ACKNOWLEDGMENT
                                  --------------

            This software and its documentation were developed at the
            EMSL at Pacific Northwest National Laboratory, a multiprogram
            national laboratory, operated for the U.S. Department of Energy
            by Battelle under Contract Number DE-AC05-76RL01830. Support
            for this work was provided by the Department of Energy Office
            of Biological and Environmental Research, Office of Basic
            Energy Sciences, and the Office of Advanced Scientific Computing.


           Job information
           ---------------

    hostname        = r8n3.niserhpc.org
    program         = /home/bikashp/Code/nwchem-6.6_revtpss/bin/LINUX64/nwchem
    date            = Tue Sep 25 16:42:16 2018

    compiled        = Tue_Sep_25_16:36:43_2018
    source          = /home/bikashp/Code/nwchem-6.6_revtpss
    nwchem branch   = 6.6
    nwchem revision = 27746
    ga revision     = 10594
    input           = nwchem.nw
    prefix          = C3H4_Propyne.
    data base       = ./C3H4_Propyne.db
    status          = startup
    nproc           =        1
    time left       =     -1s



           Memory information
           ------------------

    heap     =   13107196 doubles =    100.0 Mbytes
    stack    =   13107201 doubles =    100.0 Mbytes
    global   =   26214400 doubles =    200.0 Mbytes (distinct from heap & stack)
    total    =   52428797 doubles =    400.0 Mbytes
    verify   = yes
    hardfail = no 


           Directory information
           ---------------------

  0 permanent = .
  0 scratch   = .




                                NWChem Input Module
                                -------------------



 Scaling coordinates for geometry "geometry" by  1.889725989
 (inverse scale =  0.529177249)

 C3V symmetry detected

          ------
          auto-z
          ------
  Looking for out-of-plane bends


                             Geometry "geometry" -> ""
                             -------------------------

 Output coordinates in angstroms (scale by  1.889725989 to convert to a.u.)

  No.       Tag          Charge          X              Y              Z
 ---- ---------------- ---------- -------------- -------------- --------------
    1 C                    6.0000    -0.00000000    -0.00000000     0.21494736
    2 C                    6.0000    -0.00000000    -0.00000000     1.43313036
    3 C                    6.0000     0.00000000     0.00000000    -1.24647564
    4 H                    1.0000     0.00000000     0.00000000     2.49888736
    5 H                    1.0000     0.72205823     0.72205823    -1.63616664
    6 H                    1.0000     0.26429165    -0.98634988    -1.63616664
    7 H                    1.0000    -0.98634988     0.26429165    -1.63616664

      Atomic Mass 
      ----------- 

      C                 12.000000
      H                  1.007825


 Effective nuclear repulsion energy (a.u.)      58.4358113982

            Nuclear Dipole moment (a.u.) 
            ----------------------------
        X                 Y               Z
 ---------------- ---------------- ----------------
     0.0000000000     0.0000000000     0.0000000000

      Symmetry information
      --------------------

 Group name             C3v       
 Group number             17
 Group order               6
 No. of unique centers     5

      Symmetry unique atoms

     1    2    3    4    5



                                Z-matrix (autoz)
                                -------- 

 Units are Angstrom for bonds and degrees for angles

      Type          Name      I     J     K     L     M      Value
      ----------- --------  ----- ----- ----- ----- ----- ----------
    1 Stretch                  1     2                       1.21818
    2 Stretch                  1     3                       1.46142
    3 Stretch                  2     4                       1.06576
    4 Stretch                  3     5                       1.09298
    5 Stretch                  3     6                       1.09298
    6 Stretch                  3     7                       1.09298
    7 Bend                     1     3     5               110.88794
    8 Bend                     1     3     6               110.88794
    9 Bend                     1     3     7               110.88794
   10 Bend                     2     3     5               110.88794
   11 Bend                     2     3     6               110.88794
   12 Bend                     2     3     7               110.88794
   13 Bend                     4     3     5               110.88794
   14 Bend                     4     3     6               110.88794
   15 Bend                     4     3     7               110.88794
   16 Bend                     5     3     6               108.01809
   17 Bend                     5     3     7               108.01809
   18 Bend                     6     3     7               108.01809
   19 Torsion                  3     5     2     4         180.00000
   20 Torsion                  3     6     2     4        -180.00000
   21 Torsion                  3     7     2     4        -180.00000
   22 Torsion                  2     1     5     3        -180.00000
   23 Torsion                  2     1     6     3        -180.00000
   24 Torsion                  2     1     7     3        -180.00000


            XYZ format geometry
            -------------------
     7
 geometry
 C                    -0.00000000    -0.00000000     0.21494736
 C                    -0.00000000    -0.00000000     1.43313036
 C                     0.00000000     0.00000000    -1.24647564
 H                     0.00000000     0.00000000     2.49888736
 H                     0.72205823     0.72205823    -1.63616664
 H                     0.26429165    -0.98634988    -1.63616664
 H                    -0.98634988     0.26429165    -1.63616664

 ==============================================================================
                                internuclear distances
 ------------------------------------------------------------------------------
       center one      |      center two      | atomic units |  angstroms
 ------------------------------------------------------------------------------
    2 C                |   1 C                |     2.30203  |     1.21818
    3 C                |   1 C                |     2.76169  |     1.46142
    4 H                |   2 C                |     2.01399  |     1.06576
    5 H                |   3 C                |     2.06542  |     1.09298
    6 H                |   3 C                |     2.06542  |     1.09298
    7 H                |   3 C                |     2.06542  |     1.09298
 ------------------------------------------------------------------------------
                         number of included internuclear distances:          6
 ==============================================================================



 ==============================================================================
                                 internuclear angles
 ------------------------------------------------------------------------------
        center 1       |       center 2       |       center 3       |  degrees
 ------------------------------------------------------------------------------
    2 C                |   1 C                |   3 C                |   180.00
    1 C                |   2 C                |   4 H                |   180.00
    1 C                |   3 C                |   5 H                |   110.89
    1 C                |   3 C                |   6 H                |   110.89
    1 C                |   3 C                |   7 H                |   110.89
    5 H                |   3 C                |   6 H                |   108.02
    5 H                |   3 C                |   7 H                |   108.02
    6 H                |   3 C                |   7 H                |   108.02
 ------------------------------------------------------------------------------
                            number of included internuclear angles:          8
 ==============================================================================





 Summary of "ao basis" -> "" (cartesian)
 ------------------------------------------------------------------------------
       Tag                 Description            Shells   Functions and Types
 ---------------- ------------------------------  ------  ---------------------
 *                     6-311++G(3df,3pd)              on all atoms 



                                 NWChem DFT Module
                                 -----------------


                      Basis "ao basis" -> "ao basis" (cartesian)
                      -----
  C (Carbon)
  ----------
            Exponent  Coefficients 
       -------------- ---------------------------------------------------------
  1 S  4.56324000E+03  0.001967
  1 S  6.82024000E+02  0.015231
  1 S  1.54973000E+02  0.076127
  1 S  4.44553000E+01  0.260801
  1 S  1.30290000E+01  0.616462
  1 S  1.82773000E+00  0.221006

  2 S  2.09642000E+01  0.114660
  2 S  4.80331000E+00  0.919999
  2 S  1.45933000E+00 -0.003031

  3 P  2.09642000E+01  0.040249
  3 P  4.80331000E+00  0.237594
  3 P  1.45933000E+00  0.815854

  4 S  4.83456000E-01  1.000000

  5 P  4.83456000E-01  1.000000

  6 S  1.45585000E-01  1.000000

  7 P  1.45585000E-01  1.000000

  8 S  4.38000000E-02  1.000000

  9 P  4.38000000E-02  1.000000

 10 D  2.50400000E+00  1.000000

 11 D  6.26000000E-01  1.000000

 12 D  1.56500000E-01  1.000000

 13 F  8.00000000E-01  1.000000

  H (Hydrogen)
  ------------
            Exponent  Coefficients 
       -------------- ---------------------------------------------------------
  1 S  3.38650000E+01  0.025494
  1 S  5.09479000E+00  0.190373
  1 S  1.15879000E+00  0.852161

  2 S  3.25840000E-01  1.000000

  3 S  1.02741000E-01  1.000000

  4 S  3.60000000E-02  1.000000

  5 P  3.00000000E+00  1.000000

  6 P  7.50000000E-01  1.000000

  7 P  1.87500000E-01  1.000000

  8 D  1.00000000E+00  1.000000



 Summary of "ao basis" -> "ao basis" (cartesian)
 ------------------------------------------------------------------------------
       Tag                 Description            Shells   Functions and Types
 ---------------- ------------------------------  ------  ---------------------
 C                     6-311++G(3df,3pd)            13       45   5s4p3d1f
 H                     6-311++G(3df,3pd)             8       19   4s3p1d




 Summary of "ao basis" -> "ao basis" (cartesian)
 ------------------------------------------------------------------------------
       Tag                 Description            Shells   Functions and Types
 ---------------- ------------------------------  ------  ---------------------
 C                     6-311++G(3df,3pd)            13       45   5s4p3d1f
 H                     6-311++G(3df,3pd)             8       19   4s3p1d


      Symmetry analysis of basis
      --------------------------

        a1         77
        a2          8
        e         126

  Caching 1-el integrals 
  Rotation of axis 

            General Information
            -------------------
          SCF calculation type: DFT
          Wavefunction type:  closed shell.
          No. of atoms     :     7
          No. of electrons :    22
           Alpha electrons :    11
            Beta electrons :    11
          Charge           :     0
          Spin multiplicity:     1
          Use of symmetry is: on ; symmetry adaption is: on 
          Maximum number of iterations: ***
          AO basis - number of functions:   211
                     number of shells:    71
          Convergence on energy requested: 1.00D-06
          Convergence on density requested: 1.00D-05
          Convergence on gradient requested: 5.00D-04

              XC Information
              --------------
                  TPSS metaGGA Exchange Functional  1.000          
             TPSS03 metaGGA Correlation Functional  1.000          

             Grid Information
             ----------------
          Grid used for XC integration:  medium    
          Radial quadrature: Mura-Knowles        
          Angular quadrature: Lebedev. 
          Tag              B.-S. Rad. Rad. Pts. Rad. Cut. Ang. Pts.
          ---              ---------- --------- --------- ---------
          C                   0.70       49          14.0       434
          H                   0.35       45          15.0       434
          Grid pruning is: on 
          Number of quadrature shells:   237
          Spatial weights used:  Erf1

          Convergence Information
          -----------------------
          Convergence aids based upon iterative change in 
          total energy or number of iterations. 
          Levelshifting, if invoked, occurs when the 
          HOMO/LUMO gap drops below (HL_TOL): 1.00D-02
          DIIS, if invoked, will attempt to extrapolate 
          using up to (NFOCK): 10 stored Fock matrices.

                    Damping( 0%)  Levelshifting(0.5)       DIIS
                  --------------- ------------------- ---------------
          dE  on:    start            ASAP                start   
          dE off:    2 iters        *** iters           *** iters 


      Screening Tolerance Information
      -------------------------------
          Density screening/tol_rho: 1.00D-10
          AO Gaussian exp screening on grid/accAOfunc:  14
          CD Gaussian exp screening on grid/accCDfunc:  20
          XC Gaussian exp screening on grid/accXCfunc:  20
          Schwarz screening/accCoul: 1.00D-08


 WARNING : Found     3 linear dependencies 
 S eigenvalue threshold:     1.00000E-05
 Smallest S eigenvalue :     2.62658E-07
 Largest  S eigenvalue :     3.69079E-06


 !! The overlap matrix has   3 vectors deemed linearly dependent with
    eigenvalues:
 2.63D-07 1.46D-06 3.69D-06


      Superposition of Atomic Density Guess
      -------------------------------------

 Sum of atomic energies:        -115.00662628

      Non-variational initial energy
      ------------------------------

 Total energy =    -116.651327
 1-e energy   =    -267.935379
 2-e energy   =      92.848240
 HOMO         =      -0.334938
 LUMO         =       0.024530


      Symmetry analysis of molecular orbitals - initial
      -------------------------------------------------


 !! scf_movecs_sym_adapt:    5 vectors were symmetry contaminated

  Symmetry fudging
  Numbering of irreducible representations: 

     1 a1          2 a2          3 e       

  Orbital symmetries:

     1 a1          2 a1          3 a1          4 a1          5 a1      
     6 a1          7 e           8 e           9 a1         10 e       
    11 e          12 a1         13 e          14 e          15 a1      
    16 e          17 e          18 a1         19 e          20 e       
    21 a1      

   Time after variat. SCF:      7.8
   Time prior to 1st pass:      7.8

 Integral file          = ./C3H4_Propyne.aoints.0
 Record size in doubles =    65536    No. of integs per rec  =    43688
 Max. records in memory =        0    Max. records in file   = ********
 No. of bits per label  =        8    No. of bits per value  =       64


 #quartets = 1.301D+06 #integrals = 6.187D+07 #direct =  0.0% #cached =100.0%


 Grid_pts file          = ./C3H4_Propyne.gridpts.0
 Record size in doubles =  12289        No. of grid_pts per rec  =   3070
 Max. records in memory =     38        Max. recs in file   = 995323019

 Grid integrated density:      21.995456781683
 Requested integration accuracy:   0.10E-05

 !! scf_movecs_sym_adapt:    2 vectors were symmetry contaminated

  Symmetry fudging

           Memory utilization after 1st SCF pass: 
           Heap Space remaining (MW):       12.58            12582204
          Stack Space remaining (MW):       13.11            13105956

   convergence    iter        energy       DeltaE   RMS-Dens  Diis-err    time
 ---------------- ----- ----------------- --------- --------- ---------  ------
 d= 0,ls=0.0,diis     1   -116.6456031912 -1.75D+02  2.73D-03  3.93D-01    21.5
 d= 0,ls=0.0,diis     2   -116.6668406340 -2.12D-02  1.73D-03  1.20D-01    25.3
 d= 0,ls=0.0,diis     3   -116.6475750648  1.93D-02  1.01D-03  2.76D-01    29.2
 d= 0,ls=0.0,diis     4   -116.6812178834 -3.36D-02  2.64D-04  1.67D-02    33.2
 d= 0,ls=0.0,diis     5   -116.6832161112 -2.00D-03  4.34D-05  3.26D-04    37.2
  Resetting Diis
 d= 0,ls=0.0,diis     6   -116.6832624633 -4.64D-05  1.07D-05  5.51D-06    41.3
 d= 0,ls=0.0,diis     7   -116.6832676906 -5.23D-06  6.19D-06  1.16D-06    45.3
 d= 0,ls=0.0,diis     8   -116.6832637902  3.90D-06  3.83D-06  1.90D-06    49.2
 d= 0,ls=0.0,diis     9   -116.6832660016 -2.21D-06  8.13D-07  2.14D-07    53.1
 d= 0,ls=0.0,diis    10   -116.6832660536 -5.20D-08  8.92D-08  1.64D-09    57.2


         Total DFT energy =     -116.683266053606
      One electron energy =     -270.983392046766
           Coulomb energy =      113.543612263629
          Exchange energy =      -16.960280306969
       Correlation energy =       -0.719017361698
 Nuclear repulsion energy =       58.435811398198

 Numeric. integr. density =       21.999999204342

     Total iterative time =     49.4s



                  Occupations of the irreducible representations
                  ----------------------------------------------

                     irrep           alpha         beta
                     --------     --------     --------
                     a1                7.0          7.0
                     a2                0.0          0.0
                     e                 4.0          4.0


                       DFT Final Molecular Orbital Analysis
                       ------------------------------------

 Vector    1  Occ=2.000000D+00  E=-1.004077D+01  Symmetry=a1
              MO Center= -1.4D-17, -2.1D-17, -1.2D+00, r^2= 2.8D-02
   Bfn.  Coefficient  Atom+Function         Bfn.  Coefficient  Atom+Function  
  ----- ------------  ---------------      ----- ------------  ---------------
    91      0.563956  3 C  s                 92      0.465044  3 C  s          

 Vector    2  Occ=2.000000D+00  E=-1.001577D+01  Symmetry=a1
              MO Center=  8.8D-17, -8.8D-17,  2.2D-01, r^2= 3.7D-02
   Bfn.  Coefficient  Atom+Function         Bfn.  Coefficient  Atom+Function  
  ----- ------------  ---------------      ----- ------------  ---------------
     1      0.561949  1 C  s                  2      0.463430  1 C  s          

 Vector    3  Occ=2.000000D+00  E=-1.000435D+01  Symmetry=a1
              MO Center=  5.0D-16, -5.1D-16,  1.4D+00, r^2= 3.7D-02
   Bfn.  Coefficient  Atom+Function         Bfn.  Coefficient  Atom+Function  
  ----- ------------  ---------------      ----- ------------  ---------------
    46      0.561968  2 C  s                 47      0.463508  2 C  s          

 Vector    4  Occ=2.000000D+00  E=-7.295025D-01  Symmetry=a1
              MO Center=  8.7D-15, -9.2D-15, -3.9D-01, r^2= 1.6D+00
   Bfn.  Coefficient  Atom+Function         Bfn.  Coefficient  Atom+Function  
  ----- ------------  ---------------      ----- ------------  ---------------
    96      0.344114  3 C  s                  6      0.331024  1 C  s          
    10      0.218609  1 C  s                100      0.203526  3 C  s          
    51      0.198199  2 C  s                 55      0.168402  2 C  s          

 Vector    5  Occ=2.000000D+00  E=-6.532581D-01  Symmetry=a1
              MO Center= -1.7D-17, -1.3D-17,  2.3D-01, r^2= 2.3D+00
   Bfn.  Coefficient  Atom+Function         Bfn.  Coefficient  Atom+Function  
  ----- ------------  ---------------      ----- ------------  ---------------
    51      0.351755  2 C  s                 96     -0.279969  3 C  s          
    55      0.177304  2 C  s                  6      0.175407  1 C  s          
    13      0.151192  1 C  pz         

 Vector    6  Occ=2.000000D+00  E=-4.924983D-01  Symmetry=a1
              MO Center=  1.3D-18, -2.6D-18,  1.3D+00, r^2= 2.6D+00
   Bfn.  Coefficient  Atom+Function         Bfn.  Coefficient  Atom+Function  
  ----- ------------  ---------------      ----- ------------  ---------------
    14      0.270556  1 C  s                  6      0.254019  1 C  s          
   104     -0.236678  3 C  s                137     -0.231739  4 H  s          
    51     -0.204388  2 C  s                 54     -0.190939  2 C  pz         
   136     -0.168990  4 H  s                 50     -0.160814  2 C  pz         

 Vector    7  Occ=2.000000D+00  E=-4.150352D-01  Symmetry=a1
              MO Center= -8.1D-18, -9.4D-18, -3.1D-01, r^2= 2.4D+00
   Bfn.  Coefficient  Atom+Function         Bfn.  Coefficient  Atom+Function  
  ----- ------------  ---------------      ----- ------------  ---------------
     9      0.249868  1 C  pz                99     -0.226224  3 C  pz         
   103     -0.188672  3 C  pz                 5      0.186882  1 C  pz         
    95     -0.179100  3 C  pz         

 Vector    8  Occ=2.000000D+00  E=-4.001936D-01  Symmetry=e
              MO Center=  9.1D-02, -1.9D-01, -1.3D+00, r^2= 1.4D+00
   Bfn.  Coefficient  Atom+Function         Bfn.  Coefficient  Atom+Function  
  ----- ------------  ---------------      ----- ------------  ---------------
    98      0.257613  3 C  py               175     -0.229704  6 H  s          
    94      0.198898  3 C  py               174     -0.159141  6 H  s          

 Vector    9  Occ=2.000000D+00  E=-4.001936D-01  Symmetry=e
              MO Center= -9.1D-02,  1.9D-01, -1.3D+00, r^2= 1.4D+00
   Bfn.  Coefficient  Atom+Function         Bfn.  Coefficient  Atom+Function  
  ----- ------------  ---------------      ----- ------------  ---------------
    97      0.257613  3 C  px               194     -0.210070  7 H  s          
    93      0.198898  3 C  px               156      0.187789  5 H  s          

 Vector   10  Occ=2.000000D+00  E=-2.416425D-01  Symmetry=e
              MO Center= -6.0D-03, -2.6D-02,  6.9D-01, r^2= 1.9D+00
   Bfn.  Coefficient  Atom+Function         Bfn.  Coefficient  Atom+Function  
  ----- ------------  ---------------      ----- ------------  ---------------
    53      0.239628  2 C  py                 8      0.223711  1 C  py         
    12      0.172471  1 C  py                49      0.169659  2 C  py         
     4      0.158473  1 C  py                57      0.152401  2 C  py         

 Vector   11  Occ=2.000000D+00  E=-2.416425D-01  Symmetry=e
              MO Center=  6.0D-03,  2.6D-02,  6.9D-01, r^2= 1.9D+00
   Bfn.  Coefficient  Atom+Function         Bfn.  Coefficient  Atom+Function  
  ----- ------------  ---------------      ----- ------------  ---------------
    52      0.239628  2 C  px                 7      0.223711  1 C  px         
    11      0.172471  1 C  px                48      0.169659  2 C  px         
     3      0.158473  1 C  px                56      0.152401  2 C  px         

 Vector   12  Occ=0.000000D+00  E=-2.172947D-02  Symmetry=a1
              MO Center= -7.6D-13,  5.4D-13, -1.4D+00, r^2= 1.4D+01
   Bfn.  Coefficient  Atom+Function         Bfn.  Coefficient  Atom+Function  
  ----- ------------  ---------------      ----- ------------  ---------------
   104      3.472697  3 C  s                 59      1.594752  2 C  s          
   139     -1.442611  4 H  s                158     -1.339960  5 H  s          
   177     -1.339960  6 H  s                196     -1.339960  7 H  s          
    62      0.779538  2 C  pz                17     -0.698914  1 C  pz         
   100      0.630904  3 C  s                157     -0.450232  5 H  s          

 Vector   13  Occ=0.000000D+00  E=-6.289322D-04  Symmetry=a1
              MO Center= -3.4D-15,  3.7D-16,  2.6D+00, r^2= 1.7D+01
   Bfn.  Coefficient  Atom+Function         Bfn.  Coefficient  Atom+Function  
  ----- ------------  ---------------      ----- ------------  ---------------
    14     18.414776  1 C  s                104    -15.923963  3 C  s          
   139     -6.244178  4 H  s                 17     -5.140519  1 C  pz         
    62      5.156950  2 C  pz               107     -3.231471  3 C  pz         
   138     -1.669139  4 H  s                 59      1.456043  2 C  s          
   158      0.747837  5 H  s                177      0.747837  6 H  s          

 Vector   14  Occ=0.000000D+00  E= 1.387408D-03  Symmetry=e
              MO Center=  4.9D-02,  3.2D-01,  9.8D-02, r^2= 8.4D+00
   Bfn.  Coefficient  Atom+Function         Bfn.  Coefficient  Atom+Function  
  ----- ------------  ---------------      ----- ------------  ---------------
   158      1.756866  5 H  s                196     -1.377841  7 H  s          
    60      0.706394  2 C  px                15     -0.645798  1 C  px         
   177     -0.379025  6 H  s                 61      0.357263  2 C  py         
    32      0.349768  1 C  dxz               16     -0.326617  1 C  py         
   105     -0.280981  3 C  px                77      0.236761  2 C  dxz        

 Vector   15  Occ=0.000000D+00  E= 1.387408D-03  Symmetry=e
              MO Center= -4.9D-02, -3.2D-01,  9.8D-02, r^2= 8.4D+00
   Bfn.  Coefficient  Atom+Function         Bfn.  Coefficient  Atom+Function  
  ----- ------------  ---------------      ----- ------------  ---------------
   177      1.809824  6 H  s                196     -1.233157  7 H  s          
    61     -0.706394  2 C  py                16      0.645798  1 C  py         
   158     -0.576667  5 H  s                 60      0.357263  2 C  px         
    34     -0.349768  1 C  dyz               15     -0.326617  1 C  px         
   106      0.280981  3 C  py                79     -0.236761  2 C  dyz        

 Vector   16  Occ=0.000000D+00  E= 2.673489D-02  Symmetry=e
              MO Center=  5.5D-01, -1.7D-01, -1.0D+00, r^2= 1.2D+01
   Bfn.  Coefficient  Atom+Function         Bfn.  Coefficient  Atom+Function  
  ----- ------------  ---------------      ----- ------------  ---------------
   177     -2.772174  6 H  s                158      2.701184  5 H  s          
   176      1.108198  6 H  s                157     -1.079820  5 H  s          
   106     -0.713304  3 C  py               102      0.690067  3 C  py         
    16      0.567318  1 C  py                61     -0.503787  2 C  py         
    57     -0.372900  2 C  py               175      0.294158  6 H  s          

 Vector   17  Occ=0.000000D+00  E= 2.673489D-02  Symmetry=e
              MO Center= -5.5D-01,  1.7D-01, -1.0D+00, r^2= 1.2D+01
   Bfn.  Coefficient  Atom+Function         Bfn.  Coefficient  Atom+Function  
  ----- ------------  ---------------      ----- ------------  ---------------
   196      3.160045  7 H  s                158     -1.641501  5 H  s          
   177     -1.518544  6 H  s                195     -1.263253  7 H  s          
   105      0.713304  3 C  px               101     -0.690067  3 C  px         
   157      0.656203  5 H  s                176      0.607050  6 H  s          
    15     -0.567318  1 C  px                60      0.503787  2 C  px         

 Vector   18  Occ=0.000000D+00  E= 3.820005D-02  Symmetry=a1
              MO Center=  7.5D-11, -8.0D-11, -8.5D-01, r^2= 1.4D+01
   Bfn.  Coefficient  Atom+Function         Bfn.  Coefficient  Atom+Function  
  ----- ------------  ---------------      ----- ------------  ---------------
    14     25.874524  1 C  s                104    -24.430891  3 C  s          
    17     -8.786292  1 C  pz               107     -7.227422  3 C  pz         
    62      3.179315  2 C  pz                59     -1.289140  2 C  s          
   139     -0.701606  4 H  s                138     -0.458535  4 H  s          
   157      0.402564  5 H  s                176      0.402564  6 H  s          

 Vector   19  Occ=0.000000D+00  E= 6.994327D-02  Symmetry=e
              MO Center=  1.4D-01,  2.5D-01,  2.5D-01, r^2= 1.2D+01
   Bfn.  Coefficient  Atom+Function         Bfn.  Coefficient  Atom+Function  
  ----- ------------  ---------------      ----- ------------  ---------------
   177      3.603900  6 H  s                196     -3.076880  7 H  s          
   106      2.895747  3 C  py               105     -2.199554  3 C  px         
   176      2.004583  6 H  s                195     -1.711441  7 H  s          
    16     -1.354534  1 C  py                61      1.309531  2 C  py         
   102      1.085402  3 C  py                15      1.028878  1 C  px         

 Vector   20  Occ=0.000000D+00  E= 6.994327D-02  Symmetry=e
              MO Center= -1.4D-01, -2.5D-01,  2.5D-01, r^2= 1.2D+01
   Bfn.  Coefficient  Atom+Function         Bfn.  Coefficient  Atom+Function  
  ----- ------------  ---------------      ----- ------------  ---------------
   158      3.857150  5 H  s                105     -2.895747  3 C  px         
   196     -2.384987  7 H  s                106     -2.199554  3 C  py         
   157      2.145447  5 H  s                177     -1.472163  6 H  s          
    15      1.354534  1 C  px               195     -1.326592  7 H  s          
    60     -1.309531  2 C  px               101     -1.085402  3 C  px         

 Vector   21  Occ=0.000000D+00  E= 8.677733D-02  Symmetry=e
              MO Center=  1.5D-01,  2.9D-01, -6.1D-01, r^2= 1.2D+01
   Bfn.  Coefficient  Atom+Function         Bfn.  Coefficient  Atom+Function  
  ----- ------------  ---------------      ----- ------------  ---------------
   106      3.959059  3 C  py               177      3.417790  6 H  s          
   105     -2.857698  3 C  px               196     -2.834567  7 H  s          
   176      2.293361  6 H  s                 16     -1.964670  1 C  py         
   195     -1.902015  7 H  s                 15      1.418124  1 C  px         
   102      0.618656  3 C  py               158     -0.583223  5 H  s          

 Vector   22  Occ=0.000000D+00  E= 8.677733D-02  Symmetry=e
              MO Center= -1.5D-01, -2.9D-01, -6.1D-01, r^2= 1.2D+01
   Bfn.  Coefficient  Atom+Function         Bfn.  Coefficient  Atom+Function  
  ----- ------------  ---------------      ----- ------------  ---------------
   105      3.959059  3 C  px               158     -3.609800  5 H  s          
   106      2.857698  3 C  py               157     -2.422201  5 H  s          
   196      2.309986  7 H  s                 15     -1.964670  1 C  px         
   195      1.550017  7 H  s                 16     -1.418124  1 C  py         
   177      1.299814  6 H  s                176      0.872184  6 H  s          

 Vector   23  Occ=0.000000D+00  E= 9.347900D-02  Symmetry=a1
              MO Center=  7.4D-11, -7.8D-11, -7.8D-01, r^2= 1.8D+01
   Bfn.  Coefficient  Atom+Function         Bfn.  Coefficient  Atom+Function  
  ----- ------------  ---------------      ----- ------------  ---------------
    14     11.980622  1 C  s                 59      5.769372  2 C  s          
   139     -5.075011  4 H  s                 17     -4.991502  1 C  pz         
    62      4.157848  2 C  pz               107     -4.007498  3 C  pz         
   158     -3.016692  5 H  s                177     -3.016692  6 H  s          
   196     -3.016692  7 H  s                138     -2.261108  4 H  s          

 Vector   24  Occ=0.000000D+00  E= 9.747591D-02  Symmetry=a1
              MO Center=  1.9D-09, -2.0D-09, -2.4D-01, r^2= 1.3D+01
   Bfn.  Coefficient  Atom+Function         Bfn.  Coefficient  Atom+Function  
  ----- ------------  ---------------      ----- ------------  ---------------
   104    -23.181259  3 C  s                 14     22.108868  1 C  s          
   107     -5.714640  3 C  pz                17     -3.917096  1 C  pz         
   138     -2.393033  4 H  s                 62      1.781770  2 C  pz         
   139     -1.517555  4 H  s                100     -1.051737  3 C  s          
   157      1.026505  5 H  s                176      1.026505  6 H  s          

 Vector   25  Occ=0.000000D+00  E= 1.081450D-01  Symmetry=a1
              MO Center= -9.0D-11,  9.3D-11,  2.1D+00, r^2= 1.9D+01
   Bfn.  Coefficient  Atom+Function         Bfn.  Coefficient  Atom+Function  
  ----- ------------  ---------------      ----- ------------  ---------------
    14     46.786002  1 C  s                104    -42.952106  3 C  s          
    17    -13.736928  1 C  pz                62     13.592394  2 C  pz         
   139    -12.225376  4 H  s                107     -6.674617  3 C  pz         
   138     -4.008792  4 H  s                 59      2.245841  2 C  s          
   158      2.120739  5 H  s                177      2.120739  6 H  s          

 Vector   26  Occ=0.000000D+00  E= 1.344404D-01  Symmetry=e
              MO Center=  6.1D-02,  3.8D-02,  1.9D-01, r^2= 1.4D+01
   Bfn.  Coefficient  Atom+Function         Bfn.  Coefficient  Atom+Function  
  ----- ------------  ---------------      ----- ------------  ---------------
    16      3.953855  1 C  py                15      3.144754  1 C  px         
    61     -2.399296  2 C  py                60     -1.908314  2 C  px         
   158     -1.821451  5 H  s                106     -1.094232  3 C  py         
   177      1.090520  6 H  s                105     -0.870313  3 C  px         
   157      0.840133  5 H  s                196      0.730930  7 H  s          

 Vector   27  Occ=0.000000D+00  E= 1.344404D-01  Symmetry=e
              MO Center= -6.1D-02, -3.8D-02,  1.9D-01, r^2= 1.4D+01
   Bfn.  Coefficient  Atom+Function         Bfn.  Coefficient  Atom+Function  
  ----- ------------  ---------------      ----- ------------  ---------------
    15      3.953855  1 C  px                16     -3.144754  1 C  py         
    60     -2.399296  2 C  px                61      1.908314  2 C  py         
   196      1.681227  7 H  s                177     -1.473618  6 H  s          
   105     -1.094232  3 C  px               106      0.870313  3 C  py         
   195     -0.775456  7 H  s                 11     -0.709905  1 C  px         

 Vector   28  Occ=0.000000D+00  E= 1.678671D-01  Symmetry=e
              MO Center= -4.9D-01, -5.1D-01, -1.2D+00, r^2= 1.0D+01
   Bfn.  Coefficient  Atom+Function         Bfn.  Coefficient  Atom+Function  
  ----- ------------  ---------------      ----- ------------  ---------------
   177     -3.666658  6 H  s                196      3.627361  7 H  s          
   176      3.408468  6 H  s                195     -3.371939  7 H  s          
   102      2.082996  3 C  py               101     -2.044481  3 C  px         
   106     -1.628372  3 C  py               105      1.598262  3 C  px         
    16      1.494920  1 C  py                15     -1.467279  1 C  px         

 Vector   29  Occ=0.000000D+00  E= 1.678671D-01  Symmetry=e
              MO Center=  4.9D-01,  5.1D-01, -1.2D+00, r^2= 1.0D+01
   Bfn.  Coefficient  Atom+Function         Bfn.  Coefficient  Atom+Function  
  ----- ------------  ---------------      ----- ------------  ---------------
   158     -4.211204  5 H  s                157      3.914670  5 H  s          
   196      2.139634  7 H  s                101     -2.082996  3 C  px         
   177      2.071570  6 H  s                102     -2.044481  3 C  py         
   195     -1.988970  7 H  s                176     -1.925699  6 H  s          
   105      1.628372  3 C  px               106      1.598262  3 C  py         

 Vector   30  Occ=0.000000D+00  E= 1.724438D-01  Symmetry=a1
              MO Center=  8.6D-11, -9.2D-11,  1.1D-01, r^2= 1.4D+01
   Bfn.  Coefficient  Atom+Function         Bfn.  Coefficient  Atom+Function  
  ----- ------------  ---------------      ----- ------------  ---------------
   104    -59.719272  3 C  s                 14     58.028381  1 C  s          
    17    -19.001856  1 C  pz               107    -14.297443  3 C  pz         
    59     -6.749086  2 C  s                138      3.688022  4 H  s          
   139      3.194534  4 H  s                100     -2.413821  3 C  s          
   157      1.962468  5 H  s                176      1.962468  6 H  s          

 Vector   31  Occ=0.000000D+00  E= 1.822075D-01  Symmetry=a1
              MO Center= -6.0D-12,  7.1D-12, -2.1D-01, r^2= 1.1D+01
   Bfn.  Coefficient  Atom+Function         Bfn.  Coefficient  Atom+Function  
  ----- ------------  ---------------      ----- ------------  ---------------
    14     67.782758  1 C  s                104    -60.307185  3 C  s          
    17    -23.336287  1 C  pz               107    -14.475586  3 C  pz         
    62     12.087969  2 C  pz               139     -6.809351  4 H  s          
   138     -4.932683  4 H  s                 55      1.815689  2 C  s          
   100     -1.700529  3 C  s                157      1.648661  5 H  s          

 Vector   32  Occ=0.000000D+00  E= 2.407763D-01  Symmetry=a1
              MO Center=  4.0D-10, -4.2D-10, -1.5D+00, r^2= 1.1D+01
   Bfn.  Coefficient  Atom+Function         Bfn.  Coefficient  Atom+Function  
  ----- ------------  ---------------      ----- ------------  ---------------
   104     39.893143  3 C  s                 14    -25.869540  1 C  s          
   157     -8.422073  5 H  s                176     -8.422073  6 H  s          
   195     -8.422073  7 H  s                100      7.554939  3 C  s          
    59      6.260181  2 C  s                107      4.587937  3 C  pz         
   103     -4.082597  3 C  pz               158     -3.141299  5 H  s          

 Vector   33  Occ=0.000000D+00  E= 2.620104D-01  Symmetry=a1
              MO Center=  4.0D-11, -4.2D-11,  9.1D-01, r^2= 1.0D+01
   Bfn.  Coefficient  Atom+Function         Bfn.  Coefficient  Atom+Function  
  ----- ------------  ---------------      ----- ------------  ---------------
    14     36.047094  1 C  s                104    -32.708111  3 C  s          
    17    -13.980448  1 C  pz                62     12.811164  2 C  pz         
   139     -8.048216  4 H  s                138     -6.715461  4 H  s          
   107     -4.333140  3 C  pz               100     -2.087335  3 C  s          
    58      1.728094  2 C  pz                80      1.512947  2 C  dzz        

 Vector   34  Occ=0.000000D+00  E= 3.048267D-01  Symmetry=e
              MO Center=  1.4D-01,  4.3D-01, -1.4D+00, r^2= 6.8D+00
   Bfn.  Coefficient  Atom+Function         Bfn.  Coefficient  Atom+Function  
  ----- ------------  ---------------      ----- ------------  ---------------
   176      6.497210  6 H  s                195     -4.896885  7 H  s          
   106      3.606797  3 C  py               102      3.262237  3 C  py         
   105     -2.195316  3 C  px               101     -1.985595  3 C  px         
   177      1.832999  6 H  s                 16     -1.706325  1 C  py         
   157     -1.600325  5 H  s                196     -1.381514  7 H  s          

 Vector   35  Occ=0.000000D+00  E= 3.048267D-01  Symmetry=e
              MO Center= -1.4D-01, -4.3D-01, -1.4D+00, r^2= 6.8D+00
   Bfn.  Coefficient  Atom+Function         Bfn.  Coefficient  Atom+Function  
  ----- ------------  ---------------      ----- ------------  ---------------
   157      6.578383  5 H  s                195     -4.675114  7 H  s          
   105     -3.606797  3 C  px               101     -3.262237  3 C  px         
   106     -2.195316  3 C  py               102     -1.985595  3 C  py         
   176     -1.903270  6 H  s                158      1.855900  5 H  s          
    15      1.706325  1 C  px               121     -1.685285  3 C  dxy        

 Vector   36  Occ=0.000000D+00  E= 3.204787D-01  Symmetry=e
              MO Center= -2.0D-02, -7.2D-02,  4.6D-01, r^2= 5.1D+00
   Bfn.  Coefficient  Atom+Function         Bfn.  Coefficient  Atom+Function  
  ----- ------------  ---------------      ----- ------------  ---------------
   176      2.384221  6 H  s                102      1.930014  3 C  py         
   195     -1.752118  7 H  s                101     -1.122147  3 C  px         
    34      0.842333  1 C  dyz              177     -0.731159  6 H  s          
   157     -0.632103  5 H  s                186      0.630760  6 H  pz         
   196      0.537315  7 H  s                 75     -0.501328  2 C  dxx        

 Vector   37  Occ=0.000000D+00  E= 3.204787D-01  Symmetry=e
              MO Center=  2.0D-02,  7.2D-02,  4.6D-01, r^2= 5.1D+00
   Bfn.  Coefficient  Atom+Function         Bfn.  Coefficient  Atom+Function  
  ----- ------------  ---------------      ----- ------------  ---------------
   157      2.388117  5 H  s                101     -1.930014  3 C  px         
   195     -1.741476  7 H  s                102     -1.122147  3 C  py         
    76      1.002656  2 C  dxy               32     -0.842333  1 C  dxz        
   121     -0.829990  3 C  dxy              158     -0.732354  5 H  s          
   176     -0.646641  6 H  s                167      0.631791  5 H  pz         

 Vector   38  Occ=0.000000D+00  E= 3.356033D-01  Symmetry=a1
              MO Center= -1.9D-12,  2.0D-12,  1.9D+00, r^2= 1.0D+01
   Bfn.  Coefficient  Atom+Function         Bfn.  Coefficient  Atom+Function  
  ----- ------------  ---------------      ----- ------------  ---------------
    14     22.547846  1 C  s                138    -14.385790  4 H  s          
    62     12.498869  2 C  pz               104    -10.486701  3 C  s          
   139     -9.640982  4 H  s                 17     -8.295254  1 C  pz         
    59      7.466813  2 C  s                 55      5.394475  2 C  s          
    58      5.321089  2 C  pz               107     -3.568550  3 C  pz         

 Vector   39  Occ=0.000000D+00  E= 3.627232D-01  Symmetry=a1
              MO Center= -3.4D-12,  2.4D-12, -2.5D-01, r^2= 1.0D+01
   Bfn.  Coefficient  Atom+Function         Bfn.  Coefficient  Atom+Function  
  ----- ------------  ---------------      ----- ------------  ---------------
    14     68.853427  1 C  s                104    -61.851683  3 C  s          
    17    -22.478963  1 C  pz               107    -12.549276  3 C  pz         
    62     12.007623  2 C  pz               139     -7.895839  4 H  s          
   100     -5.319952  3 C  s                138     -4.611647  4 H  s          
   157      3.576390  5 H  s                176      3.576390  6 H  s          

 Vector   40  Occ=0.000000D+00  E= 3.723307D-01  Symmetry=e
              MO Center=  1.4D-01, -7.9D-02,  1.5D-02, r^2= 7.0D+00
   Bfn.  Coefficient  Atom+Function         Bfn.  Coefficient  Atom+Function  
  ----- ------------  ---------------      ----- ------------  ---------------
   106      1.154884  3 C  py               121     -1.047580  3 C  dxy        
    16     -0.934389  1 C  py               176     -0.840353  6 H  s          
   177      0.824767  6 H  s                102     -0.766177  3 C  py         
   157      0.727173  5 H  s                186     -0.722725  6 H  pz         
   158     -0.713686  5 H  s                 79      0.657841  2 C  dyz        

 Vector   41  Occ=0.000000D+00  E= 3.723307D-01  Symmetry=e
              MO Center= -1.4D-01,  7.9D-02,  1.5D-02, r^2= 7.0D+00
   Bfn.  Coefficient  Atom+Function         Bfn.  Coefficient  Atom+Function  
  ----- ------------  ---------------      ----- ------------  ---------------
   105      1.154884  3 C  px                15     -0.934389  1 C  px         
   195     -0.905011  7 H  s                196      0.888226  7 H  s          
   121     -0.793095  3 C  dxy              205     -0.778333  7 H  pz         
   101     -0.766177  3 C  px                77      0.657841  2 C  dxz        
    11      0.594836  1 C  px               157      0.550523  5 H  s          

 Vector   42  Occ=0.000000D+00  E= 4.749098D-01  Symmetry=e
              MO Center= -7.1D-02, -1.6D-01,  1.2D+00, r^2= 7.0D+00
   Bfn.  Coefficient  Atom+Function         Bfn.  Coefficient  Atom+Function  
  ----- ------------  ---------------      ----- ------------  ---------------
   176      2.467893  6 H  s                 16      2.028593  1 C  py         
   195     -1.989523  7 H  s                102      1.643630  3 C  py         
    61     -1.447109  2 C  py                15     -1.392641  1 C  px         
   101     -1.128362  3 C  px               177     -1.073640  6 H  s          
   106     -1.050689  3 C  py               147      1.023281  4 H  py         

 Vector   43  Occ=0.000000D+00  E= 4.749098D-01  Symmetry=e
              MO Center=  7.1D-02,  1.6D-01,  1.2D+00, r^2= 7.0D+00
   Bfn.  Coefficient  Atom+Function         Bfn.  Coefficient  Atom+Function  
  ----- ------------  ---------------      ----- ------------  ---------------
   157      2.573490  5 H  s                 15     -2.028593  1 C  px         
   195     -1.701026  7 H  s                101     -1.643630  3 C  px         
    60      1.447109  2 C  px                16     -1.392641  1 C  py         
   121     -1.336903  3 C  dxy              102     -1.128362  3 C  py         
   158     -1.119579  5 H  s                105      1.050689  3 C  px         

 Vector   44  Occ=0.000000D+00  E= 4.794424D-01  Symmetry=a1
              MO Center=  8.6D-12, -8.9D-12, -1.6D+00, r^2= 6.8D+00
   Bfn.  Coefficient  Atom+Function         Bfn.  Coefficient  Atom+Function  
  ----- ------------  ---------------      ----- ------------  ---------------
    14      4.825037  1 C  s                157      4.579749  5 H  s          
   176      4.579749  6 H  s                195      4.579749  7 H  s          
   104     -4.100527  3 C  s                120     -3.592323  3 C  dxx        
   123     -3.592323  3 C  dyy              125     -2.720848  3 C  dzz        
   138     -2.488568  4 H  s                 55      2.363014  2 C  s          

 Vector   45  Occ=0.000000D+00  E= 4.923506D-01  Symmetry=a2
              MO Center= -3.7D-15, -4.6D-16, -1.6D+00, r^2= 4.1D+00
   Bfn.  Coefficient  Atom+Function         Bfn.  Coefficient  Atom+Function  
  ----- ------------  ---------------      ----- ------------  ---------------
   184      1.095863  6 H  px               204     -1.095863  7 H  py         
   165     -0.802227  5 H  px               166      0.802227  5 H  py         
   185      0.293636  6 H  py               203     -0.293636  7 H  px         

 Vector   46  Occ=0.000000D+00  E= 5.070010D-01  Symmetry=e
              MO Center= -1.3D-01,  1.2D-01,  8.2D-02, r^2= 6.5D+00
   Bfn.  Coefficient  Atom+Function         Bfn.  Coefficient  Atom+Function  
  ----- ------------  ---------------      ----- ------------  ---------------
    34      9.182313  1 C  dyz              102      5.756913  3 C  py         
    57     -5.683396  2 C  py               124      4.871434  3 C  dyz        
    79      4.639965  2 C  dyz              176      1.963803  6 H  s          
   157     -1.477319  5 H  s                 12      1.219002  1 C  py         
    31     -0.900305  1 C  dxy               61      0.883876  2 C  py         


 center of mass
 --------------
 x =   0.00000000 y =   0.00000000 z =   0.11285859

 moments of inertia (a.u.)
 ------------------
         213.071224785621           0.000000000000           0.000000000000
           0.000000000000         213.071224785621          -0.000000000000
           0.000000000000          -0.000000000000          11.258447089857

     Multipole analysis of the density
     ---------------------------------

     L   x y z        total         alpha         beta         nuclear
     -   - - -        -----         -----         ----         -------
     0   0 0 0     -0.000000    -11.000000    -11.000000     22.000000

     1   1 0 0     -0.000000     -0.000000     -0.000000      0.000000
     1   0 1 0     -0.000000     -0.000000     -0.000000      0.000000
     1   0 0 1     -0.329337     -0.164669     -0.164669      0.000000

     2   2 0 0    -14.786814    -10.186165    -10.186165      5.585517
     2   1 1 0     -0.000000     -0.000000     -0.000000     -0.000000
     2   1 0 1      0.000000      0.000000      0.000000      0.000000
     2   0 2 0    -14.786814    -10.186165    -10.186165      5.585517
     2   0 1 1      0.000000      0.000000      0.000000      0.000000
     2   0 0 2    -10.562613    -69.914287    -69.914287    129.265961


------------------------------------------------------------
EAF file 0: "./C3H4_Propyne.aoints.0" size=742916096 bytes
------------------------------------------------------------
               write      read    awrite     aread      wait
               -----      ----    ------     -----      ----
     calls:     1417         9         0     12744     12744
   data(b): 7.43e+08  4.72e+06  0.00e+00  6.68e+09
   time(s): 0.00e+00  0.00e+00  0.00e+00  0.00e+00  0.00e+00
rate(mb/s): 0.00e+00  0.00e+00
------------------------------------------------------------


 Parallel integral file used    1417 records with       0 large values


 Task  times  cpu:       57.7s     wall:       62.7s


                                NWChem Input Module
                                -------------------


 Summary of allocated global arrays
-----------------------------------
  No active global arrays



                         GA Statistics for process    0
                         ------------------------------

       create   destroy   get      put      acc     scatter   gather  read&inc
calls:  295      295     7.34e+04 1.83e+04 3.45e+04    0        0     2266     
number of processes/call 1.00e+00 1.00e+00 1.00e+00 0.00e+00 0.00e+00
bytes total:             4.83e+08 1.04e+08 3.09e+08 0.00e+00 0.00e+00 1.81e+04
bytes remote:            0.00e+00 0.00e+00 0.00e+00 0.00e+00 0.00e+00 0.00e+00
Max memory consumed for GA by this process: 13890552 bytes

MA_summarize_allocated_blocks: starting scan ...
MA_summarize_allocated_blocks: scan completed: 0 heap blocks, 0 stack blocks
MA usage statistics:

	allocation statistics:
					      heap	     stack
					      ----	     -----
	current number of blocks	         0	         0
	maximum number of blocks	        23	        55
	current total bytes		         0	         0
	maximum total bytes		   4199928	  26760744
	maximum total K-bytes		      4200	     26761
	maximum total M-bytes		         5	        27


                                     CITATION
                                     --------
                Please cite the following reference when publishing
                           results obtained with NWChem:

                 M. Valiev, E.J. Bylaska, N. Govind, K. Kowalski,
              T.P. Straatsma, H.J.J. van Dam, D. Wang, J. Nieplocha,
                        E. Apra, T.L. Windus, W.A. de Jong
                 "NWChem: a comprehensive and scalable open-source
                  solution for large scale molecular simulations"
                      Comput. Phys. Commun. 181, 1477 (2010)
                           doi:10.1016/j.cpc.2010.04.018

                                      AUTHORS
                                      -------
          E. Apra, E. J. Bylaska, W. A. de Jong, N. Govind, K. Kowalski,
       T. P. Straatsma, M. Valiev, H. J. J. van Dam, D. Wang, T. L. Windus,
        J. Hammond, J. Autschbach, K. Bhaskaran-Nair, J. Brabec, K. Lopata,
       S. A. Fischer, S. Krishnamoorthy, W. Ma, M. Klemm, O. Villa, Y. Chen,
    V. Anisimov, F. Aquino, S. Hirata, M. T. Hackler, T. Risthaus, M. Malagoli,
       A. Marenich, A. Otero-de-la-Roza, J. Mullin, P. Nichols, R. Peverati,
     J. Pittner, Y. Zhao, P.-D. Fan, A. Fonari, M. Williamson, R. J. Harrison,
       J. R. Rehr, M. Dupuis, D. Silverstein, D. M. A. Smith, J. Nieplocha,
        V. Tipparaju, M. Krishnan, B. E. Van Kuiken, A. Vazquez-Mayagoitia,
        L. Jensen, M. Swart, Q. Wu, T. Van Voorhis, A. A. Auer, M. Nooijen,
      L. D. Crosby, E. Brown, G. Cisneros, G. I. Fann, H. Fruchtl, J. Garza,
        K. Hirao, R. A. Kendall, J. A. Nichols, K. Tsemekhman, K. Wolinski,
     J. Anchell, D. E. Bernholdt, P. Borowski, T. Clark, D. Clerc, H. Dachsel,
   M. J. O. Deegan, K. Dyall, D. Elwood, E. Glendening, M. Gutowski, A. C. Hess,
         J. Jaffe, B. G. Johnson, J. Ju, R. Kobayashi, R. Kutteh, Z. Lin,
   R. Littlefield, X. Long, B. Meng, T. Nakajima, S. Niu, L. Pollack, M. Rosing,
   K. Glaesemann, G. Sandrone, M. Stave, H. Taylor, G. Thomas, J. H. van Lenthe,
                               A. T. Wong, Z. Zhang.

 Total times  cpu:       57.8s     wall:       62.9s
