[1537874000.162134] [r8n3:19934:0]         sys.c:744  MXM  WARN  Conflicting CPU frequencies detected, using: 2499.99
[1537874000.168361] [r8n3:19934:0]         mxm.c:196  MXM  WARN  The 'ulimit -s' on the system is set to 'unlimited'. This may have negative performance implications. Please set the stack size to the default value (10240) 
[1537874000.170517] [r8n3:19934:0]         mxm.c:196  MXM  WARN  The 'ulimit -s' on the system is set to 'unlimited'. This may have negative performance implications. Please set the stack size to the default value (10240) 
 argument  1 = -
                                         
                                         


              Northwest Computational Chemistry Package (NWChem) 6.6
              ------------------------------------------------------


                    Environmental Molecular Sciences Laboratory
                       Pacific Northwest National Laboratory
                                Richland, WA 99352

                              Copyright (c) 1994-2015
                       Pacific Northwest National Laboratory
                            Battelle Memorial Institute

             NWChem is an open-source computational chemistry package
                        distributed under the terms of the
                      Educational Community License (ECL) 2.0
             A copy of the license is included with this distribution
                              in the LICENSE.TXT file

                                  ACKNOWLEDGMENT
                                  --------------

            This software and its documentation were developed at the
            EMSL at Pacific Northwest National Laboratory, a multiprogram
            national laboratory, operated for the U.S. Department of Energy
            by Battelle under Contract Number DE-AC05-76RL01830. Support
            for this work was provided by the Department of Energy Office
            of Biological and Environmental Research, Office of Basic
            Energy Sciences, and the Office of Advanced Scientific Computing.


           Job information
           ---------------

    hostname        = r8n3.niserhpc.org
    program         = /home/bikashp/Code/nwchem-6.6_revtpss/bin/LINUX64/nwchem
    date            = Tue Sep 25 16:43:20 2018

    compiled        = Tue_Sep_25_16:36:43_2018
    source          = /home/bikashp/Code/nwchem-6.6_revtpss
    nwchem branch   = 6.6
    nwchem revision = 27746
    ga revision     = 10594
    input           = nwchem.nw
    prefix          = C4H8_Cyclobutane.
    data base       = ./C4H8_Cyclobutane.db
    status          = startup
    nproc           =        1
    time left       =     -1s



           Memory information
           ------------------

    heap     =   13107196 doubles =    100.0 Mbytes
    stack    =   13107201 doubles =    100.0 Mbytes
    global   =   26214400 doubles =    200.0 Mbytes (distinct from heap & stack)
    total    =   52428797 doubles =    400.0 Mbytes
    verify   = yes
    hardfail = no 


           Directory information
           ---------------------

  0 permanent = .
  0 scratch   = .




                                NWChem Input Module
                                -------------------



 Scaling coordinates for geometry "geometry" by  1.889725989
 (inverse scale =  0.529177249)

 D2D symmetry detected

          ------
          auto-z
          ------


                             Geometry "geometry" -> ""
                             -------------------------

 Output coordinates in angstroms (scale by  1.889725989 to convert to a.u.)

  No.       Tag          Charge          X              Y              Z
 ---- ---------------- ---------- -------------- -------------- --------------
    1 C                    6.0000     0.75741177     0.75741177     0.14762600
    2 C                    6.0000    -0.75741177    -0.75741177     0.14762600
    3 C                    6.0000    -0.75741177     0.75741177    -0.14762600
    4 C                    6.0000     0.75741177    -0.75741177    -0.14762600
    5 H                    1.0000     1.40492077     1.40492077    -0.45007700
    6 H                    1.0000     0.94958855     0.94958855     1.20752000
    7 H                    1.0000    -1.40492077    -1.40492077    -0.45007700
    8 H                    1.0000    -0.94958855    -0.94958855     1.20752000
    9 H                    1.0000    -1.40492077     1.40492077     0.45007700
   10 H                    1.0000    -0.94958855     0.94958855    -1.20752000
   11 H                    1.0000     1.40492077    -1.40492077     0.45007700
   12 H                    1.0000     0.94958855    -0.94958855    -1.20752000

      Atomic Mass 
      ----------- 

      C                 12.000000
      H                  1.007825


 Effective nuclear repulsion energy (a.u.)     127.5462305520

            Nuclear Dipole moment (a.u.) 
            ----------------------------
        X                 Y               Z
 ---------------- ---------------- ----------------
     0.0000000000    -0.0000000000     0.0000000000

      Symmetry information
      --------------------

 Group name             D2d       
 Group number             32
 Group order               8
 No. of unique centers     3

      Symmetry unique atoms

     1    5    6



                                Z-matrix (autoz)
                                -------- 

 Units are Angstrom for bonds and degrees for angles

      Type          Name      I     J     K     L     M      Value
      ----------- --------  ----- ----- ----- ----- ----- ----------
    1 Stretch                  1     3                       1.54333
    2 Stretch                  1     4                       1.54333
    3 Stretch                  1     5                       1.09352
    4 Stretch                  1     6                       1.09418
    5 Stretch                  2     3                       1.54333
    6 Stretch                  2     4                       1.54333
    7 Stretch                  2     7                       1.09352
    8 Stretch                  2     8                       1.09418
    9 Stretch                  3     9                       1.09352
   10 Stretch                  3    10                       1.09418
   11 Stretch                  4    11                       1.09352
   12 Stretch                  4    12                       1.09418
   13 Bend                     1     3     2                87.90257
   14 Bend                     1     3     9               118.46551
   15 Bend                     1     3    10               110.95926
   16 Bend                     1     4     2                87.90257
   17 Bend                     1     4    11               118.46551
   18 Bend                     1     4    12               110.95926
   19 Bend                     2     3     9               118.46551
   20 Bend                     2     3    10               110.95926
   21 Bend                     2     4    11               118.46551
   22 Bend                     2     4    12               110.95926
   23 Bend                     3     1     4                87.90257
   24 Bend                     3     1     5               118.46551
   25 Bend                     3     1     6               110.95926
   26 Bend                     3     2     4                87.90257
   27 Bend                     3     2     7               118.46551
   28 Bend                     3     2     8               110.95926
   29 Bend                     4     1     5               118.46551
   30 Bend                     4     1     6               110.95926
   31 Bend                     4     2     7               118.46551
   32 Bend                     4     2     8               110.95926
   33 Bend                     5     1     6               108.75118
   34 Bend                     7     2     8               108.75118
   35 Bend                     9     3    10               108.75118
   36 Bend                    11     4    12               108.75118
   37 Torsion                  1     3     2     4         -21.66062
   38 Torsion                  1     3     2     7        -143.17306
   39 Torsion                  1     3     2     8          90.01039
   40 Torsion                  1     4     2     3          21.66062
   41 Torsion                  1     4     2     7         143.17306
   42 Torsion                  1     4     2     8         -90.01039
   43 Torsion                  2     3     1     4          21.66062
   44 Torsion                  2     3     1     5         143.17306
   45 Torsion                  2     3     1     6         -90.01039
   46 Torsion                  2     4     1     3         -21.66062
   47 Torsion                  2     4     1     5        -143.17306
   48 Torsion                  2     4     1     6          90.01039
   49 Torsion                  3     1     4    11        -143.17306
   50 Torsion                  3     1     4    12          90.01039
   51 Torsion                  3     2     4    11         143.17306
   52 Torsion                  3     2     4    12         -90.01039
   53 Torsion                  4     1     3     9         143.17306
   54 Torsion                  4     1     3    10         -90.01039
   55 Torsion                  4     2     3     9        -143.17306
   56 Torsion                  4     2     3    10          90.01039
   57 Torsion                  5     1     3     9         -95.31450
   58 Torsion                  5     1     3    10          31.50205
   59 Torsion                  5     1     4    11          95.31450
   60 Torsion                  5     1     4    12         -31.50205
   61 Torsion                  6     1     3     9          31.50205
   62 Torsion                  6     1     3    10         158.31861
   63 Torsion                  6     1     4    11         -31.50205
   64 Torsion                  6     1     4    12        -158.31861
   65 Torsion                  7     2     3     9          95.31450
   66 Torsion                  7     2     3    10         -31.50205
   67 Torsion                  7     2     4    11         -95.31450
   68 Torsion                  7     2     4    12          31.50205
   69 Torsion                  8     2     3     9         -31.50205
   70 Torsion                  8     2     3    10        -158.31861
   71 Torsion                  8     2     4    11          31.50205
   72 Torsion                  8     2     4    12         158.31861


            XYZ format geometry
            -------------------
    12
 geometry
 C                     0.75741177     0.75741177     0.14762600
 C                    -0.75741177    -0.75741177     0.14762600
 C                    -0.75741177     0.75741177    -0.14762600
 C                     0.75741177    -0.75741177    -0.14762600
 H                     1.40492077     1.40492077    -0.45007700
 H                     0.94958855     0.94958855     1.20752000
 H                    -1.40492077    -1.40492077    -0.45007700
 H                    -0.94958855    -0.94958855     1.20752000
 H                    -1.40492077     1.40492077     0.45007700
 H                    -0.94958855     0.94958855    -1.20752000
 H                     1.40492077    -1.40492077     0.45007700
 H                     0.94958855    -0.94958855    -1.20752000

 ==============================================================================
                                internuclear distances
 ------------------------------------------------------------------------------
       center one      |      center two      | atomic units |  angstroms
 ------------------------------------------------------------------------------
    3 C                |   1 C                |     2.91647  |     1.54333
    3 C                |   2 C                |     2.91647  |     1.54333
    4 C                |   1 C                |     2.91647  |     1.54333
    4 C                |   2 C                |     2.91647  |     1.54333
    5 H                |   1 C                |     2.06645  |     1.09352
    6 H                |   1 C                |     2.06771  |     1.09418
    7 H                |   2 C                |     2.06645  |     1.09352
    8 H                |   2 C                |     2.06771  |     1.09418
    9 H                |   3 C                |     2.06645  |     1.09352
   10 H                |   3 C                |     2.06771  |     1.09418
   11 H                |   4 C                |     2.06645  |     1.09352
   12 H                |   4 C                |     2.06771  |     1.09418
 ------------------------------------------------------------------------------
                         number of included internuclear distances:         12
 ==============================================================================



 ==============================================================================
                                 internuclear angles
 ------------------------------------------------------------------------------
        center 1       |       center 2       |       center 3       |  degrees
 ------------------------------------------------------------------------------
    3 C                |   1 C                |   4 C                |    87.90
    3 C                |   1 C                |   5 H                |   118.47
    3 C                |   1 C                |   6 H                |   110.96
    4 C                |   1 C                |   5 H                |   118.47
    4 C                |   1 C                |   6 H                |   110.96
    5 H                |   1 C                |   6 H                |   108.75
    3 C                |   2 C                |   4 C                |    87.90
    3 C                |   2 C                |   7 H                |   118.47
    3 C                |   2 C                |   8 H                |   110.96
    4 C                |   2 C                |   7 H                |   118.47
    4 C                |   2 C                |   8 H                |   110.96
    7 H                |   2 C                |   8 H                |   108.75
    1 C                |   3 C                |   2 C                |    87.90
    1 C                |   3 C                |   9 H                |   118.47
    1 C                |   3 C                |  10 H                |   110.96
    2 C                |   3 C                |   9 H                |   118.47
    2 C                |   3 C                |  10 H                |   110.96
    9 H                |   3 C                |  10 H                |   108.75
    1 C                |   4 C                |   2 C                |    87.90
    1 C                |   4 C                |  11 H                |   118.47
    1 C                |   4 C                |  12 H                |   110.96
    2 C                |   4 C                |  11 H                |   118.47
    2 C                |   4 C                |  12 H                |   110.96
   11 H                |   4 C                |  12 H                |   108.75
 ------------------------------------------------------------------------------
                            number of included internuclear angles:         24
 ==============================================================================





 Summary of "ao basis" -> "" (cartesian)
 ------------------------------------------------------------------------------
       Tag                 Description            Shells   Functions and Types
 ---------------- ------------------------------  ------  ---------------------
 *                     6-311++G(3df,3pd)              on all atoms 



                                 NWChem DFT Module
                                 -----------------


                      Basis "ao basis" -> "ao basis" (cartesian)
                      -----
  C (Carbon)
  ----------
            Exponent  Coefficients 
       -------------- ---------------------------------------------------------
  1 S  4.56324000E+03  0.001967
  1 S  6.82024000E+02  0.015231
  1 S  1.54973000E+02  0.076127
  1 S  4.44553000E+01  0.260801
  1 S  1.30290000E+01  0.616462
  1 S  1.82773000E+00  0.221006

  2 S  2.09642000E+01  0.114660
  2 S  4.80331000E+00  0.919999
  2 S  1.45933000E+00 -0.003031

  3 P  2.09642000E+01  0.040249
  3 P  4.80331000E+00  0.237594
  3 P  1.45933000E+00  0.815854

  4 S  4.83456000E-01  1.000000

  5 P  4.83456000E-01  1.000000

  6 S  1.45585000E-01  1.000000

  7 P  1.45585000E-01  1.000000

  8 S  4.38000000E-02  1.000000

  9 P  4.38000000E-02  1.000000

 10 D  2.50400000E+00  1.000000

 11 D  6.26000000E-01  1.000000

 12 D  1.56500000E-01  1.000000

 13 F  8.00000000E-01  1.000000

  H (Hydrogen)
  ------------
            Exponent  Coefficients 
       -------------- ---------------------------------------------------------
  1 S  3.38650000E+01  0.025494
  1 S  5.09479000E+00  0.190373
  1 S  1.15879000E+00  0.852161

  2 S  3.25840000E-01  1.000000

  3 S  1.02741000E-01  1.000000

  4 S  3.60000000E-02  1.000000

  5 P  3.00000000E+00  1.000000

  6 P  7.50000000E-01  1.000000

  7 P  1.87500000E-01  1.000000

  8 D  1.00000000E+00  1.000000



 Summary of "ao basis" -> "ao basis" (cartesian)
 ------------------------------------------------------------------------------
       Tag                 Description            Shells   Functions and Types
 ---------------- ------------------------------  ------  ---------------------
 C                     6-311++G(3df,3pd)            13       45   5s4p3d1f
 H                     6-311++G(3df,3pd)             8       19   4s3p1d




 Summary of "ao basis" -> "ao basis" (cartesian)
 ------------------------------------------------------------------------------
       Tag                 Description            Shells   Functions and Types
 ---------------- ------------------------------  ------  ---------------------
 C                     6-311++G(3df,3pd)            13       45   5s4p3d1f
 H                     6-311++G(3df,3pd)             8       19   4s3p1d


      Symmetry analysis of basis
      --------------------------

        a1         59
        a2         24
        b1         24
        b2         59
        e         166

  Caching 1-el integrals 

            General Information
            -------------------
          SCF calculation type: DFT
          Wavefunction type:  closed shell.
          No. of atoms     :    12
          No. of electrons :    32
           Alpha electrons :    16
            Beta electrons :    16
          Charge           :     0
          Spin multiplicity:     1
          Use of symmetry is: on ; symmetry adaption is: on 
          Maximum number of iterations: ***
          AO basis - number of functions:   332
                     number of shells:   116
          Convergence on energy requested: 1.00D-06
          Convergence on density requested: 1.00D-05
          Convergence on gradient requested: 5.00D-04

              XC Information
              --------------
                  TPSS metaGGA Exchange Functional  1.000          
             TPSS03 metaGGA Correlation Functional  1.000          

             Grid Information
             ----------------
          Grid used for XC integration:  medium    
          Radial quadrature: Mura-Knowles        
          Angular quadrature: Lebedev. 
          Tag              B.-S. Rad. Rad. Pts. Rad. Cut. Ang. Pts.
          ---              ---------- --------- --------- ---------
          C                   0.70       49          13.0       434
          H                   0.35       45          14.0       434
          Grid pruning is: on 
          Number of quadrature shells:   139
          Spatial weights used:  Erf1

          Convergence Information
          -----------------------
          Convergence aids based upon iterative change in 
          total energy or number of iterations. 
          Levelshifting, if invoked, occurs when the 
          HOMO/LUMO gap drops below (HL_TOL): 1.00D-02
          DIIS, if invoked, will attempt to extrapolate 
          using up to (NFOCK): 10 stored Fock matrices.

                    Damping( 0%)  Levelshifting(0.5)       DIIS
                  --------------- ------------------- ---------------
          dE  on:    start            ASAP                start   
          dE off:    2 iters        *** iters           *** iters 


      Screening Tolerance Information
      -------------------------------
          Density screening/tol_rho: 1.00D-10
          AO Gaussian exp screening on grid/accAOfunc:  14
          CD Gaussian exp screening on grid/accCDfunc:  20
          XC Gaussian exp screening on grid/accXCfunc:  20
          Schwarz screening/accCoul: 1.00D-08


 WARNING : Found     2 linear dependencies 
 S eigenvalue threshold:     1.00000E-05
 Smallest S eigenvalue :     2.54304E-06
 Largest  S eigenvalue :     5.68245E-06


 !! The overlap matrix has   2 vectors deemed linearly dependent with
    eigenvalues:
 2.54D-06 5.68D-06


      Superposition of Atomic Density Guess
      -------------------------------------

 Sum of atomic energies:        -154.67501682

      Non-variational initial energy
      ------------------------------

 Total energy =    -157.781826
 1-e energy   =    -457.739334
 2-e energy   =     172.411278
 HOMO         =      -0.375598
 LUMO         =       0.025360


      Symmetry analysis of molecular orbitals - initial
      -------------------------------------------------

  Numbering of irreducible representations: 

     1 a1          2 a2          3 b1          4 b2          5 e       

  Orbital symmetries:

     1 a1          2 e           3 e           4 b2          5 a1      
     6 e           7 e           8 b2          9 b2         10 a1      
    11 e          12 e          13 b1         14 a1         15 e       
    16 e          17 a1         18 e          19 e          20 b2      
    21 b2         22 a1         23 e          24 e          25 e       
    26 e       

   Time after variat. SCF:     17.7
   Time prior to 1st pass:     17.7

 Integral file          = ./C4H8_Cyclobutane.aoints.0
 Record size in doubles =    65536    No. of integs per rec  =    32766
 Max. records in memory =        0    Max. records in file   = ********
 No. of bits per label  =       16    No. of bits per value  =       64


 #quartets = 3.346D+06 #integrals = 2.121D+08 #direct =  0.0% #cached =100.0%


 Grid_pts file          = ./C4H8_Cyclobutane.gridpts.0
 Record size in doubles =  12289        No. of grid_pts per rec  =   3070
 Max. records in memory =     23        Max. recs in file   = 995305875

 Grid integrated density:      31.981839768241
 Requested integration accuracy:   0.10E-05

           Memory utilization after 1st SCF pass: 
           Heap Space remaining (MW):       12.76            12764236
          Stack Space remaining (MW):       13.11            13105244

   convergence    iter        energy       DeltaE   RMS-Dens  Diis-err    time
 ---------------- ----- ----------------- --------- --------- ---------  ------
 d= 0,ls=0.0,diis     1   -157.2060410022 -2.85D+02  1.72D-03  4.71D-01    53.4
 Grid integrated density:      32.000100072566
 Requested integration accuracy:   0.10E-05
 d= 0,ls=0.0,diis     2   -157.2483491513 -4.23D-02  1.01D-03  4.43D-02    63.6
 Grid integrated density:      32.000102872291
 Requested integration accuracy:   0.10E-05
 d= 0,ls=0.0,diis     3   -157.2462756389  2.07D-03  4.75D-04  6.51D-02    74.6
 Grid integrated density:      32.000102478076
 Requested integration accuracy:   0.10E-05
 d= 0,ls=0.0,diis     4   -157.2538449311 -7.57D-03  4.58D-05  2.04D-04    86.5
 Grid integrated density:      32.000102156780
 Requested integration accuracy:   0.10E-05
 d= 0,ls=0.0,diis     5   -157.2539061253 -6.12D-05  1.76D-05  1.12D-05    97.9
 Grid integrated density:      32.000102212474
 Requested integration accuracy:   0.10E-05
  Resetting Diis
 d= 0,ls=0.0,diis     6   -157.2539025439  3.58D-06  2.67D-06  4.79D-08   109.2
 Grid integrated density:      32.000102208348
 Requested integration accuracy:   0.10E-05
 d= 0,ls=0.0,diis     7   -157.2539025194  2.46D-08  3.19D-07  1.76D-09   120.6


         Total DFT energy =     -157.253902519379
      One electron energy =     -462.335703895405
           Coulomb energy =      202.269197129125
          Exchange energy =      -23.660516686927
       Correlation energy =       -1.073109618199
 Nuclear repulsion energy =      127.546230552026

 Numeric. integr. density =       32.000102208348

     Total iterative time =    102.9s



                  Occupations of the irreducible representations
                  ----------------------------------------------

                     irrep           alpha         beta
                     --------     --------     --------
                     a1                4.0          4.0
                     a2                0.0          0.0
                     b1                1.0          1.0
                     b2                3.0          3.0
                     e                 8.0          8.0


                       DFT Final Molecular Orbital Analysis
                       ------------------------------------

 Vector    4  Occ=2.000000D+00  E=-1.000603D+01  Symmetry=b2
              MO Center=  1.9D-11,  2.9D-11,  6.6D-17, r^2= 1.2D+00
   Bfn.  Coefficient  Atom+Function         Bfn.  Coefficient  Atom+Function  
  ----- ------------  ---------------      ----- ------------  ---------------
     1      0.281996   1 C  s                46      0.281996   2 C  s         
    91     -0.281996   3 C  s               136     -0.281996   4 C  s         
     2      0.232517   1 C  s                47      0.232517   2 C  s         
    92     -0.232517   3 C  s               137     -0.232517   4 C  s         

 Vector    5  Occ=2.000000D+00  E=-7.861118D-01  Symmetry=a1
              MO Center=  4.7D-17, -5.3D-17,  2.4D-17, r^2= 1.5D+00
   Bfn.  Coefficient  Atom+Function         Bfn.  Coefficient  Atom+Function  
  ----- ------------  ---------------      ----- ------------  ---------------
     6      0.238067   1 C  s                51      0.238067   2 C  s         
    96      0.238067   3 C  s               141      0.238067   4 C  s         

 Vector    6  Occ=2.000000D+00  E=-6.064609D-01  Symmetry=e
              MO Center=  4.9D-16, -1.6D-16,  8.2D-02, r^2= 2.6D+00
   Bfn.  Coefficient  Atom+Function         Bfn.  Coefficient  Atom+Function  
  ----- ------------  ---------------      ----- ------------  ---------------
     6      0.282467   1 C  s                51     -0.282467   2 C  s         
    10      0.179435   1 C  s                55     -0.179435   2 C  s         
    96     -0.162527   3 C  s               141      0.162527   4 C  s         

 Vector    7  Occ=2.000000D+00  E=-6.064609D-01  Symmetry=e
              MO Center=  8.6D-15, -7.1D-15, -8.2D-02, r^2= 2.6D+00
   Bfn.  Coefficient  Atom+Function         Bfn.  Coefficient  Atom+Function  
  ----- ------------  ---------------      ----- ------------  ---------------
    96      0.282467   3 C  s               141     -0.282467   4 C  s         
   100      0.179435   3 C  s               145     -0.179435   4 C  s         
     6      0.162527   1 C  s                51     -0.162527   2 C  s         

 Vector    8  Occ=2.000000D+00  E=-5.071982D-01  Symmetry=b2
              MO Center= -4.6D-15,  2.3D-15, -3.9D-16, r^2= 3.1D+00
   Bfn.  Coefficient  Atom+Function         Bfn.  Coefficient  Atom+Function  
  ----- ------------  ---------------      ----- ------------  ---------------
     6      0.183921   1 C  s                51      0.183921   2 C  s         
    96     -0.183921   3 C  s               141     -0.183921   4 C  s         

 Vector    9  Occ=2.000000D+00  E=-4.392032D-01  Symmetry=b2
              MO Center= -3.1D-15, -8.2D-15,  1.4D-13, r^2= 3.0D+00
   Bfn.  Coefficient  Atom+Function         Bfn.  Coefficient  Atom+Function  
  ----- ------------  ---------------      ----- ------------  ---------------
   182     -0.113377   5 H  s               220     -0.113377   7 H  s         
   258      0.113377   9 H  s               296      0.113377  11 H  s         
     9      0.111986   1 C  pz               54      0.111986   2 C  pz        
    99      0.111986   3 C  pz              144      0.111986   4 C  pz        

 Vector   10  Occ=2.000000D+00  E=-4.376581D-01  Symmetry=a1
              MO Center= -7.7D-16,  2.8D-15, -1.4D-13, r^2= 2.9D+00
   Bfn.  Coefficient  Atom+Function         Bfn.  Coefficient  Atom+Function  
  ----- ------------  ---------------      ----- ------------  ---------------
     7      0.099447   1 C  px                8      0.099447   1 C  py        
    52     -0.099447   2 C  px               53     -0.099447   2 C  py        
    97     -0.099447   3 C  px               98      0.099447   3 C  py        
   142      0.099447   4 C  px              143     -0.099447   4 C  py        
    10      0.094759   1 C  s                55      0.094759   2 C  s         

 Vector   11  Occ=2.000000D+00  E=-3.487192D-01  Symmetry=e
              MO Center= -4.4D-15,  1.6D-15, -2.5D-01, r^2= 3.0D+00
   Bfn.  Coefficient  Atom+Function         Bfn.  Coefficient  Atom+Function  
  ----- ------------  ---------------      ----- ------------  ---------------
    99      0.168693   3 C  pz              144     -0.168693   4 C  pz        
   277     -0.163520  10 H  s               315      0.163520  12 H  s         

 Vector   12  Occ=2.000000D+00  E=-3.487192D-01  Symmetry=e
              MO Center=  1.0D-14,  1.1D-14,  2.5D-01, r^2= 3.0D+00
   Bfn.  Coefficient  Atom+Function         Bfn.  Coefficient  Atom+Function  
  ----- ------------  ---------------      ----- ------------  ---------------
     9      0.168693   1 C  pz               54     -0.168693   2 C  pz        
   201      0.163520   6 H  s               239     -0.163520   8 H  s         

 Vector   13  Occ=2.000000D+00  E=-3.147568D-01  Symmetry=b1
              MO Center= -2.0D-14,  2.5D-15, -7.5D-16, r^2= 2.1D+00
   Bfn.  Coefficient  Atom+Function         Bfn.  Coefficient  Atom+Function  
  ----- ------------  ---------------      ----- ------------  ---------------
     7      0.134028   1 C  px                8     -0.134028   1 C  py        
    52     -0.134028   2 C  px               53      0.134028   2 C  py        
    97     -0.134028   3 C  px               98     -0.134028   3 C  py        
   142      0.134028   4 C  px              143      0.134028   4 C  py        

 Vector   14  Occ=2.000000D+00  E=-2.847771D-01  Symmetry=a1
              MO Center= -2.2D-15, -1.8D-15,  6.4D-16, r^2= 3.4D+00
   Bfn.  Coefficient  Atom+Function         Bfn.  Coefficient  Atom+Function  
  ----- ------------  ---------------      ----- ------------  ---------------
   201      0.159103   6 H  s               239      0.159103   8 H  s         
   277      0.159103  10 H  s               315      0.159103  12 H  s         

 Vector   15  Occ=2.000000D+00  E=-2.704501D-01  Symmetry=e
              MO Center=  1.5D-14, -2.8D-15, -2.5D-03, r^2= 2.6D+00
   Bfn.  Coefficient  Atom+Function         Bfn.  Coefficient  Atom+Function  
  ----- ------------  ---------------      ----- ------------  ---------------
    10      0.211553   1 C  s                55     -0.211553   2 C  s         
   100     -0.200031   3 C  s               145      0.200031   4 C  s         
    12     -0.196559   1 C  py               57     -0.196559   2 C  py        
   102      0.189720   3 C  py              147      0.189720   4 C  py        
     8     -0.174881   1 C  py               53     -0.174881   2 C  py        

 Vector   16  Occ=2.000000D+00  E=-2.704501D-01  Symmetry=e
              MO Center=  2.2D-15, -2.2D-15,  2.5D-03, r^2= 2.6D+00
   Bfn.  Coefficient  Atom+Function         Bfn.  Coefficient  Atom+Function  
  ----- ------------  ---------------      ----- ------------  ---------------
   100      0.211553   3 C  s               145     -0.211553   4 C  s         
    10      0.200031   1 C  s                55     -0.200031   2 C  s         
   101      0.196559   3 C  px              146      0.196559   4 C  px        
    11     -0.189720   1 C  px               56     -0.189720   2 C  px        
     7     -0.174368   1 C  px               52     -0.174368   2 C  px        

 Vector   17  Occ=0.000000D+00  E=-1.957655D-02  Symmetry=a1
              MO Center=  6.3D-15,  6.4D-15,  8.9D-16, r^2= 1.6D+01
   Bfn.  Coefficient  Atom+Function         Bfn.  Coefficient  Atom+Function  
  ----- ------------  ---------------      ----- ------------  ---------------
    14      1.514663   1 C  s                59      1.514663   2 C  s         
   104      1.514663   3 C  s               149      1.514663   4 C  s         
   184     -0.777451   5 H  s               222     -0.777451   7 H  s         
   260     -0.777451   9 H  s               298     -0.777451  11 H  s         
   203     -0.763278   6 H  s               241     -0.763278   8 H  s         

 Vector   18  Occ=0.000000D+00  E=-5.258362D-03  Symmetry=b2
              MO Center=  8.2D-16, -2.2D-15, -1.4D-14, r^2= 1.6D+01
   Bfn.  Coefficient  Atom+Function         Bfn.  Coefficient  Atom+Function  
  ----- ------------  ---------------      ----- ------------  ---------------
   203      1.640678   6 H  s               241      1.640678   8 H  s         
   279     -1.640678  10 H  s               317     -1.640678  12 H  s         
   184     -0.755041   5 H  s               222     -0.755041   7 H  s         
   260      0.755041   9 H  s               298      0.755041  11 H  s         
    17     -0.599159   1 C  pz               62     -0.599159   2 C  pz        

 Vector   19  Occ=0.000000D+00  E=-2.288892D-03  Symmetry=e
              MO Center= -2.3D-13,  8.9D-14,  9.4D-02, r^2= 1.8D+01
   Bfn.  Coefficient  Atom+Function         Bfn.  Coefficient  Atom+Function  
  ----- ------------  ---------------      ----- ------------  ---------------
   104      5.728880   3 C  s               149     -5.728880   4 C  s         
   260     -2.268961   9 H  s               298      2.268961  11 H  s         
   279     -1.113326  10 H  s               317      1.113326  12 H  s         
    15      0.654692   1 C  px               60      0.654692   2 C  px        
    16     -0.648868   1 C  py               61     -0.648868   2 C  py        

 Vector   20  Occ=0.000000D+00  E=-2.288892D-03  Symmetry=e
              MO Center= -3.1D-15, -2.8D-14, -9.4D-02, r^2= 1.8D+01
   Bfn.  Coefficient  Atom+Function         Bfn.  Coefficient  Atom+Function  
  ----- ------------  ---------------      ----- ------------  ---------------
    14      5.728880   1 C  s                59     -5.728880   2 C  s         
   184     -2.268961   5 H  s               222      2.268961   7 H  s         
   203     -1.113326   6 H  s               241      1.113326   8 H  s         
   106     -0.654692   3 C  py              151     -0.654692   4 C  py        
   105     -0.648868   3 C  px              150     -0.648868   4 C  px        

 Vector   21  Occ=0.000000D+00  E= 2.909600D-02  Symmetry=b2
              MO Center= -7.7D-13,  2.5D-12, -1.2D-12, r^2= 2.1D+01
   Bfn.  Coefficient  Atom+Function         Bfn.  Coefficient  Atom+Function  
  ----- ------------  ---------------      ----- ------------  ---------------
   184      2.246123   5 H  s               222      2.246123   7 H  s         
   260     -2.246123   9 H  s               298     -2.246123  11 H  s         
   203      1.164818   6 H  s               241      1.164818   8 H  s         
   279     -1.164818  10 H  s               317     -1.164818  12 H  s         
    15     -0.562612   1 C  px               16     -0.562612   1 C  py        

 Vector   22  Occ=0.000000D+00  E= 3.219565D-02  Symmetry=a1
              MO Center= -8.2D-14,  1.1D-13,  1.2D-12, r^2= 2.0D+01
   Bfn.  Coefficient  Atom+Function         Bfn.  Coefficient  Atom+Function  
  ----- ------------  ---------------      ----- ------------  ---------------
    17      4.664939   1 C  pz               62      4.664939   2 C  pz        
   107     -4.664939   3 C  pz              152     -4.664939   4 C  pz        
   203     -4.390898   6 H  s               241     -4.390898   8 H  s         
   279     -4.390898  10 H  s               317     -4.390898  12 H  s         
   184      4.145121   5 H  s               222      4.145121   7 H  s         

 Vector   23  Occ=0.000000D+00  E= 3.598868D-02  Symmetry=e
              MO Center= -7.2D-13, -1.3D-12,  6.4D-01, r^2= 2.1D+01
   Bfn.  Coefficient  Atom+Function         Bfn.  Coefficient  Atom+Function  
  ----- ------------  ---------------      ----- ------------  ---------------
    14      8.079139   1 C  s                59     -8.079139   2 C  s         
   203     -4.622138   6 H  s               241      4.622138   8 H  s         
   184      4.320156   5 H  s               222     -4.320156   7 H  s         
    15     -2.589804   1 C  px               60     -2.589804   2 C  px        
   104     -2.570636   3 C  s               149      2.570636   4 C  s         

 Vector   24  Occ=0.000000D+00  E= 3.598868D-02  Symmetry=e
              MO Center=  3.6D-13,  4.5D-14, -6.4D-01, r^2= 2.1D+01
   Bfn.  Coefficient  Atom+Function         Bfn.  Coefficient  Atom+Function  
  ----- ------------  ---------------      ----- ------------  ---------------
   104      8.079139   3 C  s               149     -8.079139   4 C  s         
   279     -4.622138  10 H  s               317      4.622138  12 H  s         
   260      4.320156   9 H  s               298     -4.320156  11 H  s         
   106     -2.589804   3 C  py              151     -2.589804   4 C  py        
    14      2.570636   1 C  s                59     -2.570636   2 C  s         

 Vector   25  Occ=0.000000D+00  E= 6.279832D-02  Symmetry=b1
              MO Center=  1.2D-13,  2.1D-13,  2.8D-14, r^2= 1.4D+01
   Bfn.  Coefficient  Atom+Function         Bfn.  Coefficient  Atom+Function  
  ----- ------------  ---------------      ----- ------------  ---------------
    15      0.541482   1 C  px               16     -0.541482   1 C  py        
    60     -0.541482   2 C  px               61      0.541482   2 C  py        
   105     -0.541482   3 C  px              106     -0.541482   3 C  py        
   150      0.541482   4 C  px              151      0.541482   4 C  py        

 Vector   26  Occ=0.000000D+00  E= 8.175685D-02  Symmetry=e
              MO Center=  6.2D-12, -4.2D-12,  1.9D-02, r^2= 1.5D+01
   Bfn.  Coefficient  Atom+Function         Bfn.  Coefficient  Atom+Function  
  ----- ------------  ---------------      ----- ------------  ---------------
   104      9.415442   3 C  s               149     -9.415442   4 C  s         
    14     -4.543464   1 C  s                59      4.543464   2 C  s         
   105      3.635753   3 C  px              150      3.635753   4 C  px        
    15      3.517006   1 C  px               60      3.517006   2 C  px        
   260      2.759875   9 H  s               298     -2.759875  11 H  s         

 Vector   27  Occ=0.000000D+00  E= 8.175685D-02  Symmetry=e
              MO Center=  9.8D-13,  2.8D-13, -1.9D-02, r^2= 1.5D+01
   Bfn.  Coefficient  Atom+Function         Bfn.  Coefficient  Atom+Function  
  ----- ------------  ---------------      ----- ------------  ---------------
    14      9.415442   1 C  s                59     -9.415442   2 C  s         
   104      4.543464   3 C  s               149     -4.543464   4 C  s         
    16     -3.635753   1 C  py               61     -3.635753   2 C  py        
   106     -3.517006   3 C  py              151     -3.517006   4 C  py        
   184      2.759875   5 H  s               222     -2.759875   7 H  s         

 Vector   28  Occ=0.000000D+00  E= 8.571499D-02  Symmetry=a1
              MO Center= -1.2D-12, -2.3D-13,  3.8D-13, r^2= 1.6D+01
   Bfn.  Coefficient  Atom+Function         Bfn.  Coefficient  Atom+Function  
  ----- ------------  ---------------      ----- ------------  ---------------
   203     -2.961400   6 H  s               241     -2.961400   8 H  s         
   279     -2.961400  10 H  s               317     -2.961400  12 H  s         
   184      2.893115   5 H  s               222      2.893115   7 H  s         
   260      2.893115   9 H  s               298      2.893115  11 H  s         
    17      1.416182   1 C  pz               62      1.416182   2 C  pz        

 Vector   29  Occ=0.000000D+00  E= 1.020472D-01  Symmetry=e
              MO Center= -1.7D-13,  5.1D-12, -4.7D-02, r^2= 1.4D+01
   Bfn.  Coefficient  Atom+Function         Bfn.  Coefficient  Atom+Function  
  ----- ------------  ---------------      ----- ------------  ---------------
    14      5.094551   1 C  s                59     -5.094551   2 C  s         
   104     -4.513469   3 C  s               149      4.513469   4 C  s         
   203      3.222650   6 H  s               241     -3.222650   8 H  s         
   279     -2.855076  10 H  s               317      2.855076  12 H  s         
    17     -2.503169   1 C  pz               62      2.503169   2 C  pz        

 Vector   30  Occ=0.000000D+00  E= 1.020472D-01  Symmetry=e
              MO Center=  1.7D-11, -7.8D-13,  4.7D-02, r^2= 1.4D+01
   Bfn.  Coefficient  Atom+Function         Bfn.  Coefficient  Atom+Function  
  ----- ------------  ---------------      ----- ------------  ---------------
   104      5.094551   3 C  s               149     -5.094551   4 C  s         
    14      4.513469   1 C  s                59     -4.513469   2 C  s         
   279      3.222650  10 H  s               317     -3.222650  12 H  s         
   203      2.855076   6 H  s               241     -2.855076   8 H  s         
   107      2.503169   3 C  pz              152     -2.503169   4 C  pz        

 Vector   31  Occ=0.000000D+00  E= 1.026199D-01  Symmetry=b2
              MO Center= -1.8D-11,  8.1D-13,  3.4D-12, r^2= 1.5D+01
   Bfn.  Coefficient  Atom+Function         Bfn.  Coefficient  Atom+Function  
  ----- ------------  ---------------      ----- ------------  ---------------
   203      3.614385   6 H  s               241      3.614385   8 H  s         
   279     -3.614385  10 H  s               317     -3.614385  12 H  s         
    17     -1.690243   1 C  pz               62     -1.690243   2 C  pz        
   107     -1.690243   3 C  pz              152     -1.690243   4 C  pz        
    15     -1.384057   1 C  px               16     -1.384057   1 C  py        

 Vector   32  Occ=0.000000D+00  E= 1.070982D-01  Symmetry=a1
              MO Center= -5.0D-12,  3.6D-11, -1.6D-11, r^2= 1.9D+01
   Bfn.  Coefficient  Atom+Function         Bfn.  Coefficient  Atom+Function  
  ----- ------------  ---------------      ----- ------------  ---------------
    14      5.158567   1 C  s                59      5.158567   2 C  s         
   104      5.158567   3 C  s               149      5.158567   4 C  s         
    17      2.865018   1 C  pz               62      2.865018   2 C  pz        
   107     -2.865018   3 C  pz              152     -2.865018   4 C  pz        
   203     -2.182286   6 H  s               241     -2.182286   8 H  s         

 Vector   33  Occ=0.000000D+00  E= 1.129464D-01  Symmetry=b2
              MO Center=  1.3D-11,  4.2D-12,  1.3D-11, r^2= 1.6D+01
   Bfn.  Coefficient  Atom+Function         Bfn.  Coefficient  Atom+Function  
  ----- ------------  ---------------      ----- ------------  ---------------
   184      4.312300   5 H  s               222      4.312300   7 H  s         
   260     -4.312300   9 H  s               298     -4.312300  11 H  s         
    15     -2.608382   1 C  px               16     -2.608382   1 C  py        
    60      2.608382   2 C  px               61      2.608382   2 C  py        
   105     -2.608382   3 C  px              106      2.608382   3 C  py        

 Vector   34  Occ=0.000000D+00  E= 1.175320D-01  Symmetry=e
              MO Center= -2.8D-11, -2.7D-11, -8.3D-02, r^2= 1.9D+01
   Bfn.  Coefficient  Atom+Function         Bfn.  Coefficient  Atom+Function  
  ----- ------------  ---------------      ----- ------------  ---------------
    14     24.828502   1 C  s                59    -24.828502   2 C  s         
   184     -4.170526   5 H  s               222      4.170526   7 H  s         
   105     -3.682270   3 C  px              106     -3.698723   3 C  py        
   150     -3.682270   4 C  px              151     -3.698723   4 C  py        
   183     -3.341577   5 H  s               221      3.341577   7 H  s         

 Vector   35  Occ=0.000000D+00  E= 1.175320D-01  Symmetry=e
              MO Center=  9.0D-12, -2.4D-11,  8.3D-02, r^2= 1.9D+01
   Bfn.  Coefficient  Atom+Function         Bfn.  Coefficient  Atom+Function  
  ----- ------------  ---------------      ----- ------------  ---------------
   104     24.828502   3 C  s               149    -24.828502   4 C  s         
   260     -4.170526   9 H  s               298      4.170526  11 H  s         
    15      3.698723   1 C  px               16     -3.682270   1 C  py        
    60      3.698723   2 C  px               61     -3.682270   2 C  py        
   259     -3.341577   9 H  s               297      3.341577  11 H  s         

 Vector   36  Occ=0.000000D+00  E= 1.210335D-01  Symmetry=a2
              MO Center=  6.7D-12,  7.1D-12, -2.1D-14, r^2= 1.4D+01
   Bfn.  Coefficient  Atom+Function         Bfn.  Coefficient  Atom+Function  
  ----- ------------  ---------------      ----- ------------  ---------------
    15      5.396661   1 C  px               16     -5.396661   1 C  py        
    60     -5.396661   2 C  px               61      5.396661   2 C  py        
   105      5.396661   3 C  px              106      5.396661   3 C  py        
   150     -5.396661   4 C  px              151     -5.396661   4 C  py        
    11      1.496977   1 C  px               12     -1.496977   1 C  py        

 Vector   37  Occ=0.000000D+00  E= 1.442668D-01  Symmetry=a1
              MO Center= -4.1D-11, -9.0D-12,  4.7D-12, r^2= 1.9D+01
   Bfn.  Coefficient  Atom+Function         Bfn.  Coefficient  Atom+Function  
  ----- ------------  ---------------      ----- ------------  ---------------
    17     12.440759   1 C  pz               62     12.440759   2 C  pz        
   107    -12.440759   3 C  pz              152    -12.440759   4 C  pz        
   184      7.872528   5 H  s               222      7.872528   7 H  s         
   260      7.872528   9 H  s               298      7.872528  11 H  s         
   203     -7.464731   6 H  s               241     -7.464731   8 H  s         

 Vector   38  Occ=0.000000D+00  E= 1.470310D-01  Symmetry=e
              MO Center=  3.8D-11,  1.7D-11,  4.4D-01, r^2= 1.8D+01
   Bfn.  Coefficient  Atom+Function         Bfn.  Coefficient  Atom+Function  
  ----- ------------  ---------------      ----- ------------  ---------------
    14     30.258415   1 C  s                59    -30.258415   2 C  s         
   104    -10.031232   3 C  s               149     10.031232   4 C  s         
    15     -9.299480   1 C  px               60     -9.299480   2 C  px        
   184      8.870608   5 H  s               222     -8.870608   7 H  s         
    16     -7.600951   1 C  py               61     -7.600951   2 C  py        

 Vector   39  Occ=0.000000D+00  E= 1.470310D-01  Symmetry=e
              MO Center=  3.9D-12, -1.2D-11, -4.4D-01, r^2= 1.8D+01
   Bfn.  Coefficient  Atom+Function         Bfn.  Coefficient  Atom+Function  
  ----- ------------  ---------------      ----- ------------  ---------------
   104     30.258415   3 C  s               149    -30.258415   4 C  s         
    14     10.031232   1 C  s                59    -10.031232   2 C  s         
   106     -9.299480   3 C  py              151     -9.299480   4 C  py        
   260      8.870608   9 H  s               298     -8.870608  11 H  s         
   105      7.600951   3 C  px              150      7.600951   4 C  px        

 Vector   40  Occ=0.000000D+00  E= 1.485940D-01  Symmetry=b2
              MO Center=  2.0D-12,  1.5D-13, -3.4D-12, r^2= 1.5D+01
   Bfn.  Coefficient  Atom+Function         Bfn.  Coefficient  Atom+Function  
  ----- ------------  ---------------      ----- ------------  ---------------
   203      3.425221   6 H  s               241      3.425221   8 H  s         
   279     -3.425221  10 H  s               317     -3.425221  12 H  s         
   183     -2.331284   5 H  s               221     -2.331284   7 H  s         
   259      2.331284   9 H  s               297      2.331284  11 H  s         
    17     -1.863206   1 C  pz               62     -1.863206   2 C  pz        

 Vector   41  Occ=0.000000D+00  E= 1.898737D-01  Symmetry=e
              MO Center= -2.7D-12, -4.2D-12,  3.6D-01, r^2= 9.4D+00
   Bfn.  Coefficient  Atom+Function         Bfn.  Coefficient  Atom+Function  
  ----- ------------  ---------------      ----- ------------  ---------------
    14     13.427857   1 C  s                59    -13.427857   2 C  s         
   104     -5.655567   3 C  s               149      5.655567   4 C  s         
    15     -4.298867   1 C  px               60     -4.298867   2 C  px        
   105     -3.771069   3 C  px              150     -3.771069   4 C  px        
    10      2.464818   1 C  s                55     -2.464818   2 C  s         

 Vector   42  Occ=0.000000D+00  E= 1.898737D-01  Symmetry=e
              MO Center= -8.8D-13,  2.0D-12, -3.6D-01, r^2= 9.4D+00
   Bfn.  Coefficient  Atom+Function         Bfn.  Coefficient  Atom+Function  
  ----- ------------  ---------------      ----- ------------  ---------------
   104     13.427857   3 C  s               149    -13.427857   4 C  s         
    14      5.655567   1 C  s                59     -5.655567   2 C  s         
   106     -4.298867   3 C  py              151     -4.298867   4 C  py        
    16     -3.771069   1 C  py               61     -3.771069   2 C  py        
   100      2.464818   3 C  s               145     -2.464818   4 C  s         

 Vector   43  Occ=0.000000D+00  E= 1.958092D-01  Symmetry=b2
              MO Center=  2.2D-12,  3.6D-12, -4.9D-13, r^2= 1.3D+01
   Bfn.  Coefficient  Atom+Function         Bfn.  Coefficient  Atom+Function  
  ----- ------------  ---------------      ----- ------------  ---------------
   202      4.499444   6 H  s               240      4.499444   8 H  s         
   278     -4.499444  10 H  s               316     -4.499444  12 H  s         
   203      2.400735   6 H  s               241      2.400735   8 H  s         
   279     -2.400735  10 H  s               317     -2.400735  12 H  s         
    17     -2.247946   1 C  pz               62     -2.247946   2 C  pz        

 Vector   44  Occ=0.000000D+00  E= 2.136613D-01  Symmetry=a1
              MO Center=  1.7D-11, -6.6D-13,  1.6D-13, r^2= 1.1D+01
   Bfn.  Coefficient  Atom+Function         Bfn.  Coefficient  Atom+Function  
  ----- ------------  ---------------      ----- ------------  ---------------
    14      5.010972   1 C  s                59      5.010972   2 C  s         
   104      5.010972   3 C  s               149      5.010972   4 C  s         
   183     -4.991065   5 H  s               221     -4.991065   7 H  s         
   259     -4.991065   9 H  s               297     -4.991065  11 H  s         
    10      2.307584   1 C  s                55      2.307584   2 C  s         

 Vector   45  Occ=0.000000D+00  E= 2.228079D-01  Symmetry=a2
              MO Center=  1.2D-13, -9.2D-13, -9.5D-15, r^2= 6.5D+00
   Bfn.  Coefficient  Atom+Function         Bfn.  Coefficient  Atom+Function  
  ----- ------------  ---------------      ----- ------------  ---------------
    15      3.509218   1 C  px               16     -3.509218   1 C  py        
    60     -3.509218   2 C  px               61      3.509218   2 C  py        
   105      3.509218   3 C  px              106      3.509218   3 C  py        
   150     -3.509218   4 C  px              151     -3.509218   4 C  py        
    11      1.774009   1 C  px               12     -1.774009   1 C  py        

 Vector   46  Occ=0.000000D+00  E= 2.294333D-01  Symmetry=e
              MO Center=  1.5D-13,  2.9D-12,  2.6D-03, r^2= 1.2D+01
   Bfn.  Coefficient  Atom+Function         Bfn.  Coefficient  Atom+Function  
  ----- ------------  ---------------      ----- ------------  ---------------
   104      7.802000   3 C  s               149     -7.802000   4 C  s         
    14      5.919563   1 C  s                59     -5.919563   2 C  s         
   259      5.528840   9 H  s               297     -5.528840  11 H  s         
   105      4.922147   3 C  px              150      4.922147   4 C  px        
   106     -4.839471   3 C  py              151     -4.839471   4 C  py        

 Vector   47  Occ=0.000000D+00  E= 2.294333D-01  Symmetry=e
              MO Center= -1.5D-11, -1.4D-12, -2.6D-03, r^2= 1.2D+01
   Bfn.  Coefficient  Atom+Function         Bfn.  Coefficient  Atom+Function  
  ----- ------------  ---------------      ----- ------------  ---------------
    14      7.802000   1 C  s                59     -7.802000   2 C  s         
   104     -5.919563   3 C  s               149      5.919563   4 C  s         
   183      5.528840   5 H  s               221     -5.528840   7 H  s         
    16     -4.922147   1 C  py               61     -4.922147   2 C  py        
    15     -4.839471   1 C  px               60     -4.839471   2 C  px        

 Vector   48  Occ=0.000000D+00  E= 2.690727D-01  Symmetry=e
              MO Center= -1.4D-12,  2.4D-12, -2.5D-01, r^2= 1.2D+01
   Bfn.  Coefficient  Atom+Function         Bfn.  Coefficient  Atom+Function  
  ----- ------------  ---------------      ----- ------------  ---------------
   104     48.939626   3 C  s               149    -48.939626   4 C  s         
   278     -7.654236  10 H  s               316      7.654236  12 H  s         
   259     -6.567147   9 H  s               297      6.567147  11 H  s         
   106     -6.428477   3 C  py              151     -6.428477   4 C  py        
    14      5.688819   1 C  s                59     -5.688819   2 C  s         

 Vector   49  Occ=0.000000D+00  E= 2.690727D-01  Symmetry=e
              MO Center= -1.4D-12, -3.1D-12,  2.5D-01, r^2= 1.2D+01
   Bfn.  Coefficient  Atom+Function         Bfn.  Coefficient  Atom+Function  
  ----- ------------  ---------------      ----- ------------  ---------------
    14     48.939626   1 C  s                59    -48.939626   2 C  s         
   202     -7.654236   6 H  s               240      7.654236   8 H  s         
   183     -6.567147   5 H  s               221      6.567147   7 H  s         
    15     -6.428477   1 C  px               60     -6.428477   2 C  px        
   104     -5.688819   3 C  s               149      5.688819   4 C  s         

 Vector   50  Occ=0.000000D+00  E= 2.999021D-01  Symmetry=a2
              MO Center=  6.8D-15, -6.0D-14, -1.0D-14, r^2= 6.9D+00
   Bfn.  Coefficient  Atom+Function         Bfn.  Coefficient  Atom+Function  
  ----- ------------  ---------------      ----- ------------  ---------------
    15      1.833057   1 C  px               16     -1.833057   1 C  py        
    60     -1.833057   2 C  px               61      1.833057   2 C  py        
   105      1.833057   3 C  px              106      1.833057   3 C  py        
   150     -1.833057   4 C  px              151     -1.833057   4 C  py        
   191      0.419045   5 H  px              192     -0.419045   5 H  py        

 Vector   51  Occ=0.000000D+00  E= 3.022672D-01  Symmetry=b2
              MO Center= -3.0D-14, -5.1D-14, -1.3D-13, r^2= 8.4D+00
   Bfn.  Coefficient  Atom+Function         Bfn.  Coefficient  Atom+Function  
  ----- ------------  ---------------      ----- ------------  ---------------
   183      3.898546   5 H  s               221      3.898546   7 H  s         
   259     -3.898546   9 H  s               297     -3.898546  11 H  s         
   184      2.041863   5 H  s               222      2.041863   7 H  s         
   260     -2.041863   9 H  s               298     -2.041863  11 H  s         
    15     -1.902712   1 C  px               16     -1.902712   1 C  py        

 Vector   52  Occ=0.000000D+00  E= 3.041534D-01  Symmetry=a1
              MO Center= -1.6D-12, -2.3D-13, -6.1D-13, r^2= 1.3D+01
   Bfn.  Coefficient  Atom+Function         Bfn.  Coefficient  Atom+Function  
  ----- ------------  ---------------      ----- ------------  ---------------
    17     12.331968   1 C  pz               62     12.331968   2 C  pz        
   107    -12.331968   3 C  pz              152    -12.331968   4 C  pz        
   202     -9.245959   6 H  s               240     -9.245959   8 H  s         
   278     -9.245959  10 H  s               316     -9.245959  12 H  s         
   203     -6.591604   6 H  s               241     -6.591604   8 H  s         

 Vector   53  Occ=0.000000D+00  E= 3.113541D-01  Symmetry=a1
              MO Center=  4.5D-12, -3.6D-12,  3.9D-13, r^2= 1.1D+01
   Bfn.  Coefficient  Atom+Function         Bfn.  Coefficient  Atom+Function  
  ----- ------------  ---------------      ----- ------------  ---------------
   184      3.513210   5 H  s               222      3.513210   7 H  s         
   260      3.513210   9 H  s               298      3.513210  11 H  s         
    17      3.264330   1 C  pz               62      3.264330   2 C  pz        
   107     -3.264330   3 C  pz              152     -3.264330   4 C  pz        
   203     -2.886447   6 H  s               241     -2.886447   8 H  s         

 Vector   54  Occ=0.000000D+00  E= 3.429952D-01  Symmetry=e
              MO Center= -4.5D-12,  3.5D-12,  1.8D-01, r^2= 1.0D+01
   Bfn.  Coefficient  Atom+Function         Bfn.  Coefficient  Atom+Function  
  ----- ------------  ---------------      ----- ------------  ---------------
   104     17.767801   3 C  s               149    -17.767801   4 C  s         
   278     -8.013504  10 H  s               316      8.013504  12 H  s         
    14     -5.540153   1 C  s                59      5.540153   2 C  s         
   107     -4.569907   3 C  pz              152      4.569907   4 C  pz        
   279     -3.910790  10 H  s               317      3.910790  12 H  s         

 Vector   55  Occ=0.000000D+00  E= 3.429952D-01  Symmetry=e
              MO Center=  4.8D-13,  7.6D-13, -1.8D-01, r^2= 1.0D+01
   Bfn.  Coefficient  Atom+Function         Bfn.  Coefficient  Atom+Function  
  ----- ------------  ---------------      ----- ------------  ---------------
    14     17.767801   1 C  s                59    -17.767801   2 C  s         
   202     -8.013504   6 H  s               240      8.013504   8 H  s         
   104      5.540153   3 C  s               149     -5.540153   4 C  s         
    17      4.569907   1 C  pz               62     -4.569907   2 C  pz        
   203     -3.910790   6 H  s               241      3.910790   8 H  s         

 Vector   56  Occ=0.000000D+00  E= 3.523974D-01  Symmetry=b2
              MO Center=  9.8D-13, -2.0D-12, -1.4D-13, r^2= 1.0D+01
   Bfn.  Coefficient  Atom+Function         Bfn.  Coefficient  Atom+Function  
  ----- ------------  ---------------      ----- ------------  ---------------
   202      5.556950   6 H  s               240      5.556950   8 H  s         
   278     -5.556950  10 H  s               316     -5.556950  12 H  s         
   203      3.246389   6 H  s               241      3.246389   8 H  s         
   279     -3.246389  10 H  s               317     -3.246389  12 H  s         
   183     -3.166259   5 H  s               221     -3.166259   7 H  s         

 Vector   57  Occ=0.000000D+00  E= 3.600218D-01  Symmetry=b1
              MO Center=  3.8D-14,  5.6D-15, -9.1D-15, r^2= 8.7D+00
   Bfn.  Coefficient  Atom+Function         Bfn.  Coefficient  Atom+Function  
  ----- ------------  ---------------      ----- ------------  ---------------
    30      0.560962   1 C  dxx              33     -0.560962   1 C  dyy       
    75      0.560962   2 C  dxx              78     -0.560962   2 C  dyy       
   120      0.560962   3 C  dxx             123     -0.560962   3 C  dyy       
   165      0.560962   4 C  dxx             168     -0.560962   4 C  dyy       
    32     -0.512636   1 C  dxz              34      0.512636   1 C  dyz       

 Vector   58  Occ=0.000000D+00  E= 4.003878D-01  Symmetry=a1
              MO Center= -7.5D-13,  8.6D-13,  3.1D-13, r^2= 9.5D+00
   Bfn.  Coefficient  Atom+Function         Bfn.  Coefficient  Atom+Function  
  ----- ------------  ---------------      ----- ------------  ---------------
   183      6.889294   5 H  s               221      6.889294   7 H  s         
   259      6.889294   9 H  s               297      6.889294  11 H  s         
    17      4.934116   1 C  pz               62      4.934116   2 C  pz        
   107     -4.934116   3 C  pz              152     -4.934116   4 C  pz        
    14     -4.317355   1 C  s                59     -4.317355   2 C  s         

 Vector   59  Occ=0.000000D+00  E= 4.250967D-01  Symmetry=e
              MO Center=  4.2D-13, -5.2D-13, -3.4D-01, r^2= 9.4D+00
   Bfn.  Coefficient  Atom+Function         Bfn.  Coefficient  Atom+Function  
  ----- ------------  ---------------      ----- ------------  ---------------
   104      7.587698   3 C  s               149     -7.587698   4 C  s         
   259      6.377412   9 H  s               260      6.372964   9 H  s         
   297     -6.377412  11 H  s               298     -6.372964  11 H  s         
   107     -6.007110   3 C  pz              152      6.007110   4 C  pz        
   105      5.964187   3 C  px              150      5.964187   4 C  px        

 Vector   60  Occ=0.000000D+00  E= 4.250967D-01  Symmetry=e
              MO Center=  6.5D-13,  4.6D-13,  3.4D-01, r^2= 9.4D+00
   Bfn.  Coefficient  Atom+Function         Bfn.  Coefficient  Atom+Function  
  ----- ------------  ---------------      ----- ------------  ---------------
    14      7.587698   1 C  s                59     -7.587698   2 C  s         
   183      6.377412   5 H  s               184      6.372964   5 H  s         
   221     -6.377412   7 H  s               222     -6.372964   7 H  s         
    17      6.007110   1 C  pz               62     -6.007110   2 C  pz        
    16     -5.964187   1 C  py               61     -5.964187   2 C  py        

 Vector   61  Occ=0.000000D+00  E= 4.606737D-01  Symmetry=b2
              MO Center= -4.7D-12, -1.1D-11,  5.0D-13, r^2= 1.0D+01
   Bfn.  Coefficient  Atom+Function         Bfn.  Coefficient  Atom+Function  
  ----- ------------  ---------------      ----- ------------  ---------------
   202      4.374826   6 H  s               240      4.374826   8 H  s         
   278     -4.374826  10 H  s               316     -4.374826  12 H  s         
   183      3.444597   5 H  s               221      3.444597   7 H  s         
   259     -3.444597   9 H  s               297     -3.444597  11 H  s         
    11     -2.157261   1 C  px               12     -2.157261   1 C  py        

 Vector   62  Occ=0.000000D+00  E= 4.701498D-01  Symmetry=e
              MO Center= -1.7D-12,  3.8D-12,  1.6D-02, r^2= 9.8D+00
   Bfn.  Coefficient  Atom+Function         Bfn.  Coefficient  Atom+Function  
  ----- ------------  ---------------      ----- ------------  ---------------
   259      7.361685   9 H  s               297     -7.361685  11 H  s         
   104     -6.574009   3 C  s               149      6.574009   4 C  s         
   100     -3.963750   3 C  s               145      3.963750   4 C  s         
   103     -3.304391   3 C  pz              148      3.304391   4 C  pz        
   183     -2.649430   5 H  s               221      2.649430   7 H  s         

 Vector   63  Occ=0.000000D+00  E= 4.701498D-01  Symmetry=e
              MO Center=  6.0D-12,  2.8D-12, -1.6D-02, r^2= 9.8D+00
   Bfn.  Coefficient  Atom+Function         Bfn.  Coefficient  Atom+Function  
  ----- ------------  ---------------      ----- ------------  ---------------
   183      7.361685   5 H  s               221     -7.361685   7 H  s         
    14     -6.574009   1 C  s                59      6.574009   2 C  s         
    10     -3.963750   1 C  s                55      3.963750   2 C  s         
    13      3.304391   1 C  pz               58     -3.304391   2 C  pz        
   259      2.649430   9 H  s               297     -2.649430  11 H  s         

 Vector   64  Occ=0.000000D+00  E= 4.711934D-01  Symmetry=b1
              MO Center= -4.6D-14,  8.4D-14,  8.4D-14, r^2= 6.9D+00
   Bfn.  Coefficient  Atom+Function         Bfn.  Coefficient  Atom+Function  
  ----- ------------  ---------------      ----- ------------  ---------------
    32      2.462426   1 C  dxz              34     -2.462426   1 C  dyz       
    77     -2.462426   2 C  dxz              79      2.462426   2 C  dyz       
   122      2.462426   3 C  dxz             124      2.462426   3 C  dyz       
   167     -2.462426   4 C  dxz             169     -2.462426   4 C  dyz       
   210     -1.141315   6 H  px              211      1.141315   6 H  py        

 Vector   65  Occ=0.000000D+00  E= 4.715131D-01  Symmetry=a1
              MO Center=  2.0D-12, -1.9D-13, -4.5D-13, r^2= 1.0D+01
   Bfn.  Coefficient  Atom+Function         Bfn.  Coefficient  Atom+Function  
  ----- ------------  ---------------      ----- ------------  ---------------
    14      2.542476   1 C  s                59      2.542476   2 C  s         
   104      2.542476   3 C  s               149      2.542476   4 C  s         
    10      2.252076   1 C  s                13      2.257487   1 C  pz        
    55      2.252076   2 C  s                58      2.257487   2 C  pz        
   100      2.252076   3 C  s               103     -2.257487   3 C  pz        

 Vector   66  Occ=0.000000D+00  E= 4.832807D-01  Symmetry=b2
              MO Center=  5.1D-14, -2.4D-14,  4.1D-13, r^2= 9.1D+00
   Bfn.  Coefficient  Atom+Function         Bfn.  Coefficient  Atom+Function  
  ----- ------------  ---------------      ----- ------------  ---------------
   202      2.072231   6 H  s               240      2.072231   8 H  s         
   278     -2.072231  10 H  s               316     -2.072231  12 H  s         
    13     -1.307414   1 C  pz               58     -1.307414   2 C  pz        
   103     -1.307414   3 C  pz              148     -1.307414   4 C  pz        
   203     -1.259972   6 H  s               241     -1.259972   8 H  s         

 Vector   67  Occ=0.000000D+00  E= 5.040289D-01  Symmetry=a1
              MO Center= -2.8D-13, -7.5D-14, -5.0D-13, r^2= 8.8D+00
   Bfn.  Coefficient  Atom+Function         Bfn.  Coefficient  Atom+Function  
  ----- ------------  ---------------      ----- ------------  ---------------
    17      3.278367   1 C  pz               62      3.278367   2 C  pz        
   107     -3.278367   3 C  pz              152     -3.278367   4 C  pz        
   183     -2.662034   5 H  s               221     -2.662034   7 H  s         
   259     -2.662034   9 H  s               297     -2.662034  11 H  s         
   203     -2.528170   6 H  s               241     -2.528170   8 H  s         


 center of mass
 --------------
 x =  -0.00000000 y =  -0.00000000 z =   0.00000000

 moments of inertia (a.u.)
 ------------------
         167.372680000624          -0.000000000000           0.000000000000
          -0.000000000000         167.372680000624           0.000000000000
           0.000000000000           0.000000000000         279.459860441310

     Multipole analysis of the density
     ---------------------------------

     L   x y z        total         alpha         beta         nuclear
     -   - - -        -----         -----         ----         -------
     0   0 0 0      0.000000    -16.000000    -16.000000     32.000000

     1   1 0 0      0.000000      0.000000      0.000000      0.000000
     1   0 1 0      0.000000      0.000000      0.000000     -0.000000
     1   0 0 1      0.000000      0.000000      0.000000      0.000000

     2   2 0 0    -20.539838    -55.390719    -55.390719     90.241600
     2   1 1 0      0.000000      0.000000      0.000000      0.000000
     2   1 0 1     -0.000000     -0.000000     -0.000000      0.000000
     2   0 2 0    -20.539838    -55.390719    -55.390719     90.241600
     2   0 1 1     -0.000000     -0.000000     -0.000000      0.000000
     2   0 0 2    -19.505057    -22.547184    -22.547184     25.589311


------------------------------------------------------------
EAF file 0: "./C4H8_Cyclobutane.aoints.0" size=3393716224 bytes
------------------------------------------------------------
               write      read    awrite     aread      wait
               -----      ----    ------     -----      ----
     calls:     6473         6         0     38832     38832
   data(b): 3.39e+09  3.15e+06  0.00e+00  2.04e+10
   time(s): 0.00e+00  0.00e+00  0.00e+00  0.00e+00  0.00e+00
rate(mb/s): 0.00e+00  0.00e+00
------------------------------------------------------------


 Parallel integral file used    6473 records with       0 large values


 Task  times  cpu:      122.9s     wall:      139.4s


                                NWChem Input Module
                                -------------------


 Summary of allocated global arrays
-----------------------------------
  No active global arrays



                         GA Statistics for process    0
                         ------------------------------

       create   destroy   get      put      acc     scatter   gather  read&inc
calls:  230      230     1.05e+05 3.41e+04 5.14e+04    0        0     3612     
number of processes/call 1.00e+00 1.00e+00 1.00e+00 0.00e+00 0.00e+00
bytes total:             7.65e+08 2.02e+08 5.14e+08 0.00e+00 0.00e+00 2.89e+04
bytes remote:            0.00e+00 0.00e+00 0.00e+00 0.00e+00 0.00e+00 0.00e+00
Max memory consumed for GA by this process: 34389888 bytes

MA_summarize_allocated_blocks: starting scan ...
MA_summarize_allocated_blocks: scan completed: 0 heap blocks, 0 stack blocks
MA usage statistics:

	allocation statistics:
					      heap	     stack
					      ----	     -----
	current number of blocks	         0	         0
	maximum number of blocks	        23	        55
	current total bytes		         0	         0
	maximum total bytes		   2742432	  34562280
	maximum total K-bytes		      2743	     34563
	maximum total M-bytes		         3	        35


                                     CITATION
                                     --------
                Please cite the following reference when publishing
                           results obtained with NWChem:

                 M. Valiev, E.J. Bylaska, N. Govind, K. Kowalski,
              T.P. Straatsma, H.J.J. van Dam, D. Wang, J. Nieplocha,
                        E. Apra, T.L. Windus, W.A. de Jong
                 "NWChem: a comprehensive and scalable open-source
                  solution for large scale molecular simulations"
                      Comput. Phys. Commun. 181, 1477 (2010)
                           doi:10.1016/j.cpc.2010.04.018

                                      AUTHORS
                                      -------
          E. Apra, E. J. Bylaska, W. A. de Jong, N. Govind, K. Kowalski,
       T. P. Straatsma, M. Valiev, H. J. J. van Dam, D. Wang, T. L. Windus,
        J. Hammond, J. Autschbach, K. Bhaskaran-Nair, J. Brabec, K. Lopata,
       S. A. Fischer, S. Krishnamoorthy, W. Ma, M. Klemm, O. Villa, Y. Chen,
    V. Anisimov, F. Aquino, S. Hirata, M. T. Hackler, T. Risthaus, M. Malagoli,
       A. Marenich, A. Otero-de-la-Roza, J. Mullin, P. Nichols, R. Peverati,
     J. Pittner, Y. Zhao, P.-D. Fan, A. Fonari, M. Williamson, R. J. Harrison,
       J. R. Rehr, M. Dupuis, D. Silverstein, D. M. A. Smith, J. Nieplocha,
        V. Tipparaju, M. Krishnan, B. E. Van Kuiken, A. Vazquez-Mayagoitia,
        L. Jensen, M. Swart, Q. Wu, T. Van Voorhis, A. A. Auer, M. Nooijen,
      L. D. Crosby, E. Brown, G. Cisneros, G. I. Fann, H. Fruchtl, J. Garza,
        K. Hirao, R. A. Kendall, J. A. Nichols, K. Tsemekhman, K. Wolinski,
     J. Anchell, D. E. Bernholdt, P. Borowski, T. Clark, D. Clerc, H. Dachsel,
   M. J. O. Deegan, K. Dyall, D. Elwood, E. Glendening, M. Gutowski, A. C. Hess,
         J. Jaffe, B. G. Johnson, J. Ju, R. Kobayashi, R. Kutteh, Z. Lin,
   R. Littlefield, X. Long, B. Meng, T. Nakajima, S. Niu, L. Pollack, M. Rosing,
   K. Glaesemann, G. Sandrone, M. Stave, H. Taylor, G. Thomas, J. H. van Lenthe,
                               A. T. Wong, Z. Zhang.

 Total times  cpu:      122.9s     wall:      139.6s
