--------------------------------------------------------------------------
MPI_ABORT was invoked on rank 0 in communicator MPI COMMUNICATOR 4 DUP FROM 0 
with errorcode -1.

NOTE: invoking MPI_ABORT causes Open MPI to kill all MPI processes.
You may or may not see output from other processes, depending on
exactly when Open MPI kills them.
--------------------------------------------------------------------------
-------------------------------------------------------
Primary job  terminated normally, but 1 process returned
a non-zero exit code.. Per user-direction, the job has been aborted.
-------------------------------------------------------
--------------------------------------------------------------------------
mpirun detected that one or more processes exited with non-zero status, thus causing
the job to be terminated. The first process to do so was:

  Process name: [[26268,1],0]
  Exit code:    255
--------------------------------------------------------------------------
[1537853324.855394] [kalinga:3006 :0]         sys.c:744  MXM  WARN  Conflicting CPU frequencies detected, using: 3599.95
[1537853324.860448] [kalinga:3006 :0]         mxm.c:196  MXM  WARN  The 'ulimit -s' on the system is set to 'unlimited'. This may have negative performance implications. Please set the stack size to the default value (10240) 
[1537853324.862393] [kalinga:3006 :0]         mxm.c:196  MXM  WARN  The 'ulimit -s' on the system is set to 'unlimited'. This may have negative performance implications. Please set the stack size to the default value (10240) 
 argument  1 = F2.xyz.nw
                                         
                                         


              Northwest Computational Chemistry Package (NWChem) 6.6
              ------------------------------------------------------


                    Environmental Molecular Sciences Laboratory
                       Pacific Northwest National Laboratory
                                Richland, WA 99352

                              Copyright (c) 1994-2015
                       Pacific Northwest National Laboratory
                            Battelle Memorial Institute

             NWChem is an open-source computational chemistry package
                        distributed under the terms of the
                      Educational Community License (ECL) 2.0
             A copy of the license is included with this distribution
                              in the LICENSE.TXT file

                                  ACKNOWLEDGMENT
                                  --------------

            This software and its documentation were developed at the
            EMSL at Pacific Northwest National Laboratory, a multiprogram
            national laboratory, operated for the U.S. Department of Energy
            by Battelle under Contract Number DE-AC05-76RL01830. Support
            for this work was provided by the Department of Energy Office
            of Biological and Environmental Research, Office of Basic
            Energy Sciences, and the Office of Advanced Scientific Computing.


           Job information
           ---------------

    hostname        = kalinga
    program         = /home/bikashp/Code/nwchem-6.6_tpssloc/bin/LINUX64//nwchem
    date            = Tue Sep 25 10:58:45 2018

    compiled        = Tue_Sep_18_16:24:59_2018
    source          = /home/bikashp/Code/nwchem-6.6_tpssloc
    nwchem branch   = 6.6
    nwchem revision = 27746
    ga revision     = 10594
    input           = F2.xyz.nw
    prefix          = F2.xyz.
    data base       = ./F2.xyz.db
    status          = startup
    nproc           =        1
    time left       =     -1s



           Memory information
           ------------------

    heap     =   13107196 doubles =    100.0 Mbytes
    stack    =   13107201 doubles =    100.0 Mbytes
    global   =   26214400 doubles =    200.0 Mbytes (distinct from heap & stack)
    total    =   52428797 doubles =    400.0 Mbytes
    verify   = yes
    hardfail = no 


           Directory information
           ---------------------

  0 permanent = .
  0 scratch   = .




                                NWChem Input Module
                                -------------------



 Scaling coordinates for geometry "geometry" by  1.889725989
 (inverse scale =  0.529177249)

 ORDER OF PRIMARY AXIS IS BEING SET TO 4
 D4H symmetry detected

          ------
          auto-z
          ------
     1 autoz failed with cvr_scaling = 1.2 changing to 1.3


                             Geometry "geometry" -> ""
                             -------------------------

 Output coordinates in angstroms (scale by  1.889725989 to convert to a.u.)

  No.       Tag          Charge          X              Y              Z
 ---- ---------------- ---------- -------------- -------------- --------------
    1 F                    9.0000     0.00000000     0.00000000    -0.69760000
    2 F                    9.0000     0.00000000     0.00000000     0.69760000

      Atomic Mass 
      ----------- 

      F                 18.998400


 Effective nuclear repulsion energy (a.u.)      30.7220163195

            Nuclear Dipole moment (a.u.) 
            ----------------------------
        X                 Y               Z
 ---------------- ---------------- ----------------
     0.0000000000     0.0000000000     0.0000000000

      Symmetry information
      --------------------

 Group name             D4h       
 Group number             28
 Group order              16
 No. of unique centers     1

      Symmetry unique atoms

     1



                                Z-matrix (autoz)
                                -------- 

 Units are Angstrom for bonds and degrees for angles

      Type          Name      I     J     K     L     M      Value
      ----------- --------  ----- ----- ----- ----- ----- ----------
    1 Stretch                  1     2                       1.39520


            XYZ format geometry
            -------------------
     2
 geometry
 F                     0.00000000     0.00000000    -0.69760000
 F                     0.00000000     0.00000000     0.69760000



 Summary of "ao basis" -> "" (cartesian)
 ------------------------------------------------------------------------------
       Tag                 Description            Shells   Functions and Types
 ---------------- ------------------------------  ------  ---------------------
 *                     6-311++G(3df,3pd)              on all atoms 




                           NWChem Geometry Optimization
                           ----------------------------


 maximum gradient threshold         (gmax) =   0.000450
 rms gradient threshold             (grms) =   0.000300
 maximum cartesian step threshold   (xmax) =   0.001800
 rms cartesian step threshold       (xrms) =   0.001200
 fixed trust radius                (trust) =   0.300000
 maximum step size to saddle      (sadstp) =   0.100000
 energy precision                  (eprec) =   5.0D-06
 maximum number of steps          (nptopt) =   20
 initial hessian option           (inhess) =    0
 line search option               (linopt) =    1
 hessian update option            (modupd) =    1
 saddle point option              (modsad) =    0
 initial eigen-mode to follow     (moddir) =    0
 initial variable to follow       (vardir) =    0
 follow first negative mode     (firstneg) =    T
 apply conjugacy                    (opcg) =    F
 source of zmatrix                         =   autoz   


          -------------------
          Energy Minimization
          -------------------


 Names of Z-matrix variables 
    1         

 Variables with the same non-blank name are constrained to be equal


 Using old Hessian from previous optimization

          --------
          Step   0
          --------


                         Geometry "geometry" -> "geometry"
                         ---------------------------------

 Output coordinates in angstroms (scale by  1.889725989 to convert to a.u.)

  No.       Tag          Charge          X              Y              Z
 ---- ---------------- ---------- -------------- -------------- --------------
    1 F                    9.0000     0.00000000     0.00000000    -0.69760000
    2 F                    9.0000     0.00000000     0.00000000     0.69760000

      Atomic Mass 
      ----------- 

      F                 18.998400


 Effective nuclear repulsion energy (a.u.)      30.7220163195

            Nuclear Dipole moment (a.u.) 
            ----------------------------
        X                 Y               Z
 ---------------- ---------------- ----------------
     0.0000000000     0.0000000000     0.0000000000

      Symmetry information
      --------------------

 Group name             D4h       
 Group number             28
 Group order              16
 No. of unique centers     1

      Symmetry unique atoms

     1


                                 NWChem DFT Module
                                 -----------------


                      Basis "ao basis" -> "ao basis" (cartesian)
                      -----
  F (Fluorine)
  ------------
            Exponent  Coefficients 
       -------------- ---------------------------------------------------------
  1 S  1.14271000E+04  0.001801
  1 S  1.72235000E+03  0.013742
  1 S  3.95746000E+02  0.068133
  1 S  1.15139000E+02  0.233325
  1 S  3.36026000E+01  0.589086
  1 S  4.91901000E+00  0.299505

  2 S  5.54441000E+01  0.114536
  2 S  1.26323000E+01  0.920512
  2 S  3.71756000E+00 -0.003378

  3 P  5.54441000E+01  0.035461
  3 P  1.26323000E+01  0.237451
  3 P  3.71756000E+00  0.820458

  4 S  1.16545000E+00  1.000000

  5 P  1.16545000E+00  1.000000

  6 S  3.21892000E-01  1.000000

  7 P  3.21892000E-01  1.000000

  8 S  1.07600000E-01  1.000000

  9 P  1.07600000E-01  1.000000

 10 D  7.00000000E+00  1.000000

 11 D  1.75000000E+00  1.000000

 12 D  4.37500000E-01  1.000000

 13 F  1.85000000E+00  1.000000



 Summary of "ao basis" -> "ao basis" (cartesian)
 ------------------------------------------------------------------------------
       Tag                 Description            Shells   Functions and Types
 ---------------- ------------------------------  ------  ---------------------
 F                     6-311++G(3df,3pd)            13       45   5s4p3d1f




 Summary of "ao basis" -> "ao basis" (cartesian)
 ------------------------------------------------------------------------------
       Tag                 Description            Shells   Functions and Types
 ---------------- ------------------------------  ------  ---------------------
 F                     6-311++G(3df,3pd)            13       45   5s4p3d1f


      Symmetry analysis of basis
      --------------------------

        a1g        17
        a1u         0
        a2g         0
        a2u        17
        b1g         4
        b1u         4
        b2g         4
        b2u         4
        eg         20
        eu         20

  Caching 1-el integrals 

            General Information
            -------------------
          SCF calculation type: DFT
          Wavefunction type:  closed shell.
          No. of atoms     :     2
          No. of electrons :    18
           Alpha electrons :     9
            Beta electrons :     9
          Charge           :     0
          Spin multiplicity:     1
          Use of symmetry is: on ; symmetry adaption is: on 
          Maximum number of iterations: ***
          AO basis - number of functions:    90
                     number of shells:    26
          Convergence on energy requested: 1.00D-06
          Convergence on density requested: 1.00D-05
          Convergence on gradient requested: 5.00D-04

              XC Information
              --------------
                  TPSS metaGGA Exchange Functional  1.000          
             TPSS03 metaGGA Correlation Functional  1.000          

             Grid Information
             ----------------
          Grid used for XC integration:  medium    
          Radial quadrature: Mura-Knowles        
          Angular quadrature: Lebedev. 
          Tag              B.-S. Rad. Rad. Pts. Rad. Cut. Ang. Pts.
          ---              ---------- --------- --------- ---------
          F                   0.50       49           7.0       434
          Grid pruning is: on 
          Number of quadrature shells:    49
          Spatial weights used:  Erf1

          Convergence Information
          -----------------------
          Convergence aids based upon iterative change in 
          total energy or number of iterations. 
          Levelshifting, if invoked, occurs when the 
          HOMO/LUMO gap drops below (HL_TOL): 1.00D-02
          DIIS, if invoked, will attempt to extrapolate 
          using up to (NFOCK): 10 stored Fock matrices.

                    Damping( 0%)  Levelshifting(0.5)       DIIS
                  --------------- ------------------- ---------------
          dE  on:    start            ASAP                start   
          dE off:    2 iters        *** iters           *** iters 


      Screening Tolerance Information
      -------------------------------
          Density screening/tol_rho: 1.00D-10
          AO Gaussian exp screening on grid/accAOfunc:  14
          CD Gaussian exp screening on grid/accCDfunc:  20
          XC Gaussian exp screening on grid/accXCfunc:  20
          Schwarz screening/accCoul: 1.00D-08


      Superposition of Atomic Density Guess
      -------------------------------------

 Sum of atomic energies:        -198.81574666

      Non-variational initial energy
      ------------------------------

 Total energy =    -198.589819
 1-e energy   =    -339.785097
 2-e energy   =     110.473262
 HOMO         =      -0.493824
 LUMO         =      -0.186399


      Symmetry analysis of molecular orbitals - initial
      -------------------------------------------------

  Numbering of irreducible representations: 

     1 a1g         2 a1u         3 a2g         4 a2u         5 b1g     
     6 b1u         7 b2g         8 b2u         9 eg         10 eu      

  Orbital symmetries:

     1 a1g         2 a2u         3 a1g         4 a2u         5 a1g     
     6 eu          7 eu          8 eg          9 eg         10 a2u     
    11 a1g        12 a2u        13 eu         14 eu         15 eg      
    16 eg         17 a1g        18 a2u        19 b1g     

   Time after variat. SCF:      0.3
   Time prior to 1st pass:      0.3

 Integral file          = ./F2.xyz.aoints.0
 Record size in doubles =    65536    No. of integs per rec  =    43688
 Max. records in memory =       23    Max. records in file   = ********
 No. of bits per label  =        8    No. of bits per value  =       64


 #quartets = 4.127D+04 #integrals = 1.434D+06 #direct =  0.0% #cached =100.0%


 Grid_pts file          = ./F2.xyz.gridpts.0
 Record size in doubles =  12289        No. of grid_pts per rec  =   3070
 Max. records in memory =      9        Max. recs in file   = 995462757


           Memory utilization after 1st SCF pass: 
           Heap Space remaining (MW):       11.49            11486300
          Stack Space remaining (MW):       13.11            13106644

   convergence    iter        energy       DeltaE   RMS-Dens  Diis-err    time
 ---------------- ----- ----------------- --------- --------- ---------  ------
 d= 0,ls=0.0,diis     1   -199.5840392101 -2.30D+02  1.04D-02  1.10D+00     0.8
 d= 0,ls=0.0,diis     2   -199.6055825215 -2.15D-02  2.47D-03  1.92D-01     0.9
 d= 0,ls=0.0,diis     3   -199.5992358354  6.35D-03  1.06D-03  4.80D-02     1.0
 d= 0,ls=0.0,diis     4   -199.6090338756 -9.80D-03  1.78D-04  1.41D-03     1.1
 d= 0,ls=0.0,diis     5   -199.6077466324  1.29D-03  2.45D-05  2.64D-05     1.2
  Resetting Diis
 d= 0,ls=0.0,diis     6   -199.6078524753 -1.06D-04  2.22D-06  1.61D-07     1.3
 d= 0,ls=0.0,diis     7   -199.6078641344 -1.17D-05  2.72D-07  5.52D-10     1.5
 d= 0,ls=0.0,diis     8   -199.6078658838 -1.75D-06  1.06D-07  6.22D-10     1.6
 d= 0,ls=0.0,diis     9   -199.6078649859  8.98D-07  5.79D-09  9.51D-13     1.7


         Total DFT energy =     -199.607864985918
      One electron energy =     -338.563867650162
           Coulomb energy =      128.916738412937
          Exchange energy =      -20.048538612891
       Correlation energy =       -0.634213455308
 Nuclear repulsion energy =       30.722016319507

 Numeric. integr. density =       18.000000947198

     Total iterative time =      1.3s



                  Occupations of the irreducible representations
                  ----------------------------------------------

                     irrep           alpha         beta
                     --------     --------     --------
                     a1g               3.0          3.0
                     a1u               0.0          0.0
                     a2g               0.0          0.0
                     a2u               2.0          2.0
                     b1g               0.0          0.0
                     b1u               0.0          0.0
                     b2g               0.0          0.0
                     b2u               0.0          0.0
                     eg                2.0          2.0
                     eu                2.0          2.0


                       DFT Final Molecular Orbital Analysis
                       ------------------------------------

 Vector    1  Occ=2.000000D+00  E=-2.460431D+01  Symmetry=a1g
              MO Center= -2.2D-26,  7.7D-26,  1.5D-08, r^2= 5.0D-01
   Bfn.  Coefficient  Atom+Function         Bfn.  Coefficient  Atom+Function  
  ----- ------------  ---------------      ----- ------------  ---------------
     1      0.387009  1 F  s                 46      0.387009  2 F  s          
     2      0.334232  1 F  s                 47      0.334232  2 F  s          

 Vector    2  Occ=2.000000D+00  E=-2.460431D+01  Symmetry=a2u
              MO Center=  4.1D-34,  3.1D-34, -1.5D-08, r^2= 5.0D-01
   Bfn.  Coefficient  Atom+Function         Bfn.  Coefficient  Atom+Function  
  ----- ------------  ---------------      ----- ------------  ---------------
     1      0.387006  1 F  s                 46     -0.387006  2 F  s          
     2      0.334260  1 F  s                 47     -0.334260  2 F  s          

 Vector    3  Occ=2.000000D+00  E=-1.355116D+00  Symmetry=a1g
              MO Center=  2.5D-16,  2.5D-16, -1.9D-16, r^2= 6.2D-01
   Bfn.  Coefficient  Atom+Function         Bfn.  Coefficient  Atom+Function  
  ----- ------------  ---------------      ----- ------------  ---------------
    10      0.505287  1 F  s                 55      0.505287  2 F  s          
     6      0.405156  1 F  s                 51      0.405156  2 F  s          
     2     -0.153563  1 F  s                 47     -0.153563  2 F  s          

 Vector    4  Occ=2.000000D+00  E=-1.105662D+00  Symmetry=a2u
              MO Center=  1.3D-31, -8.7D-32,  2.5D-16, r^2= 9.7D-01
   Bfn.  Coefficient  Atom+Function         Bfn.  Coefficient  Atom+Function  
  ----- ------------  ---------------      ----- ------------  ---------------
    10      0.627011  1 F  s                 55     -0.627011  2 F  s          
     6      0.457818  1 F  s                 51     -0.457818  2 F  s          
     2     -0.171318  1 F  s                 47      0.171318  2 F  s          

 Vector    5  Occ=2.000000D+00  E=-6.547429D-01  Symmetry=a1g
              MO Center= -9.8D-33, -5.1D-33,  1.3D-16, r^2= 1.1D+00
   Bfn.  Coefficient  Atom+Function         Bfn.  Coefficient  Atom+Function  
  ----- ------------  ---------------      ----- ------------  ---------------
     9      0.291033  1 F  pz                54     -0.291033  2 F  pz         
    10     -0.249930  1 F  s                 13      0.250908  1 F  pz         
    55     -0.249930  2 F  s                 58     -0.250908  2 F  pz         
     5      0.223644  1 F  pz                50     -0.223644  2 F  pz         

 Vector    6  Occ=2.000000D+00  E=-5.672890D-01  Symmetry=eu
              MO Center= -7.7D-17, -3.1D-16, -5.4D-17, r^2= 8.9D-01
   Bfn.  Coefficient  Atom+Function         Bfn.  Coefficient  Atom+Function  
  ----- ------------  ---------------      ----- ------------  ---------------
     8      0.288441  1 F  py                53      0.288441  2 F  py         
    12      0.275552  1 F  py                57      0.275552  2 F  py         
     4      0.214715  1 F  py                49      0.214715  2 F  py         

 Vector    7  Occ=2.000000D+00  E=-5.672890D-01  Symmetry=eu
              MO Center= -1.7D-16,  4.2D-17,  8.6D-18, r^2= 8.9D-01
   Bfn.  Coefficient  Atom+Function         Bfn.  Coefficient  Atom+Function  
  ----- ------------  ---------------      ----- ------------  ---------------
     7      0.288441  1 F  px                52      0.288441  2 F  px         
    11      0.275552  1 F  px                56      0.275552  2 F  px         
     3      0.214715  1 F  px                48      0.214715  2 F  px         

 Vector    8  Occ=2.000000D+00  E=-4.264046D-01  Symmetry=eg
              MO Center=  1.1D-31, -1.1D-31, -6.1D-17, r^2= 9.5D-01
   Bfn.  Coefficient  Atom+Function         Bfn.  Coefficient  Atom+Function  
  ----- ------------  ---------------      ----- ------------  ---------------
     8     -0.246233  1 F  py                12     -0.245556  1 F  py         
    53      0.246233  2 F  py                57      0.245556  2 F  py         
     7      0.225180  1 F  px                11      0.224561  1 F  px         
    52     -0.225180  2 F  px                56     -0.224561  2 F  px         
     4     -0.183276  1 F  py                49      0.183276  2 F  py         

 Vector    9  Occ=2.000000D+00  E=-4.264046D-01  Symmetry=eg
              MO Center=  2.1D-32,  6.4D-33,  2.0D-16, r^2= 9.5D-01
   Bfn.  Coefficient  Atom+Function         Bfn.  Coefficient  Atom+Function  
  ----- ------------  ---------------      ----- ------------  ---------------
     7      0.246233  1 F  px                11      0.245556  1 F  px         
    52     -0.246233  2 F  px                56     -0.245556  2 F  px         
     8      0.225180  1 F  py                12      0.224561  1 F  py         
    53     -0.225180  2 F  py                57     -0.224561  2 F  py         
     3      0.183276  1 F  px                48     -0.183276  2 F  px         

 Vector   10  Occ=0.000000D+00  E=-2.732398D-01  Symmetry=a2u
              MO Center=  1.2D-32,  7.1D-33, -1.5D-16, r^2= 9.5D-01
   Bfn.  Coefficient  Atom+Function         Bfn.  Coefficient  Atom+Function  
  ----- ------------  ---------------      ----- ------------  ---------------
    13      0.406607  1 F  pz                58      0.406607  2 F  pz         
     9      0.363628  1 F  pz                54      0.363628  2 F  pz         
     5      0.268070  1 F  pz                50      0.268070  2 F  pz         
    10      0.218611  1 F  s                 55     -0.218611  2 F  s          
     6      0.185941  1 F  s                 51     -0.185941  2 F  s          

 Vector   11  Occ=0.000000D+00  E= 8.335695D-02  Symmetry=a1g
              MO Center= -3.1D-33,  1.7D-31, -3.1D-16, r^2= 4.1D+00
   Bfn.  Coefficient  Atom+Function         Bfn.  Coefficient  Atom+Function  
  ----- ------------  ---------------      ----- ------------  ---------------
    14      1.007943  1 F  s                 59      1.007943  2 F  s          
     6     -0.252328  1 F  s                 51     -0.252328  2 F  s          
    10     -0.247834  1 F  s                 55     -0.247834  2 F  s          
    35     -0.169637  1 F  dzz               80     -0.169637  2 F  dzz        
    17     -0.161517  1 F  pz                62      0.161517  2 F  pz         

 Vector   12  Occ=0.000000D+00  E= 1.471050D-01  Symmetry=a2u
              MO Center= -2.0D-15,  9.2D-15,  1.6D-14, r^2= 5.9D+00
   Bfn.  Coefficient  Atom+Function         Bfn.  Coefficient  Atom+Function  
  ----- ------------  ---------------      ----- ------------  ---------------
    17      1.446543  1 F  pz                62      1.446543  2 F  pz         
    14      1.182130  1 F  s                 59     -1.182130  2 F  s          
    13     -0.385385  1 F  pz                58     -0.385385  2 F  pz         

 Vector   13  Occ=0.000000D+00  E= 1.700609D-01  Symmetry=eu
              MO Center= -3.4D-16, -9.0D-16, -9.3D-15, r^2= 4.2D+00
   Bfn.  Coefficient  Atom+Function         Bfn.  Coefficient  Atom+Function  
  ----- ------------  ---------------      ----- ------------  ---------------
    16      0.599705  1 F  py                61      0.599705  2 F  py         
    15      0.332930  1 F  px                60      0.332930  2 F  px         
    12     -0.254687  1 F  py                57     -0.254687  2 F  py         

 Vector   14  Occ=0.000000D+00  E= 1.700609D-01  Symmetry=eu
              MO Center= -1.4D-15,  6.8D-16, -3.4D-14, r^2= 4.2D+00
   Bfn.  Coefficient  Atom+Function         Bfn.  Coefficient  Atom+Function  
  ----- ------------  ---------------      ----- ------------  ---------------
    15      0.599705  1 F  px                60      0.599705  2 F  px         
    16     -0.332930  1 F  py                61     -0.332930  2 F  py         
    11     -0.254687  1 F  px                56     -0.254687  2 F  px         

 Vector   15  Occ=0.000000D+00  E= 2.369132D-01  Symmetry=a1g
              MO Center=  1.8D-15,  4.2D-16, -1.6D-14, r^2= 5.0D+00
   Bfn.  Coefficient  Atom+Function         Bfn.  Coefficient  Atom+Function  
  ----- ------------  ---------------      ----- ------------  ---------------
    17      1.113619  1 F  pz                62     -1.113619  2 F  pz         
    13     -0.238328  1 F  pz                58      0.238328  2 F  pz         
    10     -0.181783  1 F  s                 55     -0.181783  2 F  s          

 Vector   16  Occ=0.000000D+00  E= 2.539157D-01  Symmetry=eg
              MO Center=  6.3D-15,  1.5D-15,  9.5D-15, r^2= 5.4D+00
   Bfn.  Coefficient  Atom+Function         Bfn.  Coefficient  Atom+Function  
  ----- ------------  ---------------      ----- ------------  ---------------
    15      1.429486  1 F  px                60     -1.429486  2 F  px         
    16      0.360678  1 F  py                61     -0.360678  2 F  py         
    11     -0.290016  1 F  px                56      0.290016  2 F  px         

 Vector   17  Occ=0.000000D+00  E= 2.539157D-01  Symmetry=eg
              MO Center=  2.3D-15, -9.0D-15,  3.4D-14, r^2= 5.4D+00
   Bfn.  Coefficient  Atom+Function         Bfn.  Coefficient  Atom+Function  
  ----- ------------  ---------------      ----- ------------  ---------------
    16      1.429486  1 F  py                61     -1.429486  2 F  py         
    15     -0.360678  1 F  px                60      0.360678  2 F  px         
    12     -0.290016  1 F  py                57      0.290016  2 F  py         

 Vector   18  Occ=0.000000D+00  E= 3.909542D-01  Symmetry=a2u
              MO Center= -6.2D-15, -1.6D-15,  1.5D-15, r^2= 5.6D+00
   Bfn.  Coefficient  Atom+Function         Bfn.  Coefficient  Atom+Function  
  ----- ------------  ---------------      ----- ------------  ---------------
    14     10.195480  1 F  s                 59    -10.195480  2 F  s          
    17      4.449438  1 F  pz                62      4.449438  2 F  pz         
    10     -0.401724  1 F  s                 55      0.401724  2 F  s          
    35     -0.357632  1 F  dzz               80      0.357632  2 F  dzz        
    30     -0.296811  1 F  dxx               33     -0.296811  1 F  dyy        

 Vector   19  Occ=0.000000D+00  E= 7.645640D-01  Symmetry=b2g
              MO Center=  1.7D-16,  3.0D-17, -1.9D-15, r^2= 1.5D+00
   Bfn.  Coefficient  Atom+Function         Bfn.  Coefficient  Atom+Function  
  ----- ------------  ---------------      ----- ------------  ---------------
    31      1.107770  1 F  dxy               76      1.107770  2 F  dxy        


 center of mass
 --------------
 x =   0.00000000 y =   0.00000000 z =   0.00000000

 moments of inertia (a.u.)
 ------------------
          66.032484532483           0.000000000000           0.000000000000
           0.000000000000          66.032484532483           0.000000000000
           0.000000000000           0.000000000000           0.000000000000

     Multipole analysis of the density
     ---------------------------------

     L   x y z        total         alpha         beta         nuclear
     -   - - -        -----         -----         ----         -------
     0   0 0 0     -0.000000     -9.000000     -9.000000     18.000000

     1   1 0 0      0.000000      0.000000      0.000000      0.000000
     1   0 1 0      0.000000      0.000000      0.000000      0.000000
     1   0 0 1      0.000000      0.000000      0.000000      0.000000

     2   2 0 0     -7.334593     -3.667297     -3.667297      0.000000
     2   1 1 0      0.000000      0.000000      0.000000      0.000000
     2   1 0 1      0.000000      0.000000      0.000000      0.000000
     2   0 2 0     -7.334593     -3.667297     -3.667297      0.000000
     2   0 1 1      0.000000      0.000000      0.000000      0.000000
     2   0 0 2     -6.461276    -18.871228    -18.871228     31.281180


------------------------------------------------------------
EAF file 0: "./F2.xyz.aoints.0" size=5242880 bytes
------------------------------------------------------------
               write      read    awrite     aread      wait
               -----      ----    ------     -----      ----
     calls:       10         8         0        72        72
   data(b): 5.24e+06  4.19e+06  0.00e+00  3.77e+07
   time(s): 0.00e+00  0.00e+00  0.00e+00  0.00e+00  0.00e+00
rate(mb/s): 0.00e+00  0.00e+00
------------------------------------------------------------


 Parallel integral file used      33 records with       0 large values


            General Information
            -------------------
          SCF calculation type: DFT
          Wavefunction type:  closed shell.
          No. of atoms     :     2
          No. of electrons :    18
           Alpha electrons :     9
            Beta electrons :     9
          Charge           :     0
          Spin multiplicity:     1
          Use of symmetry is: on ; symmetry adaption is: on 
          Maximum number of iterations: ***
          AO basis - number of functions:    90
                     number of shells:    26
          Convergence on energy requested: 1.00D-06
          Convergence on density requested: 1.00D-05
          Convergence on gradient requested: 5.00D-04

              XC Information
              --------------
                  TPSS metaGGA Exchange Functional  1.000          
             TPSS03 metaGGA Correlation Functional  1.000          

             Grid Information
             ----------------
          Grid used for XC integration:  medium    
          Radial quadrature: Mura-Knowles        
          Angular quadrature: Lebedev. 
          Tag              B.-S. Rad. Rad. Pts. Rad. Cut. Ang. Pts.
          ---              ---------- --------- --------- ---------
          F                   0.50       49           7.0       434
          Grid pruning is: on 
          Number of quadrature shells:    49
          Spatial weights used:  Erf1

          Convergence Information
          -----------------------
          Convergence aids based upon iterative change in 
          total energy or number of iterations. 
          Levelshifting, if invoked, occurs when the 
          HOMO/LUMO gap drops below (HL_TOL): 1.00D-02
          DIIS, if invoked, will attempt to extrapolate 
          using up to (NFOCK): 10 stored Fock matrices.

                    Damping( 0%)  Levelshifting(0.5)       DIIS
                  --------------- ------------------- ---------------
          dE  on:    start            ASAP                start   
          dE off:    2 iters        *** iters           *** iters 


      Screening Tolerance Information
      -------------------------------
          Density screening/tol_rho: 1.00D-10
          AO Gaussian exp screening on grid/accAOfunc:  14
          CD Gaussian exp screening on grid/accCDfunc:  20
          XC Gaussian exp screening on grid/accXCfunc:  20
          Schwarz screening/accCoul: 1.00D-08



                            NWChem DFT Gradient Module
                            --------------------------



  charge          =   0.00
  wavefunction    = closed shell

  Using symmetry


                         DFT ENERGY GRADIENTS

    atom               coordinates                        gradient
                 x          y          z           x          y          z
   1 F       0.000000   0.000000  -1.318273    0.000000   0.000000  -0.051913
   2 F       0.000000   0.000000   1.318273    0.000000  -0.000000   0.051913

                 ----------------------------------------
                 |  Time  |  1-e(secs)   |  2-e(secs)   |
                 ----------------------------------------
                 |  CPU   |       0.00   |       1.05   |
                 ----------------------------------------
                 |  WALL  |       0.00   |       1.05   |
                 ----------------------------------------

@ Step       Energy      Delta E   Gmax     Grms     Xrms     Xmax   Walltime
@ ---- ---------------- -------- -------- -------- -------- -------- --------
@    0    -199.60786499  0.0D+00  0.05191  0.05191  0.00000  0.00000      3.2
                                                                    



                                Z-matrix (autoz)
                                -------- 

 Units are Angstrom for bonds and degrees for angles

      Type          Name      I     J     K     L     M      Value     Gradient
      ----------- --------  ----- ----- ----- ----- ----- ---------- ----------
    1 Stretch                  1     2                       1.39520    0.05191


                                 NWChem DFT Module
                                 -----------------




 Summary of "ao basis" -> "ao basis" (cartesian)
 ------------------------------------------------------------------------------
       Tag                 Description            Shells   Functions and Types
 ---------------- ------------------------------  ------  ---------------------
 F                     6-311++G(3df,3pd)            13       45   5s4p3d1f


      Symmetry analysis of basis
      --------------------------

        a1g        17
        a1u         0
        a2g         0
        a2u        17
        b1g         4
        b1u         4
        b2g         4
        b2u         4
        eg         20
        eu         20

  Caching 1-el integrals 

            General Information
            -------------------
          SCF calculation type: DFT
          Wavefunction type:  closed shell.
          No. of atoms     :     2
          No. of electrons :    18
           Alpha electrons :     9
            Beta electrons :     9
          Charge           :     0
          Spin multiplicity:     1
          Use of symmetry is: on ; symmetry adaption is: on 
          Maximum number of iterations: ***
          AO basis - number of functions:    90
                     number of shells:    26
          Convergence on energy requested: 1.00D-06
          Convergence on density requested: 1.00D-05
          Convergence on gradient requested: 5.00D-04

              XC Information
              --------------
                  TPSS metaGGA Exchange Functional  1.000          
             TPSS03 metaGGA Correlation Functional  1.000          

             Grid Information
             ----------------
          Grid used for XC integration:  medium    
          Radial quadrature: Mura-Knowles        
          Angular quadrature: Lebedev. 
          Tag              B.-S. Rad. Rad. Pts. Rad. Cut. Ang. Pts.
          ---              ---------- --------- --------- ---------
          F                   0.50       49           7.0       434
          Grid pruning is: on 
          Number of quadrature shells:    49
          Spatial weights used:  Erf1

          Convergence Information
          -----------------------
          Convergence aids based upon iterative change in 
          total energy or number of iterations. 
          Levelshifting, if invoked, occurs when the 
          HOMO/LUMO gap drops below (HL_TOL): 1.00D-02
          DIIS, if invoked, will attempt to extrapolate 
          using up to (NFOCK): 10 stored Fock matrices.

                    Damping( 0%)  Levelshifting(0.5)       DIIS
                  --------------- ------------------- ---------------
          dE  on:    start            ASAP                start   
          dE off:    2 iters        *** iters           *** iters 


      Screening Tolerance Information
      -------------------------------
          Density screening/tol_rho: 1.00D-10
          AO Gaussian exp screening on grid/accAOfunc:  14
          CD Gaussian exp screening on grid/accCDfunc:  20
          XC Gaussian exp screening on grid/accXCfunc:  20
          Schwarz screening/accCoul: 1.00D-08


 Loading old vectors from job with title :




      Symmetry analysis of molecular orbitals - initial
      -------------------------------------------------

  Numbering of irreducible representations: 

     1 a1g         2 a1u         3 a2g         4 a2u         5 b1g     
     6 b1u         7 b2g         8 b2u         9 eg         10 eu      

  Orbital symmetries:

     1 a1g         2 a2u         3 a1g         4 a2u         5 a1g     
     6 eu          7 eu          8 eg          9 eg         10 a2u     
    11 a1g        12 a2u        13 eu         14 eu         15 a1g     
    16 eg         17 eg         18 a2u        19 b2g     

   Time after variat. SCF:      3.0
   Time prior to 1st pass:      3.0

 Integral file          = ./F2.xyz.aoints.0
 Record size in doubles =    65536    No. of integs per rec  =    43688
 Max. records in memory =       23    Max. records in file   = ********
 No. of bits per label  =        8    No. of bits per value  =       64


 #quartets = 4.139D+04 #integrals = 1.466D+06 #direct =  0.0% #cached =100.0%


 Grid_pts file          = ./F2.xyz.gridpts.0
 Record size in doubles =  12289        No. of grid_pts per rec  =   3070
 Max. records in memory =      9        Max. recs in file   = 995455715


           Memory utilization after 1st SCF pass: 
           Heap Space remaining (MW):       11.49            11486300
          Stack Space remaining (MW):       13.11            13106644

   convergence    iter        energy       DeltaE   RMS-Dens  Diis-err    time
 ---------------- ----- ----------------- --------- --------- ---------  ------
 d= 0,ls=0.0,diis     1   -199.6027985188 -2.32D+02  6.64D-04  1.36D-02     3.4
 d= 0,ls=0.0,diis     2   -199.6049898715 -2.19D-03  1.21D-04  1.76D-04     3.5
 d= 0,ls=0.0,diis     3   -199.6042420210  7.48D-04  5.15D-05  1.20D-04     3.7
 d= 0,ls=0.0,diis     4   -199.6046641037 -4.22D-04  6.12D-06  1.82D-06     3.8
 d= 0,ls=0.0,diis     5   -199.6046159921  4.81D-05  9.03D-07  2.13D-08     3.9
 d= 0,ls=0.0,diis     6   -199.6046187491 -2.76D-06  2.49D-07  2.82D-09     4.0
 d= 0,ls=0.0,diis     7   -199.6046186090  1.40D-07  9.00D-09  1.97D-12     4.1


         Total DFT energy =     -199.604618609015
      One electron energy =     -341.015370960892
           Coulomb energy =      130.144313655231
          Exchange energy =      -20.077856796811
       Correlation energy =       -0.638004409416
 Nuclear repulsion energy =       31.982299902872

 Numeric. integr. density =       17.999996804700

     Total iterative time =      1.1s



                  Occupations of the irreducible representations
                  ----------------------------------------------

                     irrep           alpha         beta
                     --------     --------     --------
                     a1g               3.0          3.0
                     a1u               0.0          0.0
                     a2g               0.0          0.0
                     a2u               2.0          2.0
                     b1g               0.0          0.0
                     b1u               0.0          0.0
                     b2g               0.0          0.0
                     b2u               0.0          0.0
                     eg                2.0          2.0
                     eu                2.0          2.0


                       DFT Final Molecular Orbital Analysis
                       ------------------------------------

 Vector    1  Occ=2.000000D+00  E=-2.460042D+01  Symmetry=a1g
              MO Center= -1.6D-26,  1.1D-26, -3.2D-09, r^2= 4.6D-01
   Bfn.  Coefficient  Atom+Function         Bfn.  Coefficient  Atom+Function  
  ----- ------------  ---------------      ----- ------------  ---------------
     1      0.387003  1 F  s                 46      0.387003  2 F  s          
     2      0.334225  1 F  s                 47      0.334225  2 F  s          

 Vector    2  Occ=2.000000D+00  E=-2.460042D+01  Symmetry=a2u
              MO Center= -3.6D-18,  2.7D-18,  3.2D-09, r^2= 4.6D-01
   Bfn.  Coefficient  Atom+Function         Bfn.  Coefficient  Atom+Function  
  ----- ------------  ---------------      ----- ------------  ---------------
     1      0.386999  1 F  s                 46     -0.386999  2 F  s          
     2      0.334265  1 F  s                 47     -0.334265  2 F  s          

 Vector    3  Occ=2.000000D+00  E=-1.384173D+00  Symmetry=a1g
              MO Center= -5.5D-33,  2.4D-34,  2.0D-17, r^2= 5.7D-01
   Bfn.  Coefficient  Atom+Function         Bfn.  Coefficient  Atom+Function  
  ----- ------------  ---------------      ----- ------------  ---------------
    10      0.492511  1 F  s                 55      0.492511  2 F  s          
     6      0.400931  1 F  s                 51      0.400931  2 F  s          
     2     -0.152200  1 F  s                 47     -0.152200  2 F  s          

 Vector    4  Occ=2.000000D+00  E=-1.090892D+00  Symmetry=a2u
              MO Center= -7.0D-16,  2.3D-16,  1.2D-15, r^2= 9.4D-01
   Bfn.  Coefficient  Atom+Function         Bfn.  Coefficient  Atom+Function  
  ----- ------------  ---------------      ----- ------------  ---------------
    10      0.634275  1 F  s                 55     -0.634275  2 F  s          
     6      0.456641  1 F  s                 51     -0.456641  2 F  s          
     2     -0.171122  1 F  s                 47      0.171122  2 F  s          

 Vector    5  Occ=2.000000D+00  E=-6.621541D-01  Symmetry=a1g
              MO Center=  3.9D-32,  2.8D-32, -1.2D-15, r^2= 1.0D+00
   Bfn.  Coefficient  Atom+Function         Bfn.  Coefficient  Atom+Function  
  ----- ------------  ---------------      ----- ------------  ---------------
     9      0.292114  1 F  pz                54     -0.292114  2 F  pz         
    10     -0.272494  1 F  s                 55     -0.272494  2 F  s          
    13      0.245514  1 F  pz                58     -0.245514  2 F  pz         
     5      0.223434  1 F  pz                50     -0.223434  2 F  pz         

 Vector    6  Occ=2.000000D+00  E=-5.796103D-01  Symmetry=eu
              MO Center= -1.1D-16, -1.1D-16, -2.2D-15, r^2= 8.5D-01
   Bfn.  Coefficient  Atom+Function         Bfn.  Coefficient  Atom+Function  
  ----- ------------  ---------------      ----- ------------  ---------------
     8      0.240117  1 F  py                53      0.240117  2 F  py         
    12      0.227103  1 F  py                57      0.227103  2 F  py         
     4      0.178523  1 F  py                49      0.178523  2 F  py         
     7      0.173223  1 F  px                52      0.173223  2 F  px         
    11      0.163834  1 F  px                56      0.163834  2 F  px         

 Vector    7  Occ=2.000000D+00  E=-5.796103D-01  Symmetry=eu
              MO Center=  9.4D-29, -6.8D-29, -8.1D-17, r^2= 8.5D-01
   Bfn.  Coefficient  Atom+Function         Bfn.  Coefficient  Atom+Function  
  ----- ------------  ---------------      ----- ------------  ---------------
     7      0.240117  1 F  px                52      0.240117  2 F  px         
    11      0.227103  1 F  px                56      0.227103  2 F  px         
     3      0.178523  1 F  px                48      0.178523  2 F  px         
     8     -0.173223  1 F  py                53     -0.173223  2 F  py         
    12     -0.163834  1 F  py                57     -0.163834  2 F  py         

 Vector    8  Occ=2.000000D+00  E=-4.164634D-01  Symmetry=eg
              MO Center=  2.9D-16, -3.5D-17, -1.8D-15, r^2= 9.1D-01
   Bfn.  Coefficient  Atom+Function         Bfn.  Coefficient  Atom+Function  
  ----- ------------  ---------------      ----- ------------  ---------------
    11      0.323791  1 F  px                56     -0.323791  2 F  px         
     7      0.320944  1 F  px                52     -0.320944  2 F  px         
     3      0.238693  1 F  px                48     -0.238693  2 F  px         

 Vector    9  Occ=2.000000D+00  E=-4.164634D-01  Symmetry=eg
              MO Center=  1.4D-16,  1.1D-16,  3.8D-15, r^2= 9.1D-01
   Bfn.  Coefficient  Atom+Function         Bfn.  Coefficient  Atom+Function  
  ----- ------------  ---------------      ----- ------------  ---------------
    12      0.323791  1 F  py                57     -0.323791  2 F  py         
     8      0.320944  1 F  py                53     -0.320944  2 F  py         
     4      0.238693  1 F  py                49     -0.238693  2 F  py         

 Vector   10  Occ=0.000000D+00  E=-2.329353D-01  Symmetry=a2u
              MO Center= -4.5D-17, -4.8D-17, -2.2D-16, r^2= 9.3D-01
   Bfn.  Coefficient  Atom+Function         Bfn.  Coefficient  Atom+Function  
  ----- ------------  ---------------      ----- ------------  ---------------
    13      0.405634  1 F  pz                58      0.405634  2 F  pz         
     9      0.365128  1 F  pz                54      0.365128  2 F  pz         
     5      0.268910  1 F  pz                50      0.268910  2 F  pz         
    10      0.258806  1 F  s                 55     -0.258806  2 F  s          
     6      0.203276  1 F  s                 51     -0.203276  2 F  s          

 Vector   11  Occ=0.000000D+00  E= 8.381457D-02  Symmetry=a1g
              MO Center=  1.5D-14, -4.0D-15,  4.6D-14, r^2= 4.0D+00
   Bfn.  Coefficient  Atom+Function         Bfn.  Coefficient  Atom+Function  
  ----- ------------  ---------------      ----- ------------  ---------------
    14      1.003266  1 F  s                 59      1.003266  2 F  s          
     6     -0.249955  1 F  s                 51     -0.249955  2 F  s          
    10     -0.242944  1 F  s                 55     -0.242944  2 F  s          
    35     -0.171089  1 F  dzz               80     -0.171089  2 F  dzz        
    17     -0.160559  1 F  pz                62      0.160559  2 F  pz         

 Vector   12  Occ=0.000000D+00  E= 1.493190D-01  Symmetry=a2u
              MO Center= -1.4D-15, -1.8D-15, -3.3D-14, r^2= 5.9D+00
   Bfn.  Coefficient  Atom+Function         Bfn.  Coefficient  Atom+Function  
  ----- ------------  ---------------      ----- ------------  ---------------
    17      1.554247  1 F  pz                62      1.554247  2 F  pz         
    14      1.505653  1 F  s                 59     -1.505653  2 F  s          
    13     -0.484684  1 F  pz                58     -0.484684  2 F  pz         

 Vector   13  Occ=0.000000D+00  E= 1.698871D-01  Symmetry=eu
              MO Center= -3.2D-15,  2.2D-15,  7.0D-15, r^2= 4.2D+00
   Bfn.  Coefficient  Atom+Function         Bfn.  Coefficient  Atom+Function  
  ----- ------------  ---------------      ----- ------------  ---------------
    15      0.553395  1 F  px                60      0.553395  2 F  px         
    16     -0.399369  1 F  py                61     -0.399369  2 F  py         
    11     -0.233848  1 F  px                56     -0.233848  2 F  px         
    12      0.168761  1 F  py                57      0.168761  2 F  py         

 Vector   14  Occ=0.000000D+00  E= 1.698871D-01  Symmetry=eu
              MO Center= -3.2D-15, -4.5D-15,  1.5D-16, r^2= 4.2D+00
   Bfn.  Coefficient  Atom+Function         Bfn.  Coefficient  Atom+Function  
  ----- ------------  ---------------      ----- ------------  ---------------
    16      0.553395  1 F  py                61      0.553395  2 F  py         
    15      0.399369  1 F  px                60      0.399369  2 F  px         
    12     -0.233848  1 F  py                57     -0.233848  2 F  py         
    11     -0.168761  1 F  px                56     -0.168761  2 F  px         

 Vector   15  Occ=0.000000D+00  E= 2.363703D-01  Symmetry=a1g
              MO Center= -9.8D-15,  7.2D-15,  4.9D-15, r^2= 5.0D+00
   Bfn.  Coefficient  Atom+Function         Bfn.  Coefficient  Atom+Function  
  ----- ------------  ---------------      ----- ------------  ---------------
    17      1.139477  1 F  pz                62     -1.139477  2 F  pz         
    13     -0.220512  1 F  pz                58      0.220512  2 F  pz         
    10     -0.179683  1 F  s                 55     -0.179683  2 F  s          

 Vector   16  Occ=0.000000D+00  E= 2.554112D-01  Symmetry=eg
              MO Center= -5.3D-15, -4.7D-16, -2.5D-15, r^2= 5.4D+00
   Bfn.  Coefficient  Atom+Function         Bfn.  Coefficient  Atom+Function  
  ----- ------------  ---------------      ----- ------------  ---------------
    15      1.515560  1 F  px                60     -1.515560  2 F  px         
    11     -0.300758  1 F  px                56      0.300758  2 F  px         

 Vector   17  Occ=0.000000D+00  E= 2.554112D-01  Symmetry=eg
              MO Center= -1.0D-16,  1.5D-15, -6.3D-15, r^2= 5.4D+00
   Bfn.  Coefficient  Atom+Function         Bfn.  Coefficient  Atom+Function  
  ----- ------------  ---------------      ----- ------------  ---------------
    16      1.515560  1 F  py                61     -1.515560  2 F  py         
    12     -0.300758  1 F  py                57      0.300758  2 F  py         

 Vector   18  Occ=0.000000D+00  E= 3.943012D-01  Symmetry=a2u
              MO Center=  6.7D-15,  4.7D-16, -1.9D-14, r^2= 5.6D+00
   Bfn.  Coefficient  Atom+Function         Bfn.  Coefficient  Atom+Function  
  ----- ------------  ---------------      ----- ------------  ---------------
    14     11.432217  1 F  s                 59    -11.432217  2 F  s          
    17      4.797653  1 F  pz                62      4.797653  2 F  pz         
    10     -0.425469  1 F  s                 55      0.425469  2 F  s          
    35     -0.369134  1 F  dzz               80      0.369134  2 F  dzz        
    30     -0.303523  1 F  dxx               33     -0.303523  1 F  dyy        

 Vector   19  Occ=0.000000D+00  E= 7.560216D-01  Symmetry=b1g
              MO Center= -5.1D-16, -6.7D-17,  2.6D-16, r^2= 1.5D+00
   Bfn.  Coefficient  Atom+Function         Bfn.  Coefficient  Atom+Function  
  ----- ------------  ---------------      ----- ------------  ---------------
    30      0.547395  1 F  dxx               33     -0.547395  1 F  dyy        
    75      0.547395  2 F  dxx               78     -0.547395  2 F  dyy        


 center of mass
 --------------
 x =   0.00000000 y =   0.00000000 z =   0.00000000

 moments of inertia (a.u.)
 ------------------
          60.930913113162           0.000000000000           0.000000000000
           0.000000000000          60.930913113162           0.000000000000
           0.000000000000           0.000000000000           0.000000000000

     Multipole analysis of the density
     ---------------------------------

     L   x y z        total         alpha         beta         nuclear
     -   - - -        -----         -----         ----         -------
     0   0 0 0     -0.000000     -9.000000     -9.000000     18.000000

     1   1 0 0      0.000000      0.000000      0.000000      0.000000
     1   0 1 0      0.000000      0.000000      0.000000      0.000000
     1   0 0 1      0.000000      0.000000      0.000000      0.000000

     2   2 0 0     -7.295814     -3.647907     -3.647907      0.000000
     2   1 1 0      0.000000      0.000000      0.000000      0.000000
     2   1 0 1      0.000000      0.000000      0.000000      0.000000
     2   0 2 0     -7.295814     -3.647907     -3.647907      0.000000
     2   0 1 1      0.000000      0.000000      0.000000      0.000000
     2   0 0 2     -6.567906    -17.716174    -17.716174     28.864442


------------------------------------------------------------
EAF file 0: "./F2.xyz.aoints.0" size=5767168 bytes
------------------------------------------------------------
               write      read    awrite     aread      wait
               -----      ----    ------     -----      ----
     calls:       11         6         0        60        60
   data(b): 5.77e+06  3.15e+06  0.00e+00  3.15e+07
   time(s): 0.00e+00  0.00e+00  0.00e+00  0.00e+00  0.00e+00
rate(mb/s): 0.00e+00  0.00e+00
------------------------------------------------------------


 Parallel integral file used      34 records with       0 large values

 Line search: 
     step= 1.00 grad=-5.4D-03 hess= 8.6D-03 energy=   -199.604619 mode=bracket 
 new step= 0.31                   predicted energy=   -199.608707

          --------
          Step   1
          --------


                         Geometry "geometry" -> "geometry"
                         ---------------------------------

 Output coordinates in angstroms (scale by  1.889725989 to convert to a.u.)

  No.       Tag          Charge          X              Y              Z
 ---- ---------------- ---------- -------------- -------------- --------------
    1 F                    9.0000     0.00000000     0.00000000    -0.68901981
    2 F                    9.0000     0.00000000     0.00000000     0.68901981

      Atomic Mass 
      ----------- 

      F                 18.998400


 Effective nuclear repulsion energy (a.u.)      31.1045898045

            Nuclear Dipole moment (a.u.) 
            ----------------------------
        X                 Y               Z
 ---------------- ---------------- ----------------
     0.0000000000     0.0000000000     0.0000000000

      Symmetry information
      --------------------

 Group name             D4h       
 Group number             28
 Group order              16
 No. of unique centers     1

      Symmetry unique atoms

     1


                                 NWChem DFT Module
                                 -----------------




 Summary of "ao basis" -> "ao basis" (cartesian)
 ------------------------------------------------------------------------------
       Tag                 Description            Shells   Functions and Types
 ---------------- ------------------------------  ------  ---------------------
 F                     6-311++G(3df,3pd)            13       45   5s4p3d1f


      Symmetry analysis of basis
      --------------------------

        a1g        17
        a1u         0
        a2g         0
        a2u        17
        b1g         4
        b1u         4
        b2g         4
        b2u         4
        eg         20
        eu         20

  Caching 1-el integrals 

            General Information
            -------------------
          SCF calculation type: DFT
          Wavefunction type:  closed shell.
          No. of atoms     :     2
          No. of electrons :    18
           Alpha electrons :     9
            Beta electrons :     9
          Charge           :     0
          Spin multiplicity:     1
          Use of symmetry is: on ; symmetry adaption is: on 
          Maximum number of iterations: ***
          AO basis - number of functions:    90
                     number of shells:    26
          Convergence on energy requested: 1.00D-06
          Convergence on density requested: 1.00D-05
          Convergence on gradient requested: 5.00D-04

              XC Information
              --------------
                  TPSS metaGGA Exchange Functional  1.000          
             TPSS03 metaGGA Correlation Functional  1.000          

             Grid Information
             ----------------
          Grid used for XC integration:  medium    
          Radial quadrature: Mura-Knowles        
          Angular quadrature: Lebedev. 
          Tag              B.-S. Rad. Rad. Pts. Rad. Cut. Ang. Pts.
          ---              ---------- --------- --------- ---------
          F                   0.50       49           7.0       434
          Grid pruning is: on 
          Number of quadrature shells:    49
          Spatial weights used:  Erf1

          Convergence Information
          -----------------------
          Convergence aids based upon iterative change in 
          total energy or number of iterations. 
          Levelshifting, if invoked, occurs when the 
          HOMO/LUMO gap drops below (HL_TOL): 1.00D-02
          DIIS, if invoked, will attempt to extrapolate 
          using up to (NFOCK): 10 stored Fock matrices.

                    Damping( 0%)  Levelshifting(0.5)       DIIS
                  --------------- ------------------- ---------------
          dE  on:    start            ASAP                start   
          dE off:    2 iters        *** iters           *** iters 


      Screening Tolerance Information
      -------------------------------
          Density screening/tol_rho: 1.00D-10
          AO Gaussian exp screening on grid/accAOfunc:  14
          CD Gaussian exp screening on grid/accCDfunc:  20
          XC Gaussian exp screening on grid/accXCfunc:  20
          Schwarz screening/accCoul: 1.00D-08


 Loading old vectors from job with title :




      Symmetry analysis of molecular orbitals - initial
      -------------------------------------------------

  Numbering of irreducible representations: 

     1 a1g         2 a1u         3 a2g         4 a2u         5 b1g     
     6 b1u         7 b2g         8 b2u         9 eg         10 eu      

  Orbital symmetries:

     1 a1g         2 a2u         3 a1g         4 a2u         5 a1g     
     6 eu          7 eu          8 eg          9 eg         10 a2u     
    11 a1g        12 a2u        13 eu         14 eu         15 a1g     
    16 eg         17 eg         18 a2u        19 b1g     

   Time after variat. SCF:      4.2
   Time prior to 1st pass:      4.2

 Integral file          = ./F2.xyz.aoints.0
 Record size in doubles =    65536    No. of integs per rec  =    43688
 Max. records in memory =       23    Max. records in file   = ********
 No. of bits per label  =        8    No. of bits per value  =       64


 #quartets = 4.130D+04 #integrals = 1.454D+06 #direct =  0.0% #cached =100.0%


 Grid_pts file          = ./F2.xyz.gridpts.0
 Record size in doubles =  12289        No. of grid_pts per rec  =   3070
 Max. records in memory =      9        Max. recs in file   = 995456171


           Memory utilization after 1st SCF pass: 
           Heap Space remaining (MW):       11.49            11486300
          Stack Space remaining (MW):       13.11            13106644

   convergence    iter        energy       DeltaE   RMS-Dens  Diis-err    time
 ---------------- ----- ----------------- --------- --------- ---------  ------
 d= 0,ls=0.0,diis     1   -199.6071633079 -2.31D+02  4.68D-04  6.74D-03     4.7
 d= 0,ls=0.0,diis     2   -199.6070960695  6.72D-05  8.71D-05  8.62D-05     4.8
 d= 0,ls=0.0,diis     3   -199.6076590343 -5.63D-04  3.67D-05  6.34D-05     4.9
 d= 0,ls=0.0,diis     4   -199.6073567975  3.02D-04  3.73D-06  6.92D-07     5.0
 d= 0,ls=0.0,diis     5   -199.6073857028 -2.89D-05  3.91D-07  2.23D-09     5.1
 d= 0,ls=0.0,diis     6   -199.6073848708  8.32D-07  4.80D-08  9.96D-11     5.2


         Total DFT energy =     -199.607384870771
      One electron energy =     -339.309585635069
           Coulomb energy =      129.290181885652
          Exchange energy =      -20.057206131373
       Correlation energy =       -0.635364794517
 Nuclear repulsion energy =       31.104589804536

 Numeric. integr. density =       18.000000631012

     Total iterative time =      1.0s



                  Occupations of the irreducible representations
                  ----------------------------------------------

                     irrep           alpha         beta
                     --------     --------     --------
                     a1g               3.0          3.0
                     a1u               0.0          0.0
                     a2g               0.0          0.0
                     a2u               2.0          2.0
                     b1g               0.0          0.0
                     b1u               0.0          0.0
                     b2g               0.0          0.0
                     b2u               0.0          0.0
                     eg                2.0          2.0
                     eu                2.0          2.0


                       DFT Final Molecular Orbital Analysis
                       ------------------------------------

 Vector    1  Occ=2.000000D+00  E=-2.460315D+01  Symmetry=a1g
              MO Center=  0.0D+00,  0.0D+00,  1.8D-16, r^2= 4.9D-01
   Bfn.  Coefficient  Atom+Function         Bfn.  Coefficient  Atom+Function  
  ----- ------------  ---------------      ----- ------------  ---------------
     1      0.387008  1 F  s                 46      0.387008  2 F  s          
     2      0.334230  1 F  s                 47      0.334230  2 F  s          

 Vector    2  Occ=2.000000D+00  E=-2.460315D+01  Symmetry=a2u
              MO Center= -3.6D-18,  4.5D-18, -2.2D-16, r^2= 4.9D-01
   Bfn.  Coefficient  Atom+Function         Bfn.  Coefficient  Atom+Function  
  ----- ------------  ---------------      ----- ------------  ---------------
     1      0.387004  1 F  s                 46     -0.387004  2 F  s          
     2      0.334262  1 F  s                 47     -0.334262  2 F  s          

 Vector    3  Occ=2.000000D+00  E=-1.363644D+00  Symmetry=a1g
              MO Center=  2.3D-16,  1.4D-16,  6.2D-15, r^2= 6.0D-01
   Bfn.  Coefficient  Atom+Function         Bfn.  Coefficient  Atom+Function  
  ----- ------------  ---------------      ----- ------------  ---------------
    10      0.501521  1 F  s                 55      0.501521  2 F  s          
     6      0.403815  1 F  s                 51      0.403815  2 F  s          
     2     -0.153140  1 F  s                 47     -0.153140  2 F  s          

 Vector    4  Occ=2.000000D+00  E=-1.101233D+00  Symmetry=a2u
              MO Center= -3.6D-30,  7.1D-31, -6.3D-15, r^2= 9.6D-01
   Bfn.  Coefficient  Atom+Function         Bfn.  Coefficient  Atom+Function  
  ----- ------------  ---------------      ----- ------------  ---------------
    10      0.629083  1 F  s                 55     -0.629083  2 F  s          
     6      0.457510  1 F  s                 51     -0.457510  2 F  s          
     2     -0.171278  1 F  s                 47      0.171278  2 F  s          

 Vector    5  Occ=2.000000D+00  E=-6.570598D-01  Symmetry=a1g
              MO Center= -7.4D-16, -1.2D-15,  1.6D-15, r^2= 1.1D+00
   Bfn.  Coefficient  Atom+Function         Bfn.  Coefficient  Atom+Function  
  ----- ------------  ---------------      ----- ------------  ---------------
     9      0.291294  1 F  pz                54     -0.291294  2 F  pz         
    10     -0.256851  1 F  s                 55     -0.256851  2 F  s          
    13      0.249267  1 F  pz                58     -0.249267  2 F  pz         
     5      0.223596  1 F  pz                50     -0.223596  2 F  pz         

 Vector    6  Occ=2.000000D+00  E=-5.709272D-01  Symmetry=eu
              MO Center=  3.8D-16,  1.5D-15, -6.4D-15, r^2= 8.8D-01
   Bfn.  Coefficient  Atom+Function         Bfn.  Coefficient  Atom+Function  
  ----- ------------  ---------------      ----- ------------  ---------------
     8      0.281872  1 F  py                53      0.281872  2 F  py         
    12      0.268527  1 F  py                57      0.268527  2 F  py         
     4      0.209748  1 F  py                49      0.209748  2 F  py         

 Vector    7  Occ=2.000000D+00  E=-5.709272D-01  Symmetry=eu
              MO Center=  4.1D-16, -6.8D-17,  6.2D-15, r^2= 8.8D-01
   Bfn.  Coefficient  Atom+Function         Bfn.  Coefficient  Atom+Function  
  ----- ------------  ---------------      ----- ------------  ---------------
     7      0.281872  1 F  px                52      0.281872  2 F  px         
    11      0.268527  1 F  px                56      0.268527  2 F  px         
     3      0.209748  1 F  px                48      0.209748  2 F  px         

 Vector    8  Occ=2.000000D+00  E=-4.234563D-01  Symmetry=eg
              MO Center= -3.9D-16,  1.4D-16, -6.5D-15, r^2= 9.4D-01
   Bfn.  Coefficient  Atom+Function         Bfn.  Coefficient  Atom+Function  
  ----- ------------  ---------------      ----- ------------  ---------------
     7      0.328675  1 F  px                11      0.328883  1 F  px         
    52     -0.328675  2 F  px                56     -0.328883  2 F  px         
     3      0.244578  1 F  px                48     -0.244578  2 F  px         

 Vector    9  Occ=2.000000D+00  E=-4.234563D-01  Symmetry=eg
              MO Center= -2.9D-16, -1.3D-16,  6.9D-15, r^2= 9.4D-01
   Bfn.  Coefficient  Atom+Function         Bfn.  Coefficient  Atom+Function  
  ----- ------------  ---------------      ----- ------------  ---------------
     8      0.328675  1 F  py                12      0.328883  1 F  py         
    53     -0.328675  2 F  py                57     -0.328883  2 F  py         
     4      0.244578  1 F  py                49     -0.244578  2 F  py         

 Vector   10  Occ=0.000000D+00  E=-2.613822D-01  Symmetry=a2u
              MO Center=  8.0D-17,  5.8D-17, -1.3D-16, r^2= 9.4D-01
   Bfn.  Coefficient  Atom+Function         Bfn.  Coefficient  Atom+Function  
  ----- ------------  ---------------      ----- ------------  ---------------
    13      0.407256  1 F  pz                58      0.407256  2 F  pz         
     9      0.364172  1 F  pz                54      0.364172  2 F  pz         
     5      0.268407  1 F  pz                50      0.268407  2 F  pz         
    10      0.231097  1 F  s                 55     -0.231097  2 F  s          
     6      0.191188  1 F  s                 51     -0.191188  2 F  s          

 Vector   11  Occ=0.000000D+00  E= 8.349426D-02  Symmetry=a1g
              MO Center= -4.8D-17, -2.6D-16, -1.2D-15, r^2= 4.1D+00
   Bfn.  Coefficient  Atom+Function         Bfn.  Coefficient  Atom+Function  
  ----- ------------  ---------------      ----- ------------  ---------------
    14      1.006480  1 F  s                 59      1.006480  2 F  s          
     6     -0.251429  1 F  s                 51     -0.251429  2 F  s          
    10     -0.246505  1 F  s                 55     -0.246505  2 F  s          
    35     -0.170052  1 F  dzz               80     -0.170052  2 F  dzz        
    17     -0.161237  1 F  pz                62      0.161237  2 F  pz         

 Vector   12  Occ=0.000000D+00  E= 1.477666D-01  Symmetry=a2u
              MO Center=  3.6D-16, -1.2D-16, -1.7D-16, r^2= 5.9D+00
   Bfn.  Coefficient  Atom+Function         Bfn.  Coefficient  Atom+Function  
  ----- ------------  ---------------      ----- ------------  ---------------
    17      1.478549  1 F  pz                62      1.478549  2 F  pz         
    14      1.277124  1 F  s                 59     -1.277124  2 F  s          
    13     -0.412242  1 F  pz                58     -0.412242  2 F  pz         

 Vector   13  Occ=0.000000D+00  E= 1.700428D-01  Symmetry=eu
              MO Center= -1.9D-15, -1.8D-15,  2.1D-15, r^2= 4.2D+00
   Bfn.  Coefficient  Atom+Function         Bfn.  Coefficient  Atom+Function  
  ----- ------------  ---------------      ----- ------------  ---------------
    15      0.493262  1 F  px                60      0.493262  2 F  px         
    16      0.475133  1 F  py                61      0.475133  2 F  py         
    11     -0.209232  1 F  px                56     -0.209232  2 F  px         
    12     -0.201542  1 F  py                57     -0.201542  2 F  py         

 Vector   14  Occ=0.000000D+00  E= 1.700428D-01  Symmetry=eu
              MO Center= -6.1D-17,  6.4D-17, -2.2D-17, r^2= 4.2D+00
   Bfn.  Coefficient  Atom+Function         Bfn.  Coefficient  Atom+Function  
  ----- ------------  ---------------      ----- ------------  ---------------
    16     -0.493262  1 F  py                61     -0.493262  2 F  py         
    15      0.475133  1 F  px                60      0.475133  2 F  px         
    12      0.209232  1 F  py                57      0.209232  2 F  py         
    11     -0.201542  1 F  px                56     -0.201542  2 F  px         

 Vector   15  Occ=0.000000D+00  E= 2.367470D-01  Symmetry=a1g
              MO Center=  2.0D-15,  1.9D-15, -2.1D-14, r^2= 5.0D+00
   Bfn.  Coefficient  Atom+Function         Bfn.  Coefficient  Atom+Function  
  ----- ------------  ---------------      ----- ------------  ---------------
    17      1.121447  1 F  pz                62     -1.121447  2 F  pz         
    13     -0.232877  1 F  pz                58      0.232877  2 F  pz         
    10     -0.181309  1 F  s                 55     -0.181309  2 F  s          

 Vector   16  Occ=0.000000D+00  E= 2.543778D-01  Symmetry=eg
              MO Center= -2.4D-17,  5.8D-17, -1.6D-15, r^2= 5.4D+00
   Bfn.  Coefficient  Atom+Function         Bfn.  Coefficient  Atom+Function  
  ----- ------------  ---------------      ----- ------------  ---------------
    16      1.377485  1 F  py                61     -1.377485  2 F  py         
    15     -0.562239  1 F  px                60      0.562239  2 F  px         
    12     -0.277492  1 F  py                57      0.277492  2 F  py         

 Vector   17  Occ=0.000000D+00  E= 2.543778D-01  Symmetry=eg
              MO Center= -3.6D-15, -1.5D-15,  3.1D-16, r^2= 5.4D+00
   Bfn.  Coefficient  Atom+Function         Bfn.  Coefficient  Atom+Function  
  ----- ------------  ---------------      ----- ------------  ---------------
    15      1.377485  1 F  px                60     -1.377485  2 F  px         
    16      0.562239  1 F  py                61     -0.562239  2 F  py         
    11     -0.277492  1 F  px                56      0.277492  2 F  px         

 Vector   18  Occ=0.000000D+00  E= 3.919993D-01  Symmetry=a2u
              MO Center=  3.8D-15,  1.6D-15,  2.4D-14, r^2= 5.6D+00
   Bfn.  Coefficient  Atom+Function         Bfn.  Coefficient  Atom+Function  
  ----- ------------  ---------------      ----- ------------  ---------------
    14     10.560250  1 F  s                 59    -10.560250  2 F  s          
    17      4.553473  1 F  pz                62      4.553473  2 F  pz         
    10     -0.408452  1 F  s                 55      0.408452  2 F  s          
    35     -0.361262  1 F  dzz               80      0.361262  2 F  dzz        
    30     -0.298889  1 F  dxx               33     -0.298889  1 F  dyy        

 Vector   19  Occ=0.000000D+00  E= 7.618624D-01  Symmetry=b1g
              MO Center=  9.8D-17, -1.1D-16,  1.1D-16, r^2= 1.5D+00
   Bfn.  Coefficient  Atom+Function         Bfn.  Coefficient  Atom+Function  
  ----- ------------  ---------------      ----- ------------  ---------------
    30      0.551895  1 F  dxx               33     -0.551895  1 F  dyy        
    75      0.551895  2 F  dxx               78     -0.551895  2 F  dyy        


 center of mass
 --------------
 x =   0.00000000 y =   0.00000000 z =   0.00000000

 moments of inertia (a.u.)
 ------------------
          64.418129856904           0.000000000000           0.000000000000
           0.000000000000          64.418129856904           0.000000000000
           0.000000000000           0.000000000000           0.000000000000

     Multipole analysis of the density
     ---------------------------------

     L   x y z        total         alpha         beta         nuclear
     -   - - -        -----         -----         ----         -------
     0   0 0 0     -0.000000     -9.000000     -9.000000     18.000000

     1   1 0 0      0.000000      0.000000      0.000000      0.000000
     1   0 1 0      0.000000      0.000000      0.000000      0.000000
     1   0 0 1     -0.000000     -0.000000     -0.000000      0.000000

     2   2 0 0     -7.323084     -3.661542     -3.661542      0.000000
     2   1 1 0      0.000000      0.000000      0.000000      0.000000
     2   1 0 1      0.000000      0.000000      0.000000      0.000000
     2   0 2 0     -7.323084     -3.661542     -3.661542      0.000000
     2   0 1 1      0.000000      0.000000      0.000000      0.000000
     2   0 0 2     -6.493836    -18.505128    -18.505128     30.516421


------------------------------------------------------------
EAF file 0: "./F2.xyz.aoints.0" size=5767168 bytes
------------------------------------------------------------
               write      read    awrite     aread      wait
               -----      ----    ------     -----      ----
     calls:       11         5         0        50        50
   data(b): 5.77e+06  2.62e+06  0.00e+00  2.62e+07
   time(s): 0.00e+00  0.00e+00  0.00e+00  0.00e+00  0.00e+00
rate(mb/s): 0.00e+00  0.00e+00
------------------------------------------------------------


 Parallel integral file used      34 records with       0 large values


            General Information
            -------------------
          SCF calculation type: DFT
          Wavefunction type:  closed shell.
          No. of atoms     :     2
          No. of electrons :    18
           Alpha electrons :     9
            Beta electrons :     9
          Charge           :     0
          Spin multiplicity:     1
          Use of symmetry is: on ; symmetry adaption is: on 
          Maximum number of iterations: ***
          AO basis - number of functions:    90
                     number of shells:    26
          Convergence on energy requested: 1.00D-06
          Convergence on density requested: 1.00D-05
          Convergence on gradient requested: 5.00D-04

              XC Information
              --------------
                  TPSS metaGGA Exchange Functional  1.000          
             TPSS03 metaGGA Correlation Functional  1.000          

             Grid Information
             ----------------
          Grid used for XC integration:  medium    
          Radial quadrature: Mura-Knowles        
          Angular quadrature: Lebedev. 
          Tag              B.-S. Rad. Rad. Pts. Rad. Cut. Ang. Pts.
          ---              ---------- --------- --------- ---------
          F                   0.50       49           7.0       434
          Grid pruning is: on 
          Number of quadrature shells:    49
          Spatial weights used:  Erf1

          Convergence Information
          -----------------------
          Convergence aids based upon iterative change in 
          total energy or number of iterations. 
          Levelshifting, if invoked, occurs when the 
          HOMO/LUMO gap drops below (HL_TOL): 1.00D-02
          DIIS, if invoked, will attempt to extrapolate 
          using up to (NFOCK): 10 stored Fock matrices.

                    Damping( 0%)  Levelshifting(0.5)       DIIS
                  --------------- ------------------- ---------------
          dE  on:    start            ASAP                start   
          dE off:    2 iters        *** iters           *** iters 


      Screening Tolerance Information
      -------------------------------
          Density screening/tol_rho: 1.00D-10
          AO Gaussian exp screening on grid/accAOfunc:  14
          CD Gaussian exp screening on grid/accCDfunc:  20
          XC Gaussian exp screening on grid/accXCfunc:  20
          Schwarz screening/accCoul: 1.00D-08



                            NWChem DFT Gradient Module
                            --------------------------



  charge          =   0.00
  wavefunction    = closed shell

  Using symmetry


                         DFT ENERGY GRADIENTS

    atom               coordinates                        gradient
                 x          y          z           x          y          z
   1 F       0.000000   0.000000  -1.302059    0.000000   0.000000  -0.038542
   2 F       0.000000   0.000000   1.302059    0.000000   0.000000   0.038542

                 ----------------------------------------
                 |  Time  |  1-e(secs)   |  2-e(secs)   |
                 ----------------------------------------
                 |  CPU   |       0.00   |       1.09   |
                 ----------------------------------------
                 |  WALL  |       0.00   |       1.09   |
                 ----------------------------------------

  Step       Energy      Delta E   Gmax     Grms     Xrms     Xmax   Walltime
  ---- ---------------- -------- -------- -------- -------- -------- --------
@    1    -199.60738487  4.8D-04  0.03854  0.03854  0.00936  0.01621      7.3
                                                                    



                                Z-matrix (autoz)
                                -------- 

 Units are Angstrom for bonds and degrees for angles

      Type          Name      I     J     K     L     M      Value     Gradient
      ----------- --------  ----- ----- ----- ----- ----- ---------- ----------
    1 Stretch                  1     2                       1.37804    0.03854

 Restricting overall step due to uphill motion.   alpha=  0.50

                                 NWChem DFT Module
                                 -----------------




 Summary of "ao basis" -> "ao basis" (cartesian)
 ------------------------------------------------------------------------------
       Tag                 Description            Shells   Functions and Types
 ---------------- ------------------------------  ------  ---------------------
 F                     6-311++G(3df,3pd)            13       45   5s4p3d1f


      Symmetry analysis of basis
      --------------------------

        a1g        17
        a1u         0
        a2g         0
        a2u        17
        b1g         4
        b1u         4
        b2g         4
        b2u         4
        eg         20
        eu         20

  Caching 1-el integrals 

            General Information
            -------------------
          SCF calculation type: DFT
          Wavefunction type:  closed shell.
          No. of atoms     :     2
          No. of electrons :    18
           Alpha electrons :     9
            Beta electrons :     9
          Charge           :     0
          Spin multiplicity:     1
          Use of symmetry is: on ; symmetry adaption is: on 
          Maximum number of iterations: ***
          AO basis - number of functions:    90
                     number of shells:    26
          Convergence on energy requested: 1.00D-06
          Convergence on density requested: 1.00D-05
          Convergence on gradient requested: 5.00D-04

              XC Information
              --------------
                  TPSS metaGGA Exchange Functional  1.000          
             TPSS03 metaGGA Correlation Functional  1.000          

             Grid Information
             ----------------
          Grid used for XC integration:  medium    
          Radial quadrature: Mura-Knowles        
          Angular quadrature: Lebedev. 
          Tag              B.-S. Rad. Rad. Pts. Rad. Cut. Ang. Pts.
[...]
  ----- ------------  ---------------      ----- ------------  ---------------
     1      0.387001  1 F  s                 46     -0.387001  2 F  s          
     2      0.334264  1 F  s                 47     -0.334264  2 F  s          

 Vector    3  Occ=2.000000D+00  E=-1.375628D+00  Symmetry=a1g
              MO Center= -3.9D-16, -1.3D-15, -1.1D-14, r^2= 5.8D-01
   Bfn.  Coefficient  Atom+Function         Bfn.  Coefficient  Atom+Function  
  ----- ------------  ---------------      ----- ------------  ---------------
    10      0.496247  1 F  s                 55      0.496247  2 F  s          
     6      0.402074  1 F  s                 51      0.402074  2 F  s          
     2     -0.152578  1 F  s                 47     -0.152578  2 F  s          

 Vector    4  Occ=2.000000D+00  E=-1.095144D+00  Symmetry=a2u
              MO Center= -1.1D-30, -1.8D-30,  1.1D-14, r^2= 9.5D-01
   Bfn.  Coefficient  Atom+Function         Bfn.  Coefficient  Atom+Function  
  ----- ------------  ---------------      ----- ------------  ---------------
    10      0.632073  1 F  s                 55     -0.632073  2 F  s          
     6      0.457022  1 F  s                 51     -0.457022  2 F  s          
     2     -0.171196  1 F  s                 47      0.171196  2 F  s          

 Vector    5  Occ=2.000000D+00  E=-6.601117D-01  Symmetry=a1g
              MO Center=  8.9D-33,  2.1D-32,  1.5D-17, r^2= 1.1D+00
   Bfn.  Coefficient  Atom+Function         Bfn.  Coefficient  Atom+Function  
  ----- ------------  ---------------      ----- ------------  ---------------
     9      0.291747  1 F  pz                54     -0.291747  2 F  pz         
    10     -0.266154  1 F  s                 55     -0.266154  2 F  s          
    13      0.247043  1 F  pz                58     -0.247043  2 F  pz         
     5      0.223510  1 F  pz                50     -0.223510  2 F  pz         

 Vector    6  Occ=2.000000D+00  E=-5.760069D-01  Symmetry=eu
              MO Center= -5.4D-16,  8.4D-16, -1.0D-14, r^2= 8.6D-01
   Bfn.  Coefficient  Atom+Function         Bfn.  Coefficient  Atom+Function  
  ----- ------------  ---------------      ----- ------------  ---------------
     8      0.271922  1 F  py                53      0.271922  2 F  py         
    12      0.257980  1 F  py                57      0.257980  2 F  py         
     4      0.202241  1 F  py                49      0.202241  2 F  py         

 Vector    7  Occ=2.000000D+00  E=-5.760069D-01  Symmetry=eu
              MO Center=  1.3D-15,  8.5D-16,  3.7D-15, r^2= 8.6D-01
   Bfn.  Coefficient  Atom+Function         Bfn.  Coefficient  Atom+Function  
  ----- ------------  ---------------      ----- ------------  ---------------
     7      0.271922  1 F  px                52      0.271922  2 F  px         
    11      0.257980  1 F  px                56      0.257980  2 F  px         
     3      0.202241  1 F  px                48      0.202241  2 F  px         

 Vector    8  Occ=2.000000D+00  E=-4.193568D-01  Symmetry=eg
              MO Center= -7.6D-17, -1.2D-16,  8.4D-15, r^2= 9.2D-01
   Bfn.  Coefficient  Atom+Function         Bfn.  Coefficient  Atom+Function  
  ----- ------------  ---------------      ----- ------------  ---------------
    12      0.263493  1 F  py                57     -0.263493  2 F  py         
     8      0.262071  1 F  py                53     -0.262071  2 F  py         
    11     -0.209615  1 F  px                56      0.209615  2 F  px         
     7     -0.208484  1 F  px                52      0.208484  2 F  px         
     4      0.194951  1 F  py                49     -0.194951  2 F  py         

 Vector    9  Occ=2.000000D+00  E=-4.193568D-01  Symmetry=eg
              MO Center=  1.8D-16,  1.0D-16, -1.9D-15, r^2= 9.2D-01
   Bfn.  Coefficient  Atom+Function         Bfn.  Coefficient  Atom+Function  
  ----- ------------  ---------------      ----- ------------  ---------------
    11      0.263493  1 F  px                56     -0.263493  2 F  px         
     7      0.262071  1 F  px                52     -0.262071  2 F  px         
    12      0.209615  1 F  py                57     -0.209615  2 F  py         
     8      0.208484  1 F  py                53     -0.208484  2 F  py         
     3      0.194951  1 F  px                48     -0.194951  2 F  px         

 Vector   10  Occ=0.000000D+00  E=-2.447625D-01  Symmetry=a2u
              MO Center= -2.1D-18,  9.9D-17,  1.9D-15, r^2= 9.4D-01
   Bfn.  Coefficient  Atom+Function         Bfn.  Coefficient  Atom+Function  
  ----- ------------  ---------------      ----- ------------  ---------------
    13      0.406874  1 F  pz                58      0.406874  2 F  pz         
     9      0.364785  1 F  pz                54      0.364785  2 F  pz         
     5      0.268756  1 F  pz                50      0.268756  2 F  pz         
    10      0.247707  1 F  s                 55     -0.247707  2 F  s          
     6      0.198328  1 F  s                 51     -0.198328  2 F  s          

 Vector   11  Occ=0.000000D+00  E= 8.368221D-02  Symmetry=a1g
              MO Center= -5.7D-16, -4.4D-17, -1.7D-15, r^2= 4.0D+00
   Bfn.  Coefficient  Atom+Function         Bfn.  Coefficient  Atom+Function  
  ----- ------------  ---------------      ----- ------------  ---------------
    14      1.004555  1 F  s                 59      1.004555  2 F  s          
     6     -0.250453  1 F  s                 51     -0.250453  2 F  s          
    10     -0.244461  1 F  s                 55     -0.244461  2 F  s          
    35     -0.170656  1 F  dzz               80     -0.170656  2 F  dzz        
    17     -0.160839  1 F  pz                62      0.160839  2 F  pz         

 Vector   12  Occ=0.000000D+00  E= 1.486774D-01  Symmetry=a2u
              MO Center= -1.2D-16,  2.9D-17, -1.1D-15, r^2= 5.9D+00
   Bfn.  Coefficient  Atom+Function         Bfn.  Coefficient  Atom+Function  
  ----- ------------  ---------------      ----- ------------  ---------------
    17      1.522951  1 F  pz                62      1.522951  2 F  pz         
    14      1.410514  1 F  s                 59     -1.410514  2 F  s          
    13     -0.453210  1 F  pz                58     -0.453210  2 F  pz         

 Vector   13  Occ=0.000000D+00  E= 1.699698D-01  Symmetry=eu
              MO Center=  4.6D-15,  3.7D-15, -1.8D-14, r^2= 4.2D+00
   Bfn.  Coefficient  Atom+Function         Bfn.  Coefficient  Atom+Function  
  ----- ------------  ---------------      ----- ------------  ---------------
    15      0.527265  1 F  px                60      0.527265  2 F  px         
    16      0.434851  1 F  py                61      0.434851  2 F  py         
    11     -0.223192  1 F  px                56     -0.223192  2 F  px         
    12     -0.184073  1 F  py                57     -0.184073  2 F  py         

 Vector   14  Occ=0.000000D+00  E= 1.699698D-01  Symmetry=eu
              MO Center=  1.1D-15, -1.3D-15,  5.4D-15, r^2= 4.2D+00
   Bfn.  Coefficient  Atom+Function         Bfn.  Coefficient  Atom+Function  
  ----- ------------  ---------------      ----- ------------  ---------------
    16      0.527265  1 F  py                61      0.527265  2 F  py         
    15     -0.434851  1 F  px                60     -0.434851  2 F  px         
    12     -0.223192  1 F  py                57     -0.223192  2 F  py         
    11      0.184073  1 F  px                56      0.184073  2 F  px         

 Vector   15  Occ=0.000000D+00  E= 2.365230D-01  Symmetry=a1g
              MO Center= -5.7D-15, -3.1D-15,  2.6D-15, r^2= 5.0D+00
   Bfn.  Coefficient  Atom+Function         Bfn.  Coefficient  Atom+Function  
  ----- ------------  ---------------      ----- ------------  ---------------
    17      1.132100  1 F  pz                62     -1.132100  2 F  pz         
    13     -0.225536  1 F  pz                58      0.225536  2 F  pz         
    10     -0.180427  1 F  s                 55     -0.180427  2 F  s          

 Vector   16  Occ=0.000000D+00  E= 2.549938D-01  Symmetry=eg
              MO Center= -1.3D-15,  2.6D-15, -8.9D-15, r^2= 5.4D+00
   Bfn.  Coefficient  Atom+Function         Bfn.  Coefficient  Atom+Function  
  ----- ------------  ---------------      ----- ------------  ---------------
    16      1.350330  1 F  py                61     -1.350330  2 F  py         
    15     -0.667394  1 F  px                60      0.667394  2 F  px         
    12     -0.269559  1 F  py                57      0.269559  2 F  py         

 Vector   17  Occ=0.000000D+00  E= 2.549938D-01  Symmetry=eg
              MO Center= -3.1D-17, -1.5D-17,  2.2D-14, r^2= 5.4D+00
   Bfn.  Coefficient  Atom+Function         Bfn.  Coefficient  Atom+Function  
  ----- ------------  ---------------      ----- ------------  ---------------
    15      1.350330  1 F  px                60     -1.350330  2 F  px         
    16      0.667394  1 F  py                61     -0.667394  2 F  py         
    11     -0.269559  1 F  px                56      0.269559  2 F  px         

 Vector   18  Occ=0.000000D+00  E= 3.933772D-01  Symmetry=a2u
              MO Center=  1.6D-15, -3.1D-15,  3.4D-15, r^2= 5.6D+00
   Bfn.  Coefficient  Atom+Function         Bfn.  Coefficient  Atom+Function  
  ----- ------------  ---------------      ----- ------------  ---------------
    14     11.070117  1 F  s                 59    -11.070117  2 F  s          
    17      4.697002  1 F  pz                62      4.697002  2 F  pz         
    10     -0.418261  1 F  s                 55      0.418261  2 F  s          
    35     -0.366008  1 F  dzz               80      0.366008  2 F  dzz        
    30     -0.301653  1 F  dxx               33     -0.301653  1 F  dyy        

 Vector   19  Occ=0.000000D+00  E= 7.583478D-01  Symmetry=b1g
              MO Center=  1.7D-16,  1.2D-16, -3.6D-17, r^2= 1.5D+00
   Bfn.  Coefficient  Atom+Function         Bfn.  Coefficient  Atom+Function  
  ----- ------------  ---------------      ----- ------------  ---------------
    30      0.549221  1 F  dxx               33     -0.549221  1 F  dyy        
    75      0.549221  2 F  dxx               78     -0.549221  2 F  dyy        


 center of mass
 --------------
 x =   0.00000000 y =   0.00000000 z =   0.00000000

 moments of inertia (a.u.)
 ------------------
          62.320144794826           0.000000000000           0.000000000000
           0.000000000000          62.320144794826           0.000000000000
           0.000000000000           0.000000000000           0.000000000000

     Multipole analysis of the density
     ---------------------------------

     L   x y z        total         alpha         beta         nuclear
     -   - - -        -----         -----         ----         -------
     0   0 0 0     -0.000000     -9.000000     -9.000000     18.000000

     1   1 0 0      0.000000      0.000000      0.000000      0.000000
     1   0 1 0      0.000000      0.000000      0.000000      0.000000
     1   0 0 1     -0.000000     -0.000000     -0.000000      0.000000

     2   2 0 0     -7.307090     -3.653545     -3.653545      0.000000
     2   1 1 0      0.000000      0.000000      0.000000      0.000000
     2   1 0 1      0.000000      0.000000      0.000000      0.000000
     2   0 2 0     -7.307090     -3.653545     -3.653545      0.000000
     2   0 1 1      0.000000      0.000000      0.000000      0.000000
     2   0 0 2     -6.537775    -18.030165    -18.030165     29.522555


------------------------------------------------------------
EAF file 0: "./F2.xyz.aoints.0" size=5767168 bytes
------------------------------------------------------------
               write      read    awrite     aread      wait
               -----      ----    ------     -----      ----
     calls:       11         5         0        50        50
   data(b): 5.77e+06  2.62e+06  0.00e+00  2.62e+07
   time(s): 0.00e+00  0.00e+00  0.00e+00  0.00e+00  0.00e+00
rate(mb/s): 0.00e+00  0.00e+00
------------------------------------------------------------


 Parallel integral file used      34 records with       0 large values


            General Information
            -------------------
          SCF calculation type: DFT
          Wavefunction type:  closed shell.
          No. of atoms     :     2
          No. of electrons :    18
           Alpha electrons :     9
            Beta electrons :     9
          Charge           :     0
          Spin multiplicity:     1
          Use of symmetry is: on ; symmetry adaption is: on 
          Maximum number of iterations: ***
          AO basis - number of functions:    90
                     number of shells:    26
          Convergence on energy requested: 1.00D-06
          Convergence on density requested: 1.00D-05
          Convergence on gradient requested: 5.00D-04

              XC Information
              --------------
                  TPSS metaGGA Exchange Functional  1.000          
             TPSS03 metaGGA Correlation Functional  1.000          

             Grid Information
             ----------------
          Grid used for XC integration:  medium    
          Radial quadrature: Mura-Knowles        
          Angular quadrature: Lebedev. 
          Tag              B.-S. Rad. Rad. Pts. Rad. Cut. Ang. Pts.
          ---              ---------- --------- --------- ---------
          F                   0.50       49           7.0       434
          Grid pruning is: on 
          Number of quadrature shells:    49
          Spatial weights used:  Erf1

          Convergence Information
          -----------------------
          Convergence aids based upon iterative change in 
          total energy or number of iterations. 
          Levelshifting, if invoked, occurs when the 
          HOMO/LUMO gap drops below (HL_TOL): 1.00D-02
          DIIS, if invoked, will attempt to extrapolate 
          using up to (NFOCK): 10 stored Fock matrices.

                    Damping( 0%)  Levelshifting(0.5)       DIIS
                  --------------- ------------------- ---------------
          dE  on:    start            ASAP                start   
          dE off:    2 iters        *** iters           *** iters 


      Screening Tolerance Information
      -------------------------------
          Density screening/tol_rho: 1.00D-10
          AO Gaussian exp screening on grid/accAOfunc:  14
          CD Gaussian exp screening on grid/accCDfunc:  20
          XC Gaussian exp screening on grid/accXCfunc:  20
          Schwarz screening/accCoul: 1.00D-08



                            NWChem DFT Gradient Module
                            --------------------------



  charge          =   0.00
  wavefunction    = closed shell

  Using symmetry


                         DFT ENERGY GRADIENTS

    atom               coordinates                        gradient
                 x          y          z           x          y          z
   1 F       0.000000   0.000000  -1.280680    0.000000   0.000000  -0.018629
   2 F       0.000000   0.000000   1.280680    0.000000   0.000000   0.018629

                 ----------------------------------------
                 |  Time  |  1-e(secs)   |  2-e(secs)   |
                 ----------------------------------------
                 |  CPU   |       0.00   |       1.08   |
                 ----------------------------------------
                 |  WALL  |       0.00   |       1.08   |
                 ----------------------------------------

  Step       Energy      Delta E   Gmax     Grms     Xrms     Xmax   Walltime
  ---- ---------------- -------- -------- -------- -------- -------- --------
@   20    -199.60603366  3.7D-05  0.01863  0.01863  0.00026  0.00044     83.6
                                                       ok       ok  



                                Z-matrix (autoz)
                                -------- 

 Units are Angstrom for bonds and degrees for angles

      Type          Name      I     J     K     L     M      Value     Gradient
      ----------- --------  ----- ----- ----- ----- ----- ---------- ----------
    1 Stretch                  1     2                       1.35541    0.01863


 ---------------------------------------------------------------
 Failed to converge in maximum number of steps or available time
 ---------------------------------------------------------------


  Step       Energy      Delta E   Gmax     Grms     Xrms     Xmax   Walltime
  ---- ---------------- -------- -------- -------- -------- -------- --------
@   20    -199.60603366  3.7D-05  0.01863  0.01863  0.00026  0.00044     83.6
                                                       ok       ok  



                                Z-matrix (autoz)
                                -------- 

 Units are Angstrom for bonds and degrees for angles

      Type          Name      I     J     K     L     M      Value     Gradient
      ----------- --------  ----- ----- ----- ----- ----- ---------- ----------
    1 Stretch                  1     2                       1.35541    0.01863



                         Geometry "geometry" -> "geometry"
                         ---------------------------------

 Output coordinates in angstroms (scale by  1.889725989 to convert to a.u.)

  No.       Tag          Charge          X              Y              Z
 ---- ---------------- ---------- -------------- -------------- --------------
    1 F                    9.0000     0.00000000     0.00000000    -0.67770686
    2 F                    9.0000     0.00000000     0.00000000     0.67770686

      Atomic Mass 
      ----------- 

      F                 18.998400


 Effective nuclear repulsion energy (a.u.)      31.6238184301

            Nuclear Dipole moment (a.u.) 
            ----------------------------
        X                 Y               Z
 ---------------- ---------------- ----------------
     0.0000000000     0.0000000000     0.0000000000

      Symmetry information
      --------------------

 Group name             D4h       
 Group number             28
 Group order              16
 No. of unique centers     1

      Symmetry unique atoms

     1


                Final and change from initial internal coordinates
                --------------------------------------------------



                                Z-matrix (autoz)
                                -------- 

 Units are Angstrom for bonds and degrees for angles

      Type          Name      I     J     K     L     M      Value       Change
      ----------- --------  ----- ----- ----- ----- ----- ---------- ----------
    1 Stretch                  1     2                       1.35541   -0.03979

 ------------------------------------------------------------------------
 dft optimize failed                                                                                0
 ------------------------------------------------------------------------
 ------------------------------------------------------------------------
  current input line : 
    16:  task dft optimize
 ------------------------------------------------------------------------
 ------------------------------------------------------------------------
 This type of error is most commonly associated with calculations not reaching convergence criteria
 ------------------------------------------------------------------------
 For more information see the NWChem manual at http://www.nwchem-sw.org/index.php/NWChem_Documentation


 For further details see manual section:                                                                                                                                                                                                                                                                
0:0:dft optimize failed:: -1
(rank:0 hostname:kalinga pid:3006):ARMCI DASSERT fail. ../../ga-5-4/armci/src/common/armci.c:ARMCI_Error():208 cond:0
