[1537784465.030648] [r8n4:10979:0]         sys.c:744  MXM  WARN  Conflicting CPU frequencies detected, using: 2499.99
[1537784465.037115] [r8n4:10980:0]         sys.c:744  MXM  WARN  Conflicting CPU frequencies detected, using: 2499.99
[1537784465.046720] [r8n4:10982:0]         sys.c:744  MXM  WARN  Conflicting CPU frequencies detected, using: 2499.99
[1537784465.046747] [r8n4:10985:0]         sys.c:744  MXM  WARN  Conflicting CPU frequencies detected, using: 2499.99
[1537784465.047273] [r8n4:10981:0]         sys.c:744  MXM  WARN  Conflicting CPU frequencies detected, using: 2499.99
[1537784465.047381] [r8n4:10983:0]         sys.c:744  MXM  WARN  Conflicting CPU frequencies detected, using: 2499.99
[1537784465.047434] [r8n4:10984:0]         sys.c:744  MXM  WARN  Conflicting CPU frequencies detected, using: 2499.99
[1537784465.053383] [r8n4:10986:0]         sys.c:744  MXM  WARN  Conflicting CPU frequencies detected, using: 2499.99
[1537784465.053941] [r8n4:10988:0]         sys.c:744  MXM  WARN  Conflicting CPU frequencies detected, using: 2499.99
[1537784465.089438] [r8n4:10992:0]         sys.c:744  MXM  WARN  Conflicting CPU frequencies detected, using: 2499.99
[1537784465.089874] [r8n4:11002:0]         sys.c:744  MXM  WARN  Conflicting CPU frequencies detected, using: 2499.99
[1537784465.090294] [r8n4:10999:0]         sys.c:744  MXM  WARN  Conflicting CPU frequencies detected, using: 2499.99
[1537784465.090605] [r8n4:11001:0]         sys.c:744  MXM  WARN  Conflicting CPU frequencies detected, using: 2499.99
[1537784465.090813] [r8n4:10994:0]         sys.c:744  MXM  WARN  Conflicting CPU frequencies detected, using: 2499.99
[1537784465.090833] [r8n4:10990:0]         sys.c:744  MXM  WARN  Conflicting CPU frequencies detected, using: 2499.99
[1537784465.090838] [r8n4:10997:0]         sys.c:744  MXM  WARN  Conflicting CPU frequencies detected, using: 2499.99
 argument  1 = /storage/home/bikashp/nwchem_run/rabeet/pa8/nwpa8/C2H2.xyz.nw
                                         
                                         


              Northwest Computational Chemistry Package (NWChem) 6.6
              ------------------------------------------------------


                    Environmental Molecular Sciences Laboratory
                       Pacific Northwest National Laboratory
                                Richland, WA 99352

                              Copyright (c) 1994-2015
                       Pacific Northwest National Laboratory
                            Battelle Memorial Institute

             NWChem is an open-source computational chemistry package
                        distributed under the terms of the
                      Educational Community License (ECL) 2.0
             A copy of the license is included with this distribution
                              in the LICENSE.TXT file

                                  ACKNOWLEDGMENT
                                  --------------

            This software and its documentation were developed at the
            EMSL at Pacific Northwest National Laboratory, a multiprogram
            national laboratory, operated for the U.S. Department of Energy
            by Battelle under Contract Number DE-AC05-76RL01830. Support
            for this work was provided by the Department of Energy Office
            of Biological and Environmental Research, Office of Basic
            Energy Sciences, and the Office of Advanced Scientific Computing.


           Job information
           ---------------

    hostname        = r8n4.niserhpc.org
    program         = /home/bikashp/Code/nwchem-6.6_tpssloc/bin/LINUX64/nwchem
    date            = Mon Sep 24 15:51:07 2018

    compiled        = Tue_Sep_18_16:24:59_2018
    source          = /home/bikashp/Code/nwchem-6.6_tpssloc
    nwchem branch   = 6.6
    nwchem revision = 27746
    ga revision     = 10594
    input           = /storage/home/bikashp/nwchem_run/rabeet/pa8/nwpa8/C2H2.xyz.nw
    prefix          = C2H2.xyz.
    data base       = ./C2H2.xyz.db
    status          = startup
    nproc           =       16
    time left       =     -1s



           Memory information
           ------------------

    heap     =   13107196 doubles =    100.0 Mbytes
    stack    =   13107201 doubles =    100.0 Mbytes
    global   =   26214400 doubles =    200.0 Mbytes (distinct from heap & stack)
    total    =   52428797 doubles =    400.0 Mbytes
    verify   = yes
    hardfail = no 


           Directory information
           ---------------------

  0 permanent = .
  0 scratch   = .




                                NWChem Input Module
                                -------------------



 Scaling coordinates for geometry "geometry" by  1.889725989
 (inverse scale =  0.529177249)

 ORDER OF PRIMARY AXIS IS BEING SET TO 4
 D4H symmetry detected

          ------
          auto-z
          ------
  autoz: angle generation failed due to 4 colinear atoms                     3                    2                    1                    4
     1 autoz failed with cvr_scaling = 1.2 changing to 1.3
  autoz: angle generation failed due to 4 colinear atoms                     3                    2                    1                    4
     2 autoz failed with cvr_scaling = 1.3 changing to 1.4
  autoz: angle generation failed due to 4 colinear atoms                     3                    2                    1                    4
     3 autoz failed with cvr_scaling = 1.4 changing to 1.5
  autoz: angle generation failed due to 4 colinear atoms                     3                    2                    1                    4
     4 autoz failed with cvr_scaling = 1.5 changing to 1.6
  autoz: angle generation failed due to 4 colinear atoms                     3                    2                    1                    4
     5 autoz failed with cvr_scaling = 1.6 changing to 1.7
  autoz: angle generation failed due to 4 colinear atoms                     3                    2                    1                    4

 AUTOZ failed to generate good internal coordinates.
 Cartesian coordinates will be used in optimizations.



                             Geometry "geometry" -> ""
                             -------------------------

 Output coordinates in angstroms (scale by  1.889725989 to convert to a.u.)

  No.       Tag          Charge          X              Y              Z
 ---- ---------------- ---------- -------------- -------------- --------------
    1 C                    6.0000     0.00000000     0.00000000     0.60808000
    2 C                    6.0000     0.00000000     0.00000000    -0.60808000
    3 H                    1.0000     0.00000000     0.00000000    -1.67399000
    4 H                    1.0000     0.00000000     0.00000000     1.67399000

      Atomic Mass 
      ----------- 

      C                 12.000000
      H                  1.007825


 Effective nuclear repulsion energy (a.u.)      24.5625165013

            Nuclear Dipole moment (a.u.) 
            ----------------------------
        X                 Y               Z
 ---------------- ---------------- ----------------
     0.0000000000     0.0000000000     0.0000000000

      Symmetry information
      --------------------

 Group name             D4h       
 Group number             28
 Group order              16
 No. of unique centers     2

      Symmetry unique atoms

     1    3


            XYZ format geometry
            -------------------
     4
 geometry
 C                     0.00000000     0.00000000     0.60808000
 C                     0.00000000     0.00000000    -0.60808000
 H                     0.00000000     0.00000000    -1.67399000
 H                     0.00000000     0.00000000     1.67399000

 ==============================================================================
                                internuclear distances
 ------------------------------------------------------------------------------
       center one      |      center two      | atomic units |  angstroms
 ------------------------------------------------------------------------------
    2 C                |   1 C                |     2.29821  |     1.21616
    3 H                |   2 C                |     2.01428  |     1.06591
    4 H                |   1 C                |     2.01428  |     1.06591
 ------------------------------------------------------------------------------
                         number of included internuclear distances:          3
 ==============================================================================



 ==============================================================================
                                 internuclear angles
 ------------------------------------------------------------------------------
        center 1       |       center 2       |       center 3       |  degrees
 ------------------------------------------------------------------------------
    2 C                |   1 C                |   4 H                |   180.00
    1 C                |   2 C                |   3 H                |   180.00
 ------------------------------------------------------------------------------
                            number of included internuclear angles:          2
 ==============================================================================





 Summary of "ao basis" -> "" (cartesian)
 ------------------------------------------------------------------------------
       Tag                 Description            Shells   Functions and Types
 ---------------- ------------------------------  ------  ---------------------
 *                     6-311++G(3df,3pd)              on all atoms 



                                 NWChem DFT Module
                                 -----------------


                      Basis "ao basis" -> "ao basis" (cartesian)
                      -----
  C (Carbon)
  ----------
            Exponent  Coefficients 
       -------------- ---------------------------------------------------------
  1 S  4.56324000E+03  0.001967
  1 S  6.82024000E+02  0.015231
  1 S  1.54973000E+02  0.076127
  1 S  4.44553000E+01  0.260801
  1 S  1.30290000E+01  0.616462
  1 S  1.82773000E+00  0.221006

  2 S  2.09642000E+01  0.114660
  2 S  4.80331000E+00  0.919999
  2 S  1.45933000E+00 -0.003031

  3 P  2.09642000E+01  0.040249
  3 P  4.80331000E+00  0.237594
  3 P  1.45933000E+00  0.815854

  4 S  4.83456000E-01  1.000000

  5 P  4.83456000E-01  1.000000

  6 S  1.45585000E-01  1.000000

  7 P  1.45585000E-01  1.000000

  8 S  4.38000000E-02  1.000000

  9 P  4.38000000E-02  1.000000

 10 D  2.50400000E+00  1.000000

 11 D  6.26000000E-01  1.000000

 12 D  1.56500000E-01  1.000000

 13 F  8.00000000E-01  1.000000

  H (Hydrogen)
  ------------
            Exponent  Coefficients 
       -------------- ---------------------------------------------------------
  1 S  3.38650000E+01  0.025494
  1 S  5.09479000E+00  0.190373
  1 S  1.15879000E+00  0.852161

  2 S  3.25840000E-01  1.000000

  3 S  1.02741000E-01  1.000000

  4 S  3.60000000E-02  1.000000

  5 P  3.00000000E+00  1.000000

  6 P  7.50000000E-01  1.000000

  7 P  1.87500000E-01  1.000000

  8 D  1.00000000E+00  1.000000



 Summary of "ao basis" -> "ao basis" (cartesian)
 ------------------------------------------------------------------------------
       Tag                 Description            Shells   Functions and Types
 ---------------- ------------------------------  ------  ---------------------
 C                     6-311++G(3df,3pd)            13       45   5s4p3d1f
 H                     6-311++G(3df,3pd)             8       19   4s3p1d




 Summary of "ao basis" -> "ao basis" (cartesian)
 ------------------------------------------------------------------------------
       Tag                 Description            Shells   Functions and Types
 ---------------- ------------------------------  ------  ---------------------
 C                     6-311++G(3df,3pd)            13       45   5s4p3d1f
 H                     6-311++G(3df,3pd)             8       19   4s3p1d


      Symmetry analysis of basis
      --------------------------

        a1g        26
        a1u         0
        a2g         0
        a2u        26
        b1g         5
        b1u         5
        b2g         5
        b2u         5
        eg         28
        eu         28

  Caching 1-el integrals 

            General Information
            -------------------
          SCF calculation type: DFT
          Wavefunction type:  closed shell.
          No. of atoms     :     4
          No. of electrons :    14
           Alpha electrons :     7
            Beta electrons :     7
          Charge           :     0
          Spin multiplicity:     1
          Use of symmetry is: on ; symmetry adaption is: on 
          Maximum number of iterations: ***
          AO basis - number of functions:   128
                     number of shells:    42
          Convergence on energy requested: 1.00D-06
          Convergence on density requested: 1.00D-05
          Convergence on gradient requested: 5.00D-04

              XC Information
              --------------
                  TPSS metaGGA Exchange Functional  1.000          
             TPSS03 metaGGA Correlation Functional  1.000          

             Grid Information
             ----------------
          Grid used for XC integration:  medium    
          Radial quadrature: Mura-Knowles        
          Angular quadrature: Lebedev. 
          Tag              B.-S. Rad. Rad. Pts. Rad. Cut. Ang. Pts.
          ---              ---------- --------- --------- ---------
          C                   0.70       49          12.0       434
          H                   0.35       45          13.0       434
          Grid pruning is: on 
          Number of quadrature shells:    94
          Spatial weights used:  Erf1

          Convergence Information
          -----------------------
          Convergence aids based upon iterative change in 
          total energy or number of iterations. 
          Levelshifting, if invoked, occurs when the 
          HOMO/LUMO gap drops below (HL_TOL): 1.00D-02
          DIIS, if invoked, will attempt to extrapolate 
          using up to (NFOCK): 10 stored Fock matrices.

                    Damping( 0%)  Levelshifting(0.5)       DIIS
                  --------------- ------------------- ---------------
          dE  on:    start            ASAP                start   
          dE off:    2 iters        *** iters           *** iters 


      Screening Tolerance Information
      -------------------------------
          Density screening/tol_rho: 1.00D-10
          AO Gaussian exp screening on grid/accAOfunc:  14
          CD Gaussian exp screening on grid/accCDfunc:  20
          XC Gaussian exp screening on grid/accXCfunc:  20
          Schwarz screening/accCoul: 1.00D-08


 WARNING : Found     2 linear dependencies 
 S eigenvalue threshold:     1.00000E-05
 Smallest S eigenvalue :     3.09192E-07
 Largest  S eigenvalue :     6.64010E-06


 !! The overlap matrix has   2 vectors deemed linearly dependent with
    eigenvalues:
 3.09D-07 6.64D-06


      Superposition of Atomic Density Guess
      -------------------------------------

 Sum of atomic energies:         -76.33787208

      Non-variational initial energy
      ------------------------------

 Total energy =     -77.140647
 1-e energy   =    -149.574931
 2-e energy   =      47.871767
 HOMO         =      -0.363081
 LUMO         =       0.037584


      Symmetry analysis of molecular orbitals - initial
      -------------------------------------------------


 !! scf_movecs_sym_adapt:    2 vectors were symmetry contaminated

  Symmetry fudging
  Numbering of irreducible representations: 

     1 a1g         2 a1u         3 a2g         4 a2u         5 b1g     
     6 b1u         7 b2g         8 b2u         9 eg         10 eu      

  Orbital symmetries:

     1 a1g         2 a2u         3 a1g         4 a2u         5 a1g     
     6 eu          7 eu          8 eg          9 eg         10 a1g     
    11 a2u        12 eu         13 eu         14 a1g        15 a2u     
    16 a1g        17 eg      

   Time after variat. SCF:      0.6
   Time prior to 1st pass:      0.6

 Integral file          = ./C2H2.xyz.aoints.00
 Record size in doubles =    65536    No. of integs per rec  =    43688
 Max. records in memory =        7    Max. records in file   = 11668036
 No. of bits per label  =        8    No. of bits per value  =       64


 #quartets = 2.286D+05 #integrals = 5.131D+06 #direct =  0.0% #cached =100.0%


File balance: exchanges=     0  moved=     0  time=   0.0


 Grid_pts file          = ./C2H2.xyz.gridpts.00
 Record size in doubles =  12289        No. of grid_pts per rec  =   3070
 Max. records in memory =      2        Max. recs in file   =  62224465

 Grid integrated density:      13.981537032224
 Requested integration accuracy:   0.10E-05

           Memory utilization after 1st SCF pass: 
           Heap Space remaining (MW):       12.62            12620020
          Stack Space remaining (MW):       13.11            13106420

   convergence    iter        energy       DeltaE   RMS-Dens  Diis-err    time
 ---------------- ----- ----------------- --------- --------- ---------  ------
 d= 0,ls=0.0,diis     1    -77.3268858474 -1.02D+02  6.52D-03  4.02D-01     1.1
 d= 0,ls=0.0,diis     2    -77.3268213035  6.45D-05  2.41D-03  1.24D-01     1.2
 d= 0,ls=0.0,diis     3    -77.3526865477 -2.59D-02  6.37D-04  2.86D-02     1.4
 d= 0,ls=0.0,diis     4    -77.3482242566  4.46D-03  1.44D-04  3.95D-04     1.6
 d= 0,ls=0.0,diis     5    -77.3487525451 -5.28D-04  3.53D-05  2.44D-05     1.8
  Resetting Diis
 d= 0,ls=0.0,diis     6    -77.3487903621 -3.78D-05  3.20D-06  1.34D-07     1.9
 d= 0,ls=0.0,diis     7    -77.3488010548 -1.07D-05  4.32D-07  1.92D-09     2.1
 d= 0,ls=0.0,diis     8    -77.3487985712  2.48D-06  1.64D-07  2.19D-09     2.3
 d= 0,ls=0.0,diis     9    -77.3487999249 -1.35D-06  3.58D-08  8.01D-10     2.4
 d= 0,ls=0.0,diis    10    -77.3487997897  1.35D-07  1.43D-08  7.88D-10     2.6


         Total DFT energy =      -77.348799789703
      One electron energy =     -150.998180336259
           Coulomb energy =       60.493745231377
          Exchange energy =      -10.980080046740
       Correlation energy =       -0.426801139415
 Nuclear repulsion energy =       24.562516501333

 Numeric. integr. density =       14.000000644929

     Total iterative time =      2.0s



                  Occupations of the irreducible representations
                  ----------------------------------------------

                     irrep           alpha         beta
                     --------     --------     --------
                     a1g               3.0          3.0
                     a1u               0.0          0.0
                     a2g               0.0          0.0
                     a2u               2.0          2.0
                     b1g               0.0          0.0
                     b1u               0.0          0.0
                     b2g               0.0          0.0
                     b2u               0.0          0.0
                     eg                0.0          0.0
                     eu                2.0          2.0


                       DFT Final Molecular Orbital Analysis
                       ------------------------------------

 Vector    1  Occ=2.000000D+00  E=-1.008092D+01  Symmetry=a1g
              MO Center= -7.6D-23, -3.9D-23, -2.1D-13, r^2= 4.0D-01
   Bfn.  Coefficient  Atom+Function         Bfn.  Coefficient  Atom+Function  
  ----- ------------  ---------------      ----- ------------  ---------------
     1      0.397302  1 C  s                 46      0.397302  2 C  s          
     2      0.329191  1 C  s                 47      0.329191  2 C  s          

 Vector    2  Occ=2.000000D+00  E=-1.007902D+01  Symmetry=a2u
              MO Center= -1.8D-35,  1.2D-35,  2.1D-13, r^2= 4.0D-01
   Bfn.  Coefficient  Atom+Function         Bfn.  Coefficient  Atom+Function  
  ----- ------------  ---------------      ----- ------------  ---------------
     1      0.397480  1 C  s                 46     -0.397480  2 C  s          
     2      0.329407  1 C  s                 47     -0.329407  2 C  s          

 Vector    3  Occ=2.000000D+00  E=-7.565326D-01  Symmetry=a1g
              MO Center=  1.6D-15, -2.4D-15, -1.9D-15, r^2= 9.0D-01
   Bfn.  Coefficient  Atom+Function         Bfn.  Coefficient  Atom+Function  
  ----- ------------  ---------------      ----- ------------  ---------------
    10      0.324745  1 C  s                 55      0.324745  2 C  s          
     6      0.312922  1 C  s                 51      0.312922  2 C  s          
     2     -0.152463  1 C  s                 47     -0.152463  2 C  s          

 Vector    4  Occ=2.000000D+00  E=-5.851276D-01  Symmetry=a2u
              MO Center= -6.8D-18,  8.1D-17,  2.7D-14, r^2= 2.2D+00
   Bfn.  Coefficient  Atom+Function         Bfn.  Coefficient  Atom+Function  
  ----- ------------  ---------------      ----- ------------  ---------------
     6      0.196760  1 C  s                 51     -0.196760  2 C  s          
    13      0.194073  1 C  pz                58      0.194073  2 C  pz         
    92     -0.160546  3 H  s                111      0.160546  4 H  s          

 Vector    5  Occ=2.000000D+00  E=-5.097179D-01  Symmetry=a1g
              MO Center= -4.6D-31, -2.9D-30, -2.5D-14, r^2= 2.0D+00
   Bfn.  Coefficient  Atom+Function         Bfn.  Coefficient  Atom+Function  
  ----- ------------  ---------------      ----- ------------  ---------------
    92      0.247348  3 H  s                111      0.247348  4 H  s          
     9      0.219047  1 C  pz                54     -0.219047  2 C  pz         
     5      0.191574  1 C  pz                50     -0.191574  2 C  pz         
    13      0.150266  1 C  pz                58     -0.150266  2 C  pz         
    93      0.150667  3 H  s                112      0.150667  4 H  s          

 Vector    6  Occ=2.000000D+00  E=-3.362255D-01  Symmetry=eu
              MO Center= -1.8D-15, -2.0D-15,  1.6D-15, r^2= 1.4D+00
   Bfn.  Coefficient  Atom+Function         Bfn.  Coefficient  Atom+Function  
  ----- ------------  ---------------      ----- ------------  ---------------
     7      0.240393  1 C  px                52      0.240393  2 C  px         
    11      0.218491  1 C  px                56      0.218491  2 C  px         
     3      0.170838  1 C  px                48      0.170838  2 C  px         

 Vector    7  Occ=2.000000D+00  E=-3.362255D-01  Symmetry=eu
              MO Center= -1.2D-15,  2.6D-15, -6.8D-17, r^2= 1.4D+00
   Bfn.  Coefficient  Atom+Function         Bfn.  Coefficient  Atom+Function  
  ----- ------------  ---------------      ----- ------------  ---------------
     8      0.240393  1 C  py                53      0.240393  2 C  py         
    12      0.218491  1 C  py                57      0.218491  2 C  py         
     4      0.170838  1 C  py                49      0.170838  2 C  py         

 Vector    8  Occ=0.000000D+00  E=-8.191148D-02  Symmetry=eg
              MO Center=  5.6D-17, -5.9D-17,  8.5D-16, r^2= 2.6D+00
   Bfn.  Coefficient  Atom+Function         Bfn.  Coefficient  Atom+Function  
  ----- ------------  ---------------      ----- ------------  ---------------
    12     -0.359860  1 C  py                57      0.359860  2 C  py         
    11      0.337224  1 C  px                56     -0.337224  2 C  px         
    16     -0.204225  1 C  py                61      0.204225  2 C  py         
     8     -0.193570  1 C  py                53      0.193570  2 C  py         
    15      0.191378  1 C  px                60     -0.191378  2 C  px         

 Vector    9  Occ=0.000000D+00  E=-8.191148D-02  Symmetry=eg
              MO Center= -4.3D-17, -4.1D-17, -2.4D-15, r^2= 2.6D+00
   Bfn.  Coefficient  Atom+Function         Bfn.  Coefficient  Atom+Function  
  ----- ------------  ---------------      ----- ------------  ---------------
    11      0.359860  1 C  px                56     -0.359860  2 C  px         
    12      0.337224  1 C  py                57     -0.337224  2 C  py         
    15      0.204225  1 C  px                60     -0.204225  2 C  px         
     7      0.193570  1 C  px                52     -0.193570  2 C  px         
    16      0.191378  1 C  py                61     -0.191378  2 C  py         

 Vector   10  Occ=0.000000D+00  E=-4.463710D-03  Symmetry=a2u
              MO Center= -1.9D-15, -4.0D-16, -2.4D-12, r^2= 1.1D+01
   Bfn.  Coefficient  Atom+Function         Bfn.  Coefficient  Atom+Function  
  ----- ------------  ---------------      ----- ------------  ---------------
    94      1.948070  3 H  s                113     -1.948070  4 H  s          
    17      0.759136  1 C  pz                62      0.759136  2 C  pz         
    93      0.619197  3 H  s                112     -0.619197  4 H  s          
    14      0.559018  1 C  s                 59     -0.559018  2 C  s          
    13      0.357193  1 C  pz                58      0.357193  2 C  pz         

 Vector   11  Occ=0.000000D+00  E=-1.599145D-03  Symmetry=a1g
              MO Center=  7.6D-15,  2.1D-14,  2.4D-12, r^2= 1.3D+01
   Bfn.  Coefficient  Atom+Function         Bfn.  Coefficient  Atom+Function  
  ----- ------------  ---------------      ----- ------------  ---------------
    94      2.615931  3 H  s                113      2.615931  4 H  s          
    14     -2.295197  1 C  s                 59     -2.295197  2 C  s          
    17     -1.526791  1 C  pz                62      1.526791  2 C  pz         
    93      0.579315  3 H  s                112      0.579315  4 H  s          
    10     -0.394017  1 C  s                 55     -0.394017  2 C  s          

 Vector   12  Occ=0.000000D+00  E= 2.763978D-02  Symmetry=a1g
              MO Center=  7.6D-16,  3.5D-16,  2.9D-14, r^2= 7.4D+00
   Bfn.  Coefficient  Atom+Function         Bfn.  Coefficient  Atom+Function  
  ----- ------------  ---------------      ----- ------------  ---------------
    14      1.532377  1 C  s                 59      1.532377  2 C  s          
    94     -1.023584  3 H  s                113     -1.023584  4 H  s          
    93     -0.920271  3 H  s                112     -0.920271  4 H  s          
    10      0.489602  1 C  s                 55      0.489602  2 C  s          
    92     -0.321005  3 H  s                111     -0.321005  4 H  s          

 Vector   13  Occ=0.000000D+00  E= 5.814154D-02  Symmetry=eu
              MO Center= -1.4D-14, -1.5D-14, -3.7D-15, r^2= 9.3D+00
   Bfn.  Coefficient  Atom+Function         Bfn.  Coefficient  Atom+Function  
  ----- ------------  ---------------      ----- ------------  ---------------
    15      0.440687  1 C  px                60      0.440687  2 C  px         
    16      0.401701  1 C  py                61      0.401701  2 C  py         
    11     -0.181939  1 C  px                56     -0.181939  2 C  px         
    12     -0.165843  1 C  py                57     -0.165843  2 C  py         

 Vector   14  Occ=0.000000D+00  E= 5.814154D-02  Symmetry=eu
              MO Center=  9.3D-15, -8.4D-15,  6.8D-15, r^2= 9.3D+00
   Bfn.  Coefficient  Atom+Function         Bfn.  Coefficient  Atom+Function  
  ----- ------------  ---------------      ----- ------------  ---------------
    16     -0.440687  1 C  py                61     -0.440687  2 C  py         
    15      0.401701  1 C  px                60      0.401701  2 C  px         
    12      0.181939  1 C  py                57      0.181939  2 C  py         
    11     -0.165843  1 C  px                56     -0.165843  2 C  px         

 Vector   15  Occ=0.000000D+00  E= 7.953598D-02  Symmetry=a2u
              MO Center=  7.7D-28,  9.7D-28, -7.1D-14, r^2= 1.3D+01
   Bfn.  Coefficient  Atom+Function         Bfn.  Coefficient  Atom+Function  
  ----- ------------  ---------------      ----- ------------  ---------------
    94      2.518991  3 H  s                113     -2.518991  4 H  s          
    93     -1.888372  3 H  s                112      1.888372  4 H  s          
    13     -1.060920  1 C  pz                58     -1.060920  2 C  pz         
    17      0.720354  1 C  pz                62      0.720354  2 C  pz         
    92     -0.564419  3 H  s                111      0.564419  4 H  s          

 Vector   16  Occ=0.000000D+00  E= 1.100750D-01  Symmetry=a1g
              MO Center= -5.8D-16, -1.4D-16,  3.1D-14, r^2= 2.0D+01
   Bfn.  Coefficient  Atom+Function         Bfn.  Coefficient  Atom+Function  
  ----- ------------  ---------------      ----- ------------  ---------------
    14      9.746711  1 C  s                 59      9.746711  2 C  s          
    94     -7.937652  3 H  s                113     -7.937652  4 H  s          
    17      6.025961  1 C  pz                62     -6.025961  2 C  pz         
    93     -2.605222  3 H  s                112     -2.605222  4 H  s          
    10      0.916241  1 C  s                 55      0.916241  2 C  s          

 Vector   17  Occ=0.000000D+00  E= 1.145660D-01  Symmetry=eg
              MO Center=  1.9D-15, -1.1D-16, -1.2D-14, r^2= 1.2D+01
   Bfn.  Coefficient  Atom+Function         Bfn.  Coefficient  Atom+Function  
  ----- ------------  ---------------      ----- ------------  ---------------
    15      2.363620  1 C  px                60     -2.363620  2 C  px         
    11     -0.350730  1 C  px                56      0.350730  2 C  px         
    32     -0.234530  1 C  dxz               77     -0.234530  2 C  dxz        

 Vector   18  Occ=0.000000D+00  E= 1.145660D-01  Symmetry=eg
              MO Center=  2.9D-17,  4.9D-16,  7.0D-15, r^2= 1.2D+01
   Bfn.  Coefficient  Atom+Function         Bfn.  Coefficient  Atom+Function  
  ----- ------------  ---------------      ----- ------------  ---------------
    16      2.363620  1 C  py                61     -2.363620  2 C  py         
    12     -0.350730  1 C  py                57      0.350730  2 C  py         
    34     -0.234530  1 C  dyz               79     -0.234530  2 C  dyz        

 Vector   19  Occ=0.000000D+00  E= 1.360112D-01  Symmetry=a2u
              MO Center=  1.0D-16, -3.6D-18,  1.6D-13, r^2= 1.5D+01
   Bfn.  Coefficient  Atom+Function         Bfn.  Coefficient  Atom+Function  
  ----- ------------  ---------------      ----- ------------  ---------------
    94      6.107677  3 H  s                113     -6.107677  4 H  s          
    17      4.189762  1 C  pz                62      4.189762  2 C  pz         
    93      2.549657  3 H  s                112     -2.549657  4 H  s          
    14      2.424811  1 C  s                 59     -2.424811  2 C  s          
    13      1.038263  1 C  pz                58      1.038263  2 C  pz         

 Vector   20  Occ=0.000000D+00  E= 2.049653D-01  Symmetry=a1g
              MO Center= -7.2D-16,  4.2D-16,  4.0D-14, r^2= 1.2D+01
   Bfn.  Coefficient  Atom+Function         Bfn.  Coefficient  Atom+Function  
  ----- ------------  ---------------      ----- ------------  ---------------
    17      7.073203  1 C  pz                62     -7.073203  2 C  pz         
    14      6.637484  1 C  s                 59      6.637484  2 C  s          
    94     -5.183222  3 H  s                113     -5.183222  4 H  s          
    93     -4.418921  3 H  s                112     -4.418921  4 H  s          
    10      1.614446  1 C  s                 55      1.614446  2 C  s          

 Vector   21  Occ=0.000000D+00  E= 2.104696D-01  Symmetry=b1g
              MO Center= -2.1D-15,  7.5D-17, -1.7D-17, r^2= 3.3D+00
   Bfn.  Coefficient  Atom+Function         Bfn.  Coefficient  Atom+Function  
  ----- ------------  ---------------      ----- ------------  ---------------
    30      0.466568  1 C  dxx               33     -0.466568  1 C  dyy        
    75      0.466568  2 C  dxx               78     -0.466568  2 C  dyy        

 Vector   22  Occ=0.000000D+00  E= 2.104718D-01  Symmetry=b2g
              MO Center=  3.8D-15,  4.1D-16,  3.7D-15, r^2= 3.3D+00
   Bfn.  Coefficient  Atom+Function         Bfn.  Coefficient  Atom+Function  
  ----- ------------  ---------------      ----- ------------  ---------------
    31      0.933135  1 C  dxy               76      0.933135  2 C  dxy        

 Vector   23  Occ=0.000000D+00  E= 2.876503D-01  Symmetry=eu
              MO Center= -2.5D-15, -8.1D-15, -1.6D-15, r^2= 5.1D+00
   Bfn.  Coefficient  Atom+Function         Bfn.  Coefficient  Atom+Function  
  ----- ------------  ---------------      ----- ------------  ---------------
   102      0.638014  3 H  py               121      0.638014  4 H  py         
    34      0.457901  1 C  dyz               79     -0.457901  2 C  dyz        
    16     -0.229776  1 C  py                61     -0.229776  2 C  py         

 Vector   24  Occ=0.000000D+00  E= 2.876503D-01  Symmetry=eu
              MO Center= -1.3D-14,  3.0D-15,  2.2D-15, r^2= 5.1D+00
   Bfn.  Coefficient  Atom+Function         Bfn.  Coefficient  Atom+Function  
  ----- ------------  ---------------      ----- ------------  ---------------
   101      0.638014  3 H  px               120      0.638014  4 H  px         
    32      0.457901  1 C  dxz               77     -0.457901  2 C  dxz        
    15     -0.229776  1 C  px                60     -0.229776  2 C  px         

 Vector   25  Occ=0.000000D+00  E= 2.894863D-01  Symmetry=a2u
              MO Center=  8.5D-27, -1.3D-26,  1.2D-13, r^2= 1.1D+01
   Bfn.  Coefficient  Atom+Function         Bfn.  Coefficient  Atom+Function  
  ----- ------------  ---------------      ----- ------------  ---------------
    93      8.419875  3 H  s                112     -8.419875  4 H  s          
    13      4.518020  1 C  pz                58      4.518020  2 C  pz         
    17      2.596841  1 C  pz                62      2.596841  2 C  pz         
    14      2.505618  1 C  s                 59     -2.505618  2 C  s          
    10      2.099589  1 C  s                 55     -2.099589  2 C  s          

 Vector   26  Occ=0.000000D+00  E= 2.962388D-01  Symmetry=a1g
              MO Center=  1.1D-14,  7.0D-15, -8.0D-13, r^2= 1.2D+01
   Bfn.  Coefficient  Atom+Function         Bfn.  Coefficient  Atom+Function  
  ----- ------------  ---------------      ----- ------------  ---------------
    14     12.667949  1 C  s                 59     12.667949  2 C  s          
    93     -9.460425  3 H  s                112     -9.460425  4 H  s          
    17      8.717053  1 C  pz                62     -8.717053  2 C  pz         
    94     -8.287679  3 H  s                113     -8.287679  4 H  s          
    10      3.908137  1 C  s                 55      3.908137  2 C  s          

 Vector   27  Occ=0.000000D+00  E= 4.044967D-01  Symmetry=b2u
              MO Center=  3.8D-30,  7.7D-32, -6.6D-17, r^2= 4.2D+00
   Bfn.  Coefficient  Atom+Function         Bfn.  Coefficient  Atom+Function  
  ----- ------------  ---------------      ----- ------------  ---------------
    30      1.046523  1 C  dxx               33     -1.046523  1 C  dyy        
    75     -1.046523  2 C  dxx               78      1.046523  2 C  dyy        

 Vector   28  Occ=0.000000D+00  E= 4.044972D-01  Symmetry=b1u
              MO Center=  5.2D-16,  1.3D-15, -3.8D-15, r^2= 4.2D+00
   Bfn.  Coefficient  Atom+Function         Bfn.  Coefficient  Atom+Function  
  ----- ------------  ---------------      ----- ------------  ---------------
    31      2.093046  1 C  dxy               76     -2.093046  2 C  dxy        

 Vector   29  Occ=0.000000D+00  E= 4.321328D-01  Symmetry=eu
              MO Center=  2.0D-15,  6.0D-16,  7.8D-15, r^2= 4.8D+00
   Bfn.  Coefficient  Atom+Function         Bfn.  Coefficient  Atom+Function  
  ----- ------------  ---------------      ----- ------------  ---------------
    11      1.364834  1 C  px                56      1.364834  2 C  px         
    32      0.816343  1 C  dxz               77     -0.816343  2 C  dxz        
   101     -0.709082  3 H  px               120     -0.709082  4 H  px         
    12     -0.634934  1 C  py                57     -0.634934  2 C  py         
     7     -0.538326  1 C  px                52     -0.538326  2 C  px         

 Vector   30  Occ=0.000000D+00  E= 4.321328D-01  Symmetry=eu
              MO Center= -6.6D-16, -8.5D-16,  1.3D-15, r^2= 4.8D+00
   Bfn.  Coefficient  Atom+Function         Bfn.  Coefficient  Atom+Function  
  ----- ------------  ---------------      ----- ------------  ---------------
    12      1.364834  1 C  py                57      1.364834  2 C  py         
    34      0.816343  1 C  dyz               79     -0.816343  2 C  dyz        
   102     -0.709082  3 H  py               121     -0.709082  4 H  py         
    11      0.634934  1 C  px                56      0.634934  2 C  px         
     8     -0.538326  1 C  py                53     -0.538326  2 C  py         

 Vector   31  Occ=0.000000D+00  E= 4.395915D-01  Symmetry=a2u
              MO Center= -9.7D-15,  2.7D-15, -6.1D-13, r^2= 9.8D+00
   Bfn.  Coefficient  Atom+Function         Bfn.  Coefficient  Atom+Function  
  ----- ------------  ---------------      ----- ------------  ---------------
    94      4.152510  3 H  s                113     -4.152510  4 H  s          
    17      2.832276  1 C  pz                62      2.832276  2 C  pz         
    30     -1.779859  1 C  dxx               33     -1.779859  1 C  dyy        
    75      1.779859  2 C  dxx               78      1.779859  2 C  dyy        
    93     -1.750675  3 H  s                112      1.750675  4 H  s          

 Vector   32  Occ=0.000000D+00  E= 4.427986D-01  Symmetry=eg
              MO Center=  1.1D-14, -1.4D-15, -1.4D-14, r^2= 6.0D+00
   Bfn.  Coefficient  Atom+Function         Bfn.  Coefficient  Atom+Function  
  ----- ------------  ---------------      ----- ------------  ---------------
    15      1.233040  1 C  px                60     -1.233040  2 C  px         
   101      1.186184  3 H  px               120     -1.186184  4 H  px         
    11      0.446429  1 C  px                56     -0.446429  2 C  px         
     7      0.363177  1 C  px                52     -0.363177  2 C  px         
    32      0.223483  1 C  dxz               77      0.223483  2 C  dxz        

 Vector   33  Occ=0.000000D+00  E= 4.427986D-01  Symmetry=eg
              MO Center= -1.1D-15, -2.0D-15, -6.9D-15, r^2= 6.0D+00
   Bfn.  Coefficient  Atom+Function         Bfn.  Coefficient  Atom+Function  
  ----- ------------  ---------------      ----- ------------  ---------------
    16      1.233040  1 C  py                61     -1.233040  2 C  py         
   102      1.186184  3 H  py               121     -1.186184  4 H  py         
    12      0.446429  1 C  py                57     -0.446429  2 C  py         
     8      0.363177  1 C  py                53     -0.363177  2 C  py         
    34      0.223483  1 C  dyz               79      0.223483  2 C  dyz        

 Vector   34  Occ=0.000000D+00  E= 4.892064D-01  Symmetry=a1g
              MO Center=  1.4D-15, -6.3D-17,  1.7D-12, r^2= 1.0D+01
   Bfn.  Coefficient  Atom+Function         Bfn.  Coefficient  Atom+Function  
  ----- ------------  ---------------      ----- ------------  ---------------
    93     11.378498  3 H  s                112     11.378498  4 H  s          
    17     -6.804311  1 C  pz                62      6.804311  2 C  pz         
    14     -6.413250  1 C  s                 59     -6.413250  2 C  s          
    35     -5.608115  1 C  dzz               80     -5.608115  2 C  dzz        
    94      3.931104  3 H  s                113      3.931104  4 H  s          

 Vector   35  Occ=0.000000D+00  E= 5.638457D-01  Symmetry=a1g
              MO Center= -3.1D-16, -1.8D-17, -6.9D-14, r^2= 6.5D+00
   Bfn.  Coefficient  Atom+Function         Bfn.  Coefficient  Atom+Function  
  ----- ------------  ---------------      ----- ------------  ---------------
    14      5.848022  1 C  s                 59      5.848022  2 C  s          
    10      4.376492  1 C  s                 17      4.376105  1 C  pz         
    55      4.376492  2 C  s                 62     -4.376105  2 C  pz         
    94     -4.089323  3 H  s                113     -4.089323  4 H  s          
    93     -3.905680  3 H  s                112     -3.905680  4 H  s          


 center of mass
 --------------
 x =   0.00000000 y =   0.00000000 z =   0.00000000

 moments of inertia (a.u.)
 ------------------
          51.861177890914           0.000000000000           0.000000000000
           0.000000000000          51.861177890914           0.000000000000
           0.000000000000           0.000000000000           0.000000000000

     Multipole analysis of the density
     ---------------------------------

     L   x y z        total         alpha         beta         nuclear
     -   - - -        -----         -----         ----         -------
     0   0 0 0     -0.000000     -7.000000     -7.000000     14.000000

     1   1 0 0     -0.000000     -0.000000     -0.000000      0.000000
     1   0 1 0      0.000000      0.000000      0.000000      0.000000
     1   0 0 1      0.000000      0.000000      0.000000      0.000000

     2   2 0 0    -10.703821     -5.351911     -5.351911      0.000000
     2   1 1 0     -0.000000     -0.000000     -0.000000      0.000000
     2   1 0 1      0.000000      0.000000      0.000000      0.000000
     2   0 2 0    -10.703821     -5.351911     -5.351911      0.000000
     2   0 1 1      0.000000      0.000000      0.000000      0.000000
     2   0 0 2     -5.280963    -20.570118    -20.570118     35.859273


 Parallel integral file used     125 records with       0 large values


 Task  times  cpu:        2.4s     wall:        3.0s


                                NWChem Input Module
                                -------------------


 Summary of allocated global arrays
-----------------------------------
  No active global arrays



                         GA Statistics for process    0
                         ------------------------------

       create   destroy   get      put      acc     scatter   gather  read&inc
calls:  291      291     4866     2167      897        0        0      145     
number of processes/call 2.80e+00 1.53e+00 4.76e+00 0.00e+00 0.00e+00
bytes total:             7.04e+07 7.10e+06 3.51e+07 0.00e+00 0.00e+00 1.16e+03
bytes remote:            6.16e+07 4.06e+06 3.19e+07 0.00e+00 0.00e+00 0.00e+00
Max memory consumed for GA by this process: 583200 bytes

MA_summarize_allocated_blocks: starting scan ...
MA_summarize_allocated_blocks: scan completed: 0 heap blocks, 0 stack blocks
MA usage statistics:

	allocation statistics:
					      heap	     stack
					      ----	     -----
	current number of blocks	         0	         0
	maximum number of blocks	        24	        55
	current total bytes		         0	         0
	maximum total bytes		   3896504	  28893288
	maximum total K-bytes		      3897	     28894
	maximum total M-bytes		         4	        29


                                     CITATION
                                     --------
                Please cite the following reference when publishing
                           results obtained with NWChem:

                 M. Valiev, E.J. Bylaska, N. Govind, K. Kowalski,
              T.P. Straatsma, H.J.J. van Dam, D. Wang, J. Nieplocha,
                        E. Apra, T.L. Windus, W.A. de Jong
                 "NWChem: a comprehensive and scalable open-source
                  solution for large scale molecular simulations"
                      Comput. Phys. Commun. 181, 1477 (2010)
                           doi:10.1016/j.cpc.2010.04.018

                                      AUTHORS
                                      -------
          E. Apra, E. J. Bylaska, W. A. de Jong, N. Govind, K. Kowalski,
       T. P. Straatsma, M. Valiev, H. J. J. van Dam, D. Wang, T. L. Windus,
        J. Hammond, J. Autschbach, K. Bhaskaran-Nair, J. Brabec, K. Lopata,
       S. A. Fischer, S. Krishnamoorthy, W. Ma, M. Klemm, O. Villa, Y. Chen,
    V. Anisimov, F. Aquino, S. Hirata, M. T. Hackler, T. Risthaus, M. Malagoli,
       A. Marenich, A. Otero-de-la-Roza, J. Mullin, P. Nichols, R. Peverati,
     J. Pittner, Y. Zhao, P.-D. Fan, A. Fonari, M. Williamson, R. J. Harrison,
       J. R. Rehr, M. Dupuis, D. Silverstein, D. M. A. Smith, J. Nieplocha,
        V. Tipparaju, M. Krishnan, B. E. Van Kuiken, A. Vazquez-Mayagoitia,
        L. Jensen, M. Swart, Q. Wu, T. Van Voorhis, A. A. Auer, M. Nooijen,
      L. D. Crosby, E. Brown, G. Cisneros, G. I. Fann, H. Fruchtl, J. Garza,
        K. Hirao, R. A. Kendall, J. A. Nichols, K. Tsemekhman, K. Wolinski,
     J. Anchell, D. E. Bernholdt, P. Borowski, T. Clark, D. Clerc, H. Dachsel,
   M. J. O. Deegan, K. Dyall, D. Elwood, E. Glendening, M. Gutowski, A. C. Hess,
         J. Jaffe, B. G. Johnson, J. Ju, R. Kobayashi, R. Kutteh, Z. Lin,
   R. Littlefield, X. Long, B. Meng, T. Nakajima, S. Niu, L. Pollack, M. Rosing,
   K. Glaesemann, G. Sandrone, M. Stave, H. Taylor, G. Thomas, J. H. van Lenthe,
                               A. T. Wong, Z. Zhang.

 Total times  cpu:        2.4s     wall:        3.2s
