[1537784472.194799] [r8n4:11147:0]         sys.c:744  MXM  WARN  Conflicting CPU frequencies detected, using: 2499.99
[1537784472.196497] [r8n4:11148:0]         sys.c:744  MXM  WARN  Conflicting CPU frequencies detected, using: 2499.99
[1537784472.205274] [r8n4:11149:0]         sys.c:744  MXM  WARN  Conflicting CPU frequencies detected, using: 2499.99
[1537784472.205396] [r8n4:11150:0]         sys.c:744  MXM  WARN  Conflicting CPU frequencies detected, using: 2499.99
[1537784472.205473] [r8n4:11156:0]         sys.c:744  MXM  WARN  Conflicting CPU frequencies detected, using: 2499.99
[1537784472.205626] [r8n4:11155:0]         sys.c:744  MXM  WARN  Conflicting CPU frequencies detected, using: 2499.99
[1537784472.205634] [r8n4:11154:0]         sys.c:744  MXM  WARN  Conflicting CPU frequencies detected, using: 2499.99
[1537784472.220908] [r8n4:11157:0]         sys.c:744  MXM  WARN  Conflicting CPU frequencies detected, using: 2499.99
[1537784472.221147] [r8n4:11158:0]         sys.c:744  MXM  WARN  Conflicting CPU frequencies detected, using: 2499.99
[1537784472.256991] [r8n4:11159:0]         sys.c:744  MXM  WARN  Conflicting CPU frequencies detected, using: 2499.99
[1537784472.263803] [r8n4:11161:0]         sys.c:744  MXM  WARN  Conflicting CPU frequencies detected, using: 2499.99
[1537784472.263804] [r8n4:11169:0]         sys.c:744  MXM  WARN  Conflicting CPU frequencies detected, using: 2499.99
[1537784472.263978] [r8n4:11165:0]         sys.c:744  MXM  WARN  Conflicting CPU frequencies detected, using: 2499.99
[1537784472.264346] [r8n4:11163:0]         sys.c:744  MXM  WARN  Conflicting CPU frequencies detected, using: 2499.99
[1537784472.264789] [r8n4:11166:0]         sys.c:744  MXM  WARN  Conflicting CPU frequencies detected, using: 2499.99
[1537784472.265115] [r8n4:11171:0]         sys.c:744  MXM  WARN  Conflicting CPU frequencies detected, using: 2499.99
 argument  1 = /storage/home/bikashp/nwchem_run/rabeet/pa8/nwpa8/C2H3+.xyz.nw
                                         
                                         


              Northwest Computational Chemistry Package (NWChem) 6.6
              ------------------------------------------------------


                    Environmental Molecular Sciences Laboratory
                       Pacific Northwest National Laboratory
                                Richland, WA 99352

                              Copyright (c) 1994-2015
                       Pacific Northwest National Laboratory
                            Battelle Memorial Institute

             NWChem is an open-source computational chemistry package
                        distributed under the terms of the
                      Educational Community License (ECL) 2.0
             A copy of the license is included with this distribution
                              in the LICENSE.TXT file

                                  ACKNOWLEDGMENT
                                  --------------

            This software and its documentation were developed at the
            EMSL at Pacific Northwest National Laboratory, a multiprogram
            national laboratory, operated for the U.S. Department of Energy
            by Battelle under Contract Number DE-AC05-76RL01830. Support
            for this work was provided by the Department of Energy Office
            of Biological and Environmental Research, Office of Basic
            Energy Sciences, and the Office of Advanced Scientific Computing.


           Job information
           ---------------

    hostname        = r8n4.niserhpc.org
    program         = /home/bikashp/Code/nwchem-6.6_tpssloc/bin/LINUX64/nwchem
    date            = Mon Sep 24 15:51:15 2018

    compiled        = Tue_Sep_18_16:24:59_2018
    source          = /home/bikashp/Code/nwchem-6.6_tpssloc
    nwchem branch   = 6.6
    nwchem revision = 27746
    ga revision     = 10594
    input           = /storage/home/bikashp/nwchem_run/rabeet/pa8/nwpa8/C2H3+.xyz.nw
    prefix          = C2H3+.xyz.
    data base       = ./C2H3+.xyz.db
    status          = startup
    nproc           =       16
    time left       =     -1s



           Memory information
           ------------------

    heap     =   13107196 doubles =    100.0 Mbytes
    stack    =   13107201 doubles =    100.0 Mbytes
    global   =   26214400 doubles =    200.0 Mbytes (distinct from heap & stack)
    total    =   52428797 doubles =    400.0 Mbytes
    verify   = yes
    hardfail = no 


           Directory information
           ---------------------

  0 permanent = .
  0 scratch   = .




                                NWChem Input Module
                                -------------------



 Scaling coordinates for geometry "geometry" by  1.889725989
 (inverse scale =  0.529177249)

 C2V symmetry detected

          ------
          auto-z
          ------


                             Geometry "geometry" -> ""
                             -------------------------

 Output coordinates in angstroms (scale by  1.889725989 to convert to a.u.)

  No.       Tag          Charge          X              Y              Z
 ---- ---------------- ---------- -------------- -------------- --------------
    1 C                    6.0000    -0.61597000     0.00000000    -0.07514333
    2 H                    1.0000     0.00000000     0.00000000     1.04194667
    3 C                    6.0000     0.61597000     0.00000000    -0.07514333
    4 H                    1.0000    -1.69720000     0.00000000    -0.07011333
    5 H                    1.0000     1.69720000     0.00000000    -0.07011333

      Atomic Mass 
      ----------- 

      C                 12.000000
      H                  1.007825


 Effective nuclear repulsion energy (a.u.)      29.7373229324

            Nuclear Dipole moment (a.u.) 
            ----------------------------
        X                 Y               Z
 ---------------- ---------------- ----------------
     0.0000000000     0.0000000000    -0.0000000000

      Symmetry information
      --------------------

 Group name             C2v       
 Group number             16
 Group order               4
 No. of unique centers     3

      Symmetry unique atoms

     1    2    4



                                Z-matrix (autoz)
                                -------- 

 Units are Angstrom for bonds and degrees for angles

      Type          Name      I     J     K     L     M      Value
      ----------- --------  ----- ----- ----- ----- ----- ----------
    1 Stretch                  1     2                       1.27566
    2 Stretch                  1     3                       1.23194
    3 Stretch                  1     4                       1.08124
    4 Stretch                  2     3                       1.27566
    5 Stretch                  3     5                       1.08124
    6 Bend                     1     2     3                57.74520
    7 Bend                     1     3     2                61.12740
    8 Bend                     2     1     3                61.12740
    9 Bend                     2     1     4               118.60606
   10 Bend                     2     3     5               118.60606
   11 Torsion                  1     2     3     5         180.00000
   12 Torsion                  3     2     1     4         180.00000


            XYZ format geometry
            -------------------
     5
 geometry
 C                    -0.61597000     0.00000000    -0.07514333
 H                     0.00000000     0.00000000     1.04194667
 C                     0.61597000     0.00000000    -0.07514333
 H                    -1.69720000     0.00000000    -0.07011333
 H                     1.69720000     0.00000000    -0.07011333

 ==============================================================================
                                internuclear distances
 ------------------------------------------------------------------------------
       center one      |      center two      | atomic units |  angstroms
 ------------------------------------------------------------------------------
    3 C                |   1 C                |     2.32803  |     1.23194
    4 H                |   1 C                |     2.04325  |     1.08124
    5 H                |   3 C                |     2.04325  |     1.08124
 ------------------------------------------------------------------------------
                         number of included internuclear distances:          3
 ==============================================================================



 ==============================================================================
                                 internuclear angles
 ------------------------------------------------------------------------------
        center 1       |       center 2       |       center 3       |  degrees
 ------------------------------------------------------------------------------
    3 C                |   1 C                |   4 H                |   179.73
    1 C                |   3 C                |   5 H                |   179.73
 ------------------------------------------------------------------------------
                            number of included internuclear angles:          2
 ==============================================================================





 Summary of "ao basis" -> "" (cartesian)
 ------------------------------------------------------------------------------
       Tag                 Description            Shells   Functions and Types
 ---------------- ------------------------------  ------  ---------------------
 *                     6-311++G(3df,3pd)              on all atoms 



                                 NWChem DFT Module
                                 -----------------


                      Basis "ao basis" -> "ao basis" (cartesian)
                      -----
  C (Carbon)
  ----------
            Exponent  Coefficients 
       -------------- ---------------------------------------------------------
  1 S  4.56324000E+03  0.001967
  1 S  6.82024000E+02  0.015231
  1 S  1.54973000E+02  0.076127
  1 S  4.44553000E+01  0.260801
  1 S  1.30290000E+01  0.616462
  1 S  1.82773000E+00  0.221006

  2 S  2.09642000E+01  0.114660
  2 S  4.80331000E+00  0.919999
  2 S  1.45933000E+00 -0.003031

  3 P  2.09642000E+01  0.040249
  3 P  4.80331000E+00  0.237594
  3 P  1.45933000E+00  0.815854

  4 S  4.83456000E-01  1.000000

  5 P  4.83456000E-01  1.000000

  6 S  1.45585000E-01  1.000000

  7 P  1.45585000E-01  1.000000

  8 S  4.38000000E-02  1.000000

  9 P  4.38000000E-02  1.000000

 10 D  2.50400000E+00  1.000000

 11 D  6.26000000E-01  1.000000

 12 D  1.56500000E-01  1.000000

 13 F  8.00000000E-01  1.000000

  H (Hydrogen)
  ------------
            Exponent  Coefficients 
       -------------- ---------------------------------------------------------
  1 S  3.38650000E+01  0.025494
  1 S  5.09479000E+00  0.190373
  1 S  1.15879000E+00  0.852161

  2 S  3.25840000E-01  1.000000

  3 S  1.02741000E-01  1.000000

  4 S  3.60000000E-02  1.000000

  5 P  3.00000000E+00  1.000000

  6 P  7.50000000E-01  1.000000

  7 P  1.87500000E-01  1.000000

  8 D  1.00000000E+00  1.000000



 Summary of "ao basis" -> "ao basis" (cartesian)
 ------------------------------------------------------------------------------
       Tag                 Description            Shells   Functions and Types
 ---------------- ------------------------------  ------  ---------------------
 C                     6-311++G(3df,3pd)            13       45   5s4p3d1f
 H                     6-311++G(3df,3pd)             8       19   4s3p1d




 Summary of "ao basis" -> "ao basis" (cartesian)
 ------------------------------------------------------------------------------
       Tag                 Description            Shells   Functions and Types
 ---------------- ------------------------------  ------  ---------------------
 C                     6-311++G(3df,3pd)            13       45   5s4p3d1f
 H                     6-311++G(3df,3pd)             8       19   4s3p1d


      Symmetry analysis of basis
      --------------------------

        a1         55
        a2         20
        b1         49
        b2         23

  Caching 1-el integrals 

            General Information
            -------------------
          SCF calculation type: DFT
          Wavefunction type:  closed shell.
          No. of atoms     :     5
          No. of electrons :    14
           Alpha electrons :     7
            Beta electrons :     7
          Charge           :     1
          Spin multiplicity:     1
          Use of symmetry is: on ; symmetry adaption is: on 
          Maximum number of iterations: ***
          AO basis - number of functions:   147
                     number of shells:    50
          Convergence on energy requested: 1.00D-06
          Convergence on density requested: 1.00D-05
          Convergence on gradient requested: 5.00D-04

              XC Information
              --------------
                  TPSS metaGGA Exchange Functional  1.000          
             TPSS03 metaGGA Correlation Functional  1.000          

             Grid Information
             ----------------
          Grid used for XC integration:  medium    
          Radial quadrature: Mura-Knowles        
          Angular quadrature: Lebedev. 
          Tag              B.-S. Rad. Rad. Pts. Rad. Cut. Ang. Pts.
          ---              ---------- --------- --------- ---------
          C                   0.70       49          12.0       434
          H                   0.35       45          13.0       434
          Grid pruning is: on 
          Number of quadrature shells:   139
          Spatial weights used:  Erf1

          Convergence Information
          -----------------------
          Convergence aids based upon iterative change in 
          total energy or number of iterations. 
          Levelshifting, if invoked, occurs when the 
          HOMO/LUMO gap drops below (HL_TOL): 1.00D-02
          DIIS, if invoked, will attempt to extrapolate 
          using up to (NFOCK): 10 stored Fock matrices.

                    Damping( 0%)  Levelshifting(0.5)       DIIS
                  --------------- ------------------- ---------------
          dE  on:    start            ASAP                start   
          dE off:    2 iters        *** iters           *** iters 


      Screening Tolerance Information
      -------------------------------
          Density screening/tol_rho: 1.00D-10
          AO Gaussian exp screening on grid/accAOfunc:  14
          CD Gaussian exp screening on grid/accCDfunc:  20
          XC Gaussian exp screening on grid/accXCfunc:  20
          Schwarz screening/accCoul: 1.00D-08


 WARNING : Found     2 linear dependencies 
 S eigenvalue threshold:     1.00000E-05
 Smallest S eigenvalue :     3.51791E-07
 Largest  S eigenvalue :     6.87712E-06


 !! The overlap matrix has   2 vectors deemed linearly dependent with
    eigenvalues:
 3.52D-07 6.88D-06


      Superposition of Atomic Density Guess
      -------------------------------------

 Sum of atomic energies:         -76.83769024

 Renormalizing density from      15.00 to     14

      Non-variational initial energy
      ------------------------------

 Total energy =     -74.054933
 1-e energy   =    -149.578791
 2-e energy   =      45.786536
 HOMO         =      -0.820772
 LUMO         =      -0.412035


      Symmetry analysis of molecular orbitals - initial
      -------------------------------------------------

  Numbering of irreducible representations: 

     1 a1          2 a2          3 b1          4 b2      

  Orbital symmetries:

     1 a1          2 b1          3 a1          4 b1          5 a1      
     6 a1          7 b2          8 b1          9 a2         10 a1      
    11 b1         12 a1         13 a1         14 b2         15 b1      
    16 a1         17 a1      

   Time after variat. SCF:      0.6
   Time prior to 1st pass:      0.6

 Integral file          = ./C2H3+.xyz.aoints.00
 Record size in doubles =    65536    No. of integs per rec  =    43688
 Max. records in memory =       39    Max. records in file   = 11668034
 No. of bits per label  =        8    No. of bits per value  =       64


 #quartets = 4.381D+05 #integrals = 1.503D+07 #direct =  0.0% #cached =100.0%


File balance: exchanges=     8  moved=    11  time=   0.0


 Grid_pts file          = ./C2H3+.xyz.gridpts.00
 Record size in doubles =  12289        No. of grid_pts per rec  =   3070
 Max. records in memory =      3        Max. recs in file   =  62224455

 Grid integrated density:      14.000534026519
 Requested integration accuracy:   0.10E-05

           Memory utilization after 1st SCF pass: 
           Heap Space remaining (MW):       10.51            10510300
          Stack Space remaining (MW):       13.11            13106316

   convergence    iter        energy       DeltaE   RMS-Dens  Diis-err    time
 ---------------- ----- ----------------- --------- --------- ---------  ------
 d= 0,ls=0.0,diis     1    -77.5446560817 -1.07D+02  8.39D-03  1.17D+00     1.2
 d= 0,ls=0.0,diis     2    -77.4917412339  5.29D-02  3.55D-03  8.36D-01     1.4
 d= 0,ls=0.0,diis     3    -77.6082599710 -1.17D-01  5.93D-04  1.67D-02     1.7
 d= 0,ls=0.0,diis     4    -77.6056310250  2.63D-03  1.57D-04  1.03D-03     1.9
 d= 0,ls=0.0,diis     5    -77.6053096905  3.21D-04  7.46D-05  1.91D-04     2.2
  Resetting Diis
 d= 0,ls=0.0,diis     6    -77.6054904980 -1.81D-04  6.67D-06  1.99D-06     2.4
 d= 0,ls=0.0,diis     7    -77.6055002238 -9.73D-06  1.96D-06  7.50D-08     2.7
 d= 0,ls=0.0,diis     8    -77.6055084585 -8.23D-06  6.63D-07  1.92D-08     3.0
 d= 0,ls=0.0,diis     9    -77.6055040744  4.38D-06  1.37D-07  2.71D-09     3.2
 d= 0,ls=0.0,diis    10    -77.6055046399 -5.65D-07  3.33D-08  1.02D-09     3.5


         Total DFT energy =      -77.605504639928
      One electron energy =     -156.930984979681
           Coulomb energy =       61.085772108377
          Exchange energy =      -11.066029926799
       Correlation energy =       -0.431584774184
 Nuclear repulsion energy =       29.737322932359

 Numeric. integr. density =       14.000000388095

     Total iterative time =      2.9s



                  Occupations of the irreducible representations
                  ----------------------------------------------

                     irrep           alpha         beta
                     --------     --------     --------
                     a1                4.0          4.0
                     a2                0.0          0.0
                     b1                2.0          2.0
                     b2                1.0          1.0


                       DFT Final Molecular Orbital Analysis
                       ------------------------------------

 Vector    1  Occ=2.000000D+00  E=-1.042490D+01  Symmetry=a1
              MO Center= -4.2D-13,  1.8D-21, -7.5D-02, r^2= 4.1D-01
   Bfn.  Coefficient  Atom+Function         Bfn.  Coefficient  Atom+Function  
  ----- ------------  ---------------      ----- ------------  ---------------
     1      0.397335  1 C  s                 65      0.397335  3 C  s          
     2      0.329124  1 C  s                 66      0.329124  3 C  s          

 Vector    2  Occ=2.000000D+00  E=-1.042323D+01  Symmetry=b1
              MO Center=  4.2D-13,  4.7D-18, -7.5D-02, r^2= 4.1D-01
   Bfn.  Coefficient  Atom+Function         Bfn.  Coefficient  Atom+Function  
  ----- ------------  ---------------      ----- ------------  ---------------
     1      0.397495  1 C  s                 65     -0.397495  3 C  s          
     2      0.329296  1 C  s                 66     -0.329296  3 C  s          

 Vector    3  Occ=2.000000D+00  E=-1.146539D+00  Symmetry=a1
              MO Center=  2.8D-15, -4.2D-17,  1.4D-01, r^2= 7.5D-01
   Bfn.  Coefficient  Atom+Function         Bfn.  Coefficient  Atom+Function  
  ----- ------------  ---------------      ----- ------------  ---------------
     6      0.283474  1 C  s                 70      0.283474  3 C  s          
    10      0.248597  1 C  s                 74      0.248597  3 C  s          

 Vector    4  Occ=2.000000D+00  E=-8.840623D-01  Symmetry=b1
              MO Center=  4.9D-14,  1.9D-17, -4.0D-02, r^2= 2.1D+00
   Bfn.  Coefficient  Atom+Function         Bfn.  Coefficient  Atom+Function  
  ----- ------------  ---------------      ----- ------------  ---------------
     6      0.201283  1 C  s                 70     -0.201283  3 C  s          
    11     -0.191966  1 C  px                75     -0.191966  3 C  px         
     7     -0.154686  1 C  px                71     -0.154686  3 C  px         

 Vector    5  Occ=2.000000D+00  E=-8.170892D-01  Symmetry=a1
              MO Center= -5.5D-14,  1.6D-17, -8.7D-02, r^2= 2.1D+00
   Bfn.  Coefficient  Atom+Function         Bfn.  Coefficient  Atom+Function  
  ----- ------------  ---------------      ----- ------------  ---------------
   111     -0.222469  4 H  s                130     -0.222469  5 H  s          
     7      0.213925  1 C  px                71     -0.213925  3 C  px         
    10     -0.199249  1 C  s                 74     -0.199249  3 C  s          
     3      0.176851  1 C  px                67     -0.176851  3 C  px         

 Vector    6  Occ=2.000000D+00  E=-7.590024D-01  Symmetry=a1
              MO Center=  3.7D-15, -6.5D-17,  6.1D-02, r^2= 1.2D+00
   Bfn.  Coefficient  Atom+Function         Bfn.  Coefficient  Atom+Function  
  ----- ------------  ---------------      ----- ------------  ---------------
    47      0.229455  2 H  s                  9      0.208793  1 C  pz         
    73      0.208793  3 C  pz                 5      0.160431  1 C  pz         
    69      0.160431  3 C  pz         

 Vector    7  Occ=2.000000D+00  E=-6.563853D-01  Symmetry=b2
              MO Center= -1.2D-15, -7.3D-16, -3.3D-02, r^2= 1.2D+00
   Bfn.  Coefficient  Atom+Function         Bfn.  Coefficient  Atom+Function  
  ----- ------------  ---------------      ----- ------------  ---------------
     8      0.286068  1 C  py                72      0.286068  3 C  py         
    12      0.198072  1 C  py                76      0.198072  3 C  py         
     4      0.195327  1 C  py                68      0.195327  3 C  py         

 Vector    8  Occ=0.000000D+00  E=-4.107145D-01  Symmetry=b1
              MO Center=  3.0D-16, -2.6D-16,  4.0D-02, r^2= 1.9D+00
   Bfn.  Coefficient  Atom+Function         Bfn.  Coefficient  Atom+Function  
  ----- ------------  ---------------      ----- ------------  ---------------
    13      0.541273  1 C  pz                77     -0.541273  3 C  pz         
     9      0.305497  1 C  pz                73     -0.305497  3 C  pz         
     5      0.207887  1 C  pz                69     -0.207887  3 C  pz         

 Vector    9  Occ=0.000000D+00  E=-3.770617D-01  Symmetry=a2
              MO Center=  1.1D-15,  3.4D-16, -4.9D-02, r^2= 1.9D+00
   Bfn.  Coefficient  Atom+Function         Bfn.  Coefficient  Atom+Function  
  ----- ------------  ---------------      ----- ------------  ---------------
    12      0.520354  1 C  py                76     -0.520354  3 C  py         
     8      0.310379  1 C  py                72     -0.310379  3 C  py         
     4      0.212917  1 C  py                68     -0.212917  3 C  py         

 Vector   10  Occ=0.000000D+00  E=-3.022284D-01  Symmetry=a1
              MO Center= -6.0D-15,  1.2D-15,  6.4D-01, r^2= 2.4D+00
   Bfn.  Coefficient  Atom+Function         Bfn.  Coefficient  Atom+Function  
  ----- ------------  ---------------      ----- ------------  ---------------
    48      0.690855  2 H  s                 47      0.464722  2 H  s          
    49      0.210172  2 H  s                 13     -0.202957  1 C  pz         
    77     -0.202957  3 C  pz                 6     -0.192679  1 C  s          
    70     -0.192679  3 C  s                112     -0.187795  4 H  s          
   131     -0.187795  5 H  s                  9     -0.181751  1 C  pz         

 Vector   11  Occ=0.000000D+00  E=-2.428742D-01  Symmetry=b1
              MO Center=  2.3D-14, -5.8D-16, -6.6D-02, r^2= 4.4D+00
   Bfn.  Coefficient  Atom+Function         Bfn.  Coefficient  Atom+Function  
  ----- ------------  ---------------      ----- ------------  ---------------
   112      0.644398  4 H  s                131     -0.644398  5 H  s          
   113      0.418255  4 H  s                132     -0.418255  5 H  s          
    11      0.408482  1 C  px                75      0.408482  3 C  px         
   111      0.330531  4 H  s                130     -0.330531  5 H  s          
     6     -0.271229  1 C  s                 70      0.271229  3 C  s          

 Vector   12  Occ=0.000000D+00  E=-1.807706D-01  Symmetry=a1
              MO Center= -2.0D-14, -2.0D-14,  2.5D-01, r^2= 7.5D+00
   Bfn.  Coefficient  Atom+Function         Bfn.  Coefficient  Atom+Function  
  ----- ------------  ---------------      ----- ------------  ---------------
    10      0.617709  1 C  s                 74      0.617709  3 C  s          
   112     -0.573828  4 H  s                131     -0.573828  5 H  s          
   113     -0.541801  4 H  s                132     -0.541801  5 H  s          
    14      0.536910  1 C  s                 78      0.536910  3 C  s          
    49     -0.346858  2 H  s                 48     -0.230063  2 H  s          

 Vector   13  Occ=0.000000D+00  E=-1.446335D-01  Symmetry=a1
              MO Center= -2.2D-15,  4.5D-16,  2.1D-02, r^2= 5.5D+00
   Bfn.  Coefficient  Atom+Function         Bfn.  Coefficient  Atom+Function  
  ----- ------------  ---------------      ----- ------------  ---------------
    48      1.616294  2 H  s                 15     -1.029220  1 C  px         
    79      1.029220  3 C  px                49      1.013686  2 H  s          
   113     -0.982907  4 H  s                132     -0.982907  5 H  s          
    47      0.481883  2 H  s                 13     -0.378375  1 C  pz         
    77     -0.378375  3 C  pz                10     -0.367013  1 C  s          

 Vector   14  Occ=0.000000D+00  E=-1.285317D-01  Symmetry=a1
              MO Center= -4.2D-15,  1.5D-15, -4.7D-01, r^2= 8.6D+00
   Bfn.  Coefficient  Atom+Function         Bfn.  Coefficient  Atom+Function  
  ----- ------------  ---------------      ----- ------------  ---------------
    48      0.764988  2 H  s                 49     -0.558829  2 H  s          
   113      0.481185  4 H  s                132      0.481185  5 H  s          
    17     -0.437774  1 C  pz                81     -0.437774  3 C  pz         
    10     -0.308564  1 C  s                 74     -0.308564  3 C  s          
    47      0.283301  2 H  s                 14     -0.221153  1 C  s          

 Vector   15  Occ=0.000000D+00  E=-1.233835D-01  Symmetry=b2
              MO Center=  1.1D-16,  1.7D-14,  1.8D-01, r^2= 7.9D+00
   Bfn.  Coefficient  Atom+Function         Bfn.  Coefficient  Atom+Function  
  ----- ------------  ---------------      ----- ------------  ---------------
    16      0.504160  1 C  py                80      0.504160  3 C  py         

 Vector   16  Occ=0.000000D+00  E=-1.080227D-01  Symmetry=b1
              MO Center=  7.7D-14,  1.6D-15,  2.3D-01, r^2= 1.1D+01
   Bfn.  Coefficient  Atom+Function         Bfn.  Coefficient  Atom+Function  
  ----- ------------  ---------------      ----- ------------  ---------------
   112      0.872221  4 H  s                131     -0.872221  5 H  s          
   113     -0.788451  4 H  s                132      0.788451  5 H  s          
    11      0.410695  1 C  px                75      0.410695  3 C  px         
   111      0.342613  4 H  s                130     -0.342613  5 H  s          
    15      0.262749  1 C  px                79      0.262749  3 C  px         

 Vector   17  Occ=0.000000D+00  E=-6.544180D-02  Symmetry=b2
              MO Center=  1.7D-14, -1.1D-15,  2.1D-02, r^2= 3.6D+00
   Bfn.  Coefficient  Atom+Function         Bfn.  Coefficient  Atom+Function  
  ----- ------------  ---------------      ----- ------------  ---------------
    34      0.623617  1 C  dyz               98      0.623617  3 C  dyz        
    57      0.380339  2 H  py         

 Vector   18  Occ=0.000000D+00  E=-5.797477D-02  Symmetry=b1
              MO Center=  5.7D-15,  6.3D-29, -3.2D-01, r^2= 1.1D+01
   Bfn.  Coefficient  Atom+Function         Bfn.  Coefficient  Atom+Function  
  ----- ------------  ---------------      ----- ------------  ---------------
    17      2.086019  1 C  pz                81     -2.086019  3 C  pz         
   113     -0.887697  4 H  s                132      0.887697  5 H  s          
    15     -0.472558  1 C  px                79     -0.472558  3 C  px         
    13     -0.378516  1 C  pz                77      0.378516  3 C  pz         
    14      0.296155  1 C  s                 78     -0.296155  3 C  s          

 Vector   19  Occ=0.000000D+00  E=-5.116592D-02  Symmetry=a2
              MO Center= -1.6D-14, -1.0D-15, -5.9D-02, r^2= 1.1D+01
   Bfn.  Coefficient  Atom+Function         Bfn.  Coefficient  Atom+Function  
  ----- ------------  ---------------      ----- ------------  ---------------
    16      2.149408  1 C  py                80     -2.149408  3 C  py         
    12     -0.296806  1 C  py                76      0.296806  3 C  py         

 Vector   20  Occ=0.000000D+00  E=-4.806009D-02  Symmetry=a1
              MO Center=  1.6D-13, -1.4D-15,  1.9D+00, r^2= 1.2D+01
   Bfn.  Coefficient  Atom+Function         Bfn.  Coefficient  Atom+Function  
  ----- ------------  ---------------      ----- ------------  ---------------
    49      6.540246  2 H  s                 14     -3.959205  1 C  s          
    78     -3.959205  3 C  s                 17     -1.357626  1 C  pz         
    81     -1.357626  3 C  pz                48      0.667343  2 H  s          
   112      0.642890  4 H  s                131      0.642890  5 H  s          
    10     -0.292770  1 C  s                 74     -0.292770  3 C  s          

 Vector   21  Occ=0.000000D+00  E=-2.880363D-02  Symmetry=a1
              MO Center= -1.6D-13, -6.4D-17, -2.3D-01, r^2= 2.1D+01
   Bfn.  Coefficient  Atom+Function         Bfn.  Coefficient  Atom+Function  
  ----- ------------  ---------------      ----- ------------  ---------------
   113     -6.612563  4 H  s                132     -6.612563  5 H  s          
    14      6.072411  1 C  s                 78      6.072411  3 C  s          
    15     -3.897689  1 C  px                79      3.897689  3 C  px         
    49      2.768017  2 H  s                112     -1.261970  4 H  s          
   131     -1.261970  5 H  s                 17     -0.561721  1 C  pz         

 Vector   22  Occ=0.000000D+00  E=-1.181626D-02  Symmetry=b1
              MO Center=  1.4D-14, -9.9D-16, -6.1D-02, r^2= 2.0D+01
   Bfn.  Coefficient  Atom+Function         Bfn.  Coefficient  Atom+Function  
  ----- ------------  ---------------      ----- ------------  ---------------
   113      5.912347  4 H  s                132     -5.912347  5 H  s          
    15      3.542977  1 C  px                79      3.542977  3 C  px         
    14     -2.016460  1 C  s                 78      2.016460  3 C  s          
   112      1.348430  4 H  s                131     -1.348430  5 H  s          
    11      0.428043  1 C  px                75      0.428043  3 C  px         

 Vector   23  Occ=0.000000D+00  E= 3.422190D-02  Symmetry=a1
              MO Center=  5.5D-14,  1.9D-15,  1.3D-01, r^2= 6.1D+00
   Bfn.  Coefficient  Atom+Function         Bfn.  Coefficient  Atom+Function  
  ----- ------------  ---------------      ----- ------------  ---------------
    48      2.496450  2 H  s                 14      2.227528  1 C  s          
    78      2.227528  3 C  s                 15     -2.134160  1 C  px         
    79      2.134160  3 C  px               113     -1.755804  4 H  s          
   132     -1.755804  5 H  s                112     -1.255497  4 H  s          
   131     -1.255497  5 H  s                 32     -0.663733  1 C  dxz        

 Vector   24  Occ=0.000000D+00  E= 5.664312D-02  Symmetry=a1
              MO Center=  1.2D-12,  2.0D-14, -3.8D-01, r^2= 1.4D+01
   Bfn.  Coefficient  Atom+Function         Bfn.  Coefficient  Atom+Function  
  ----- ------------  ---------------      ----- ------------  ---------------
    15      8.577234  1 C  px                79     -8.577234  3 C  px         
   113      7.870497  4 H  s                132      7.870497  5 H  s          
    14     -7.371061  1 C  s                 78     -7.371061  3 C  s          
    49     -3.712244  2 H  s                112      3.718336  4 H  s          
   131      3.718336  5 H  s                 10     -1.346794  1 C  s          

 Vector   25  Occ=0.000000D+00  E= 6.415864D-02  Symmetry=b2
              MO Center=  2.3D-15, -2.5D-14, -9.3D-02, r^2= 5.0D+00
   Bfn.  Coefficient  Atom+Function         Bfn.  Coefficient  Atom+Function  
  ----- ------------  ---------------      ----- ------------  ---------------
    31      0.568419  1 C  dxy               95     -0.568419  3 C  dxy        
   121     -0.524300  4 H  py               140     -0.524300  5 H  py         
    16      0.251388  1 C  py                80      0.251388  3 C  py         
    34     -0.171171  1 C  dyz               98     -0.171171  3 C  dyz        

 Vector   26  Occ=0.000000D+00  E= 9.126627D-02  Symmetry=a1
              MO Center= -1.6D-13,  1.3D-15,  1.3D-01, r^2= 9.1D+00
   Bfn.  Coefficient  Atom+Function         Bfn.  Coefficient  Atom+Function  
  ----- ------------  ---------------      ----- ------------  ---------------
    48      8.173298  2 H  s                 14     -2.177844  1 C  s          
    78     -2.177844  3 C  s                 10     -1.748517  1 C  s          
    74     -1.748517  3 C  s                 49      1.536598  2 H  s          
    17     -1.290555  1 C  pz                81     -1.290555  3 C  pz         
    58     -1.272002  2 H  pz                13     -1.116420  1 C  pz         

 Vector   27  Occ=0.000000D+00  E= 1.011163D-01  Symmetry=b1
              MO Center=  5.1D-12,  4.1D-16, -1.0D-01, r^2= 1.1D+01
   Bfn.  Coefficient  Atom+Function         Bfn.  Coefficient  Atom+Function  
  ----- ------------  ---------------      ----- ------------  ---------------
   112      7.331815  4 H  s                131     -7.331815  5 H  s          
    11      3.635168  1 C  px                75      3.635168  3 C  px         
    15      2.676972  1 C  px                79      2.676972  3 C  px         
    14     -2.354961  1 C  s                 78      2.354961  3 C  s          
   113      2.038840  4 H  s                132     -2.038840  5 H  s          

 Vector   28  Occ=0.000000D+00  E= 1.359172D-01  Symmetry=a1
              MO Center= -5.2D-12, -4.8D-15,  4.1D-01, r^2= 1.2D+01
   Bfn.  Coefficient  Atom+Function         Bfn.  Coefficient  Atom+Function  
  ----- ------------  ---------------      ----- ------------  ---------------
    14     11.292039  1 C  s                 78     11.292039  3 C  s          
   112     -7.240209  4 H  s                131     -7.240209  5 H  s          
    15     -5.952258  1 C  px                79      5.952258  3 C  px         
   113     -5.607628  4 H  s                132     -5.607628  5 H  s          
    49     -3.708572  2 H  s                 10      2.661489  1 C  s          

 Vector   29  Occ=0.000000D+00  E= 1.602128D-01  Symmetry=b1
              MO Center= -1.5D-13,  1.2D-28,  1.1D-01, r^2= 4.5D+00
   Bfn.  Coefficient  Atom+Function         Bfn.  Coefficient  Atom+Function  
  ----- ------------  ---------------      ----- ------------  ---------------
    35      1.007319  1 C  dzz               99     -1.007319  3 C  dzz        
   112     -0.950411  4 H  s                131      0.950411  5 H  s          
    33     -0.737686  1 C  dyy               97      0.737686  3 C  dyy        
   113      0.673797  4 H  s                132     -0.673797  5 H  s          
    11     -0.444970  1 C  px                75     -0.444970  3 C  px         

 Vector   30  Occ=0.000000D+00  E= 1.725541D-01  Symmetry=a2
              MO Center= -1.4D-15,  7.5D-16, -2.7D-02, r^2= 4.1D+00
   Bfn.  Coefficient  Atom+Function         Bfn.  Coefficient  Atom+Function  
  ----- ------------  ---------------      ----- ------------  ---------------
    34      2.021278  1 C  dyz               98     -2.021278  3 C  dyz        
    12      0.315911  1 C  py                76     -0.315911  3 C  py         
    31      0.167815  1 C  dxy               95      0.167815  3 C  dxy        

 Vector   31  Occ=0.000000D+00  E= 1.938833D-01  Symmetry=b2
              MO Center=  1.8D-15,  6.2D-15, -1.3D-01, r^2= 5.6D+00
   Bfn.  Coefficient  Atom+Function         Bfn.  Coefficient  Atom+Function  
  ----- ------------  ---------------      ----- ------------  ---------------
    12      0.927259  1 C  py                76      0.927259  3 C  py         
    57      0.849710  2 H  py                31     -0.680838  1 C  dxy        
    95      0.680838  3 C  dxy               34     -0.620679  1 C  dyz        
    98     -0.620679  3 C  dyz                8     -0.495994  1 C  py         
    72     -0.495994  3 C  py                16     -0.485422  1 C  py         

 Vector   32  Occ=0.000000D+00  E= 2.105175D-01  Symmetry=b1
              MO Center=  7.2D-14, -9.8D-16,  6.8D-02, r^2= 7.1D+00
   Bfn.  Coefficient  Atom+Function         Bfn.  Coefficient  Atom+Function  
  ----- ------------  ---------------      ----- ------------  ---------------
    17      1.565551  1 C  pz                81     -1.565551  3 C  pz         
   113     -1.049117  4 H  s                132      1.049117  5 H  s          
    13      0.854496  1 C  pz                77     -0.854496  3 C  pz         
    32      0.836636  1 C  dxz               96      0.836636  3 C  dxz        
   122     -0.756064  4 H  pz               141      0.756064  5 H  pz         

 Vector   33  Occ=0.000000D+00  E= 2.216064D-01  Symmetry=a1
              MO Center= -3.2D-13,  1.3D-16,  2.4D-01, r^2= 8.2D+00
   Bfn.  Coefficient  Atom+Function         Bfn.  Coefficient  Atom+Function  
  ----- ------------  ---------------      ----- ------------  ---------------
    48      5.330869  2 H  s                113      4.721378  4 H  s          
   132      4.721378  5 H  s                 14     -4.465555  1 C  s          
    78     -4.465555  3 C  s                 15      4.204762  1 C  px         
    79     -4.204762  3 C  px                49     -4.022971  2 H  s          
    10     -3.568260  1 C  s                 74     -3.568260  3 C  s          

 Vector   34  Occ=0.000000D+00  E= 2.217770D-01  Symmetry=a2
              MO Center= -3.1D-15,  5.9D-16, -8.0D-02, r^2= 6.8D+00
   Bfn.  Coefficient  Atom+Function         Bfn.  Coefficient  Atom+Function  
  ----- ------------  ---------------      ----- ------------  ---------------
    16      1.549001  1 C  py                80     -1.549001  3 C  py         
   121     -0.868863  4 H  py               140      0.868863  5 H  py         
    12      0.564171  1 C  py                76     -0.564171  3 C  py         
    31      0.515907  1 C  dxy               95      0.515907  3 C  dxy        
     8      0.370368  1 C  py                72     -0.370368  3 C  py         

 Vector   35  Occ=0.000000D+00  E= 2.479797D-01  Symmetry=b1
              MO Center=  6.2D-13, -1.3D-15, -3.9D-02, r^2= 1.1D+01
   Bfn.  Coefficient  Atom+Function         Bfn.  Coefficient  Atom+Function  
  ----- ------------  ---------------      ----- ------------  ---------------
   113      4.504075  4 H  s                132     -4.504075  5 H  s          
    15      3.083613  1 C  px                79      3.083613  3 C  px         
    33      1.800308  1 C  dyy               97     -1.800308  3 C  dyy        
    30      1.462109  1 C  dxx               94     -1.462109  3 C  dxx        
    35      1.312432  1 C  dzz               99     -1.312432  3 C  dzz        

 Vector   36  Occ=0.000000D+00  E= 2.873827D-01  Symmetry=b2
              MO Center=  3.6D-16,  3.2D-15,  5.7D-01, r^2= 3.8D+00
   Bfn.  Coefficient  Atom+Function         Bfn.  Coefficient  Atom+Function  
  ----- ------------  ---------------      ----- ------------  ---------------
    57      2.268308  2 H  py                34     -1.416025  1 C  dyz        
    98     -1.416025  3 C  dyz               12     -1.324029  1 C  py         
    76     -1.324029  3 C  py               121      0.352734  4 H  py         
   140      0.352734  5 H  py                 8      0.296344  1 C  py         
    72      0.296344  3 C  py                31     -0.198360  1 C  dxy        

 Vector   37  Occ=0.000000D+00  E= 2.989510D-01  Symmetry=a1
              MO Center= -8.8D-13, -3.3D-17, -1.8D-01, r^2= 1.1D+01
   Bfn.  Coefficient  Atom+Function         Bfn.  Coefficient  Atom+Function  
  ----- ------------  ---------------      ----- ------------  ---------------
   112     11.129993  4 H  s                131     11.129993  5 H  s          
    15      7.936627  1 C  px                79     -7.936627  3 C  px         
    14     -7.043500  1 C  s                 78     -7.043500  3 C  s          
    30     -5.073074  1 C  dxx               94     -5.073074  3 C  dxx        
   113      4.887279  4 H  s                132      4.887279  5 H  s          

 Vector   38  Occ=0.000000D+00  E= 3.331377D-01  Symmetry=a1
              MO Center= -3.7D-13,  7.6D-17,  3.9D-01, r^2= 5.8D+00
   Bfn.  Coefficient  Atom+Function         Bfn.  Coefficient  Atom+Function  
  ----- ------------  ---------------      ----- ------------  ---------------
    14      4.100290  1 C  s                 78      4.100290  3 C  s          
    15     -2.914464  1 C  px                79      2.914464  3 C  px         
    48      2.737362  2 H  s                113     -2.632901  4 H  s          
   132     -2.632901  5 H  s                 30     -2.072218  1 C  dxx        
    94     -2.072218  3 C  dxx              112     -1.884491  4 H  s          

 Vector   39  Occ=0.000000D+00  E= 3.520494D-01  Symmetry=b1
              MO Center=  4.6D-14, -2.8D-16, -2.6D-01, r^2= 5.2D+00
   Bfn.  Coefficient  Atom+Function         Bfn.  Coefficient  Atom+Function  
  ----- ------------  ---------------      ----- ------------  ---------------
    32      4.364611  1 C  dxz               96      4.364611  3 C  dxz        
    13      2.709394  1 C  pz                77     -2.709394  3 C  pz         
    56      1.983448  2 H  px               122      1.559906  4 H  pz         
   141     -1.559906  5 H  pz                35      1.513065  1 C  dzz        
    99     -1.513065  3 C  dzz               11     -0.866870  1 C  px         

 Vector   40  Occ=0.000000D+00  E= 3.741908D-01  Symmetry=a1
              MO Center= -1.4D-13,  1.8D-16,  2.8D-01, r^2= 5.1D+00
   Bfn.  Coefficient  Atom+Function         Bfn.  Coefficient  Atom+Function  
  ----- ------------  ---------------      ----- ------------  ---------------
    14      4.547844  1 C  s                 78      4.547844  3 C  s          
    15     -3.449908  1 C  px                79      3.449908  3 C  px         
   113     -3.428259  4 H  s                132     -3.428259  5 H  s          
   112     -2.932098  4 H  s                131     -2.932098  5 H  s          
    47     -1.696281  2 H  s                 10      1.506978  1 C  s          

 Vector   41  Occ=0.000000D+00  E= 3.826796D-01  Symmetry=a2
              MO Center= -5.0D-15,  3.3D-15, -1.4D-01, r^2= 5.0D+00
   Bfn.  Coefficient  Atom+Function         Bfn.  Coefficient  Atom+Function  
  ----- ------------  ---------------      ----- ------------  ---------------
    31      3.111233  1 C  dxy               95      3.111233  3 C  dxy        
   121      1.773143  4 H  py               140     -1.773143  5 H  py         
    12     -0.542698  1 C  py                76      0.542698  3 C  py         
    16      0.527121  1 C  py                80     -0.527121  3 C  py         
     8      0.486771  1 C  py                72     -0.486771  3 C  py         

 Vector   42  Occ=0.000000D+00  E= 3.920205D-01  Symmetry=b1
              MO Center= -1.2D-13, -1.2D-15, -1.2D-01, r^2= 6.6D+00
   Bfn.  Coefficient  Atom+Function         Bfn.  Coefficient  Atom+Function  
  ----- ------------  ---------------      ----- ------------  ---------------
   112      7.846349  4 H  s                131     -7.846349  5 H  s          
    11      5.210712  1 C  px                75      5.210712  3 C  px         
   120      2.707762  4 H  px               139      2.707762  5 H  px         
    10     -2.687344  1 C  s                 74      2.687344  3 C  s          
    14     -2.220092  1 C  s                 78      2.220092  3 C  s          

 Vector   43  Occ=0.000000D+00  E= 4.903740D-01  Symmetry=a1
              MO Center= -1.4D-13, -4.1D-16,  1.2D-01, r^2= 5.9D+00
   Bfn.  Coefficient  Atom+Function         Bfn.  Coefficient  Atom+Function  
  ----- ------------  ---------------      ----- ------------  ---------------
    48      5.728550  2 H  s                 10     -3.918325  1 C  s          
    74     -3.918325  3 C  s                 32      3.167980  1 C  dxz        
    96     -3.167980  3 C  dxz               13     -3.115646  1 C  pz         
    77     -3.115646  3 C  pz               122      2.385261  4 H  pz         
   141      2.385261  5 H  pz                14     -2.060354  1 C  s          

 Vector   44  Occ=0.000000D+00  E= 5.132281D-01  Symmetry=b2
              MO Center=  5.6D-14,  2.5D-15, -7.0D-02, r^2= 5.4D+00
   Bfn.  Coefficient  Atom+Function         Bfn.  Coefficient  Atom+Function  
  ----- ------------  ---------------      ----- ------------  ---------------
    31      3.883263  1 C  dxy               95     -3.883263  3 C  dxy        
   121      2.530256  4 H  py               140      2.530256  5 H  py         
    12     -1.902102  1 C  py                76     -1.902102  3 C  py         
     8     -0.283597  1 C  py                72     -0.283597  3 C  py         
    57     -0.158853  2 H  py         


 center of mass
 --------------
 x =   0.00000000 y =   0.00000000 z =  -0.06256301

 moments of inertia (a.u.)
 ------------------
           4.320822491484           0.000000000000           0.000000000000
           0.000000000000          57.572934528050           0.000000000000
           0.000000000000           0.000000000000          53.252112036566

     Multipole analysis of the density
     ---------------------------------

     L   x y z        total         alpha         beta         nuclear
     -   - - -        -----         -----         ----         -------
     0   0 0 0      1.000000     -7.000000     -7.000000     15.000000

     1   1 0 0     -0.000000     -0.000000     -0.000000      0.000000
     1   0 1 0      0.000000      0.000000      0.000000      0.000000
     1   0 0 1      0.404210      0.202105      0.202105     -0.000000

     2   2 0 0     -1.383740    -19.107856    -19.107856     36.831972
     2   1 1 0      0.000000      0.000000      0.000000      0.000000
     2   1 0 1      0.000000      0.000000      0.000000      0.000000
     2   0 2 0     -9.441325     -4.720662     -4.720662      0.000000
     2   0 1 1     -0.000000     -0.000000     -0.000000      0.000000
     2   0 0 2     -7.069623     -5.611819     -5.611819      4.154015


 Parallel integral file used     355 records with       0 large values


 Task  times  cpu:        3.3s     wall:        4.2s


                                NWChem Input Module
                                -------------------


 Summary of allocated global arrays
-----------------------------------
  No active global arrays



                         GA Statistics for process    0
                         ------------------------------

       create   destroy   get      put      acc     scatter   gather  read&inc
calls:  287      287     3305     1778      707        0        0      152     
number of processes/call 2.20e+00 1.51e+00 3.45e+00 0.00e+00 0.00e+00
bytes total:             6.14e+07 8.04e+06 2.92e+07 0.00e+00 0.00e+00 1.22e+03
bytes remote:            5.44e+07 4.76e+06 2.64e+07 0.00e+00 0.00e+00 0.00e+00
Max memory consumed for GA by this process: 666040 bytes

MA_summarize_allocated_blocks: starting scan ...
MA_summarize_allocated_blocks: scan completed: 0 heap blocks, 0 stack blocks
MA usage statistics:

	allocation statistics:
					      heap	     stack
					      ----	     -----
	current number of blocks	         0	         0
	maximum number of blocks	        24	        55
	current total bytes		         0	         0
	maximum total bytes		  20774488	  29244840
	maximum total K-bytes		     20775	     29245
	maximum total M-bytes		        21	        30


                                     CITATION
                                     --------
                Please cite the following reference when publishing
                           results obtained with NWChem:

                 M. Valiev, E.J. Bylaska, N. Govind, K. Kowalski,
              T.P. Straatsma, H.J.J. van Dam, D. Wang, J. Nieplocha,
                        E. Apra, T.L. Windus, W.A. de Jong
                 "NWChem: a comprehensive and scalable open-source
                  solution for large scale molecular simulations"
                      Comput. Phys. Commun. 181, 1477 (2010)
                           doi:10.1016/j.cpc.2010.04.018

                                      AUTHORS
                                      -------
          E. Apra, E. J. Bylaska, W. A. de Jong, N. Govind, K. Kowalski,
       T. P. Straatsma, M. Valiev, H. J. J. van Dam, D. Wang, T. L. Windus,
        J. Hammond, J. Autschbach, K. Bhaskaran-Nair, J. Brabec, K. Lopata,
       S. A. Fischer, S. Krishnamoorthy, W. Ma, M. Klemm, O. Villa, Y. Chen,
    V. Anisimov, F. Aquino, S. Hirata, M. T. Hackler, T. Risthaus, M. Malagoli,
       A. Marenich, A. Otero-de-la-Roza, J. Mullin, P. Nichols, R. Peverati,
     J. Pittner, Y. Zhao, P.-D. Fan, A. Fonari, M. Williamson, R. J. Harrison,
       J. R. Rehr, M. Dupuis, D. Silverstein, D. M. A. Smith, J. Nieplocha,
        V. Tipparaju, M. Krishnan, B. E. Van Kuiken, A. Vazquez-Mayagoitia,
        L. Jensen, M. Swart, Q. Wu, T. Van Voorhis, A. A. Auer, M. Nooijen,
      L. D. Crosby, E. Brown, G. Cisneros, G. I. Fann, H. Fruchtl, J. Garza,
        K. Hirao, R. A. Kendall, J. A. Nichols, K. Tsemekhman, K. Wolinski,
     J. Anchell, D. E. Bernholdt, P. Borowski, T. Clark, D. Clerc, H. Dachsel,
   M. J. O. Deegan, K. Dyall, D. Elwood, E. Glendening, M. Gutowski, A. C. Hess,
         J. Jaffe, B. G. Johnson, J. Ju, R. Kobayashi, R. Kutteh, Z. Lin,
   R. Littlefield, X. Long, B. Meng, T. Nakajima, S. Niu, L. Pollack, M. Rosing,
   K. Glaesemann, G. Sandrone, M. Stave, H. Taylor, G. Thomas, J. H. van Lenthe,
                               A. T. Wong, Z. Zhang.

 Total times  cpu:        3.4s     wall:        4.4s
