[1537784487.099223] [r8n4:11480:0]         sys.c:744  MXM  WARN  Conflicting CPU frequencies detected, using: 2499.99
[1537784487.108153] [r8n4:11486:0]         sys.c:744  MXM  WARN  Conflicting CPU frequencies detected, using: 2499.99
[1537784487.108502] [r8n4:11483:0]         sys.c:744  MXM  WARN  Conflicting CPU frequencies detected, using: 2499.99
[1537784487.109605] [r8n4:11485:0]         sys.c:744  MXM  WARN  Conflicting CPU frequencies detected, using: 2499.99
[1537784487.109855] [r8n4:11484:0]         sys.c:744  MXM  WARN  Conflicting CPU frequencies detected, using: 2499.99
[1537784487.109962] [r8n4:11481:0]         sys.c:744  MXM  WARN  Conflicting CPU frequencies detected, using: 2499.99
[1537784487.110051] [r8n4:11482:0]         sys.c:744  MXM  WARN  Conflicting CPU frequencies detected, using: 2499.99
[1537784487.127184] [r8n4:11489:0]         sys.c:744  MXM  WARN  Conflicting CPU frequencies detected, using: 2499.99
[1537784487.127991] [r8n4:11487:0]         sys.c:744  MXM  WARN  Conflicting CPU frequencies detected, using: 2499.99
[1537784487.166490] [r8n4:11504:0]         sys.c:744  MXM  WARN  Conflicting CPU frequencies detected, using: 2499.99
[1537784487.167602] [r8n4:11494:0]         sys.c:744  MXM  WARN  Conflicting CPU frequencies detected, using: 2499.99
[1537784487.167642] [r8n4:11496:0]         sys.c:744  MXM  WARN  Conflicting CPU frequencies detected, using: 2499.99
[1537784487.167698] [r8n4:11502:0]         sys.c:744  MXM  WARN  Conflicting CPU frequencies detected, using: 2499.99
[1537784487.167917] [r8n4:11492:0]         sys.c:744  MXM  WARN  Conflicting CPU frequencies detected, using: 2499.99
[1537784487.168643] [r8n4:11498:0]         sys.c:744  MXM  WARN  Conflicting CPU frequencies detected, using: 2499.99
[1537784487.168703] [r8n4:11500:0]         sys.c:744  MXM  WARN  Conflicting CPU frequencies detected, using: 2499.99
 argument  1 = /storage/home/bikashp/nwchem_run/rabeet/pa8/nwpa8/H2O.xyz.nw
                                         
                                         


              Northwest Computational Chemistry Package (NWChem) 6.6
              ------------------------------------------------------


                    Environmental Molecular Sciences Laboratory
                       Pacific Northwest National Laboratory
                                Richland, WA 99352

                              Copyright (c) 1994-2015
                       Pacific Northwest National Laboratory
                            Battelle Memorial Institute

             NWChem is an open-source computational chemistry package
                        distributed under the terms of the
                      Educational Community License (ECL) 2.0
             A copy of the license is included with this distribution
                              in the LICENSE.TXT file

                                  ACKNOWLEDGMENT
                                  --------------

            This software and its documentation were developed at the
            EMSL at Pacific Northwest National Laboratory, a multiprogram
            national laboratory, operated for the U.S. Department of Energy
            by Battelle under Contract Number DE-AC05-76RL01830. Support
            for this work was provided by the Department of Energy Office
            of Biological and Environmental Research, Office of Basic
            Energy Sciences, and the Office of Advanced Scientific Computing.


           Job information
           ---------------

    hostname        = r8n4.niserhpc.org
    program         = /home/bikashp/Code/nwchem-6.6_tpssloc/bin/LINUX64/nwchem
    date            = Mon Sep 24 15:51:30 2018

    compiled        = Tue_Sep_18_16:24:59_2018
    source          = /home/bikashp/Code/nwchem-6.6_tpssloc
    nwchem branch   = 6.6
    nwchem revision = 27746
    ga revision     = 10594
    input           = /storage/home/bikashp/nwchem_run/rabeet/pa8/nwpa8/H2O.xyz.nw
    prefix          = H2O.xyz.
    data base       = ./H2O.xyz.db
    status          = startup
    nproc           =       16
    time left       =     -1s



           Memory information
           ------------------

    heap     =   13107196 doubles =    100.0 Mbytes
    stack    =   13107201 doubles =    100.0 Mbytes
    global   =   26214400 doubles =    200.0 Mbytes (distinct from heap & stack)
    total    =   52428797 doubles =    400.0 Mbytes
    verify   = yes
    hardfail = no 


           Directory information
           ---------------------

  0 permanent = .
  0 scratch   = .




                                NWChem Input Module
                                -------------------



 Scaling coordinates for geometry "geometry" by  1.889725989
 (inverse scale =  0.529177249)

 C2V symmetry detected

          ------
          auto-z
          ------


                             Geometry "geometry" -> ""
                             -------------------------

 Output coordinates in angstroms (scale by  1.889725989 to convert to a.u.)

  No.       Tag          Charge          X              Y              Z
 ---- ---------------- ---------- -------------- -------------- --------------
    1 O                    8.0000     0.00000000     0.00000000     0.11926200
    2 H                    1.0000    -0.76324000     0.00000000    -0.47704800
    3 H                    1.0000     0.76324000     0.00000000    -0.47704800

      Atomic Mass 
      ----------- 

      O                 15.994910
      H                  1.007825


 Effective nuclear repulsion energy (a.u.)       9.0882813003

            Nuclear Dipole moment (a.u.) 
            ----------------------------
        X                 Y               Z
 ---------------- ---------------- ----------------
     0.0000000000     0.0000000000     0.0000000000

      Symmetry information
      --------------------

 Group name             C2v       
 Group number             16
 Group order               4
 No. of unique centers     2

      Symmetry unique atoms

     1    2



                                Z-matrix (autoz)
                                -------- 

 Units are Angstrom for bonds and degrees for angles

      Type          Name      I     J     K     L     M      Value
      ----------- --------  ----- ----- ----- ----- ----- ----------
    1 Stretch                  1     2                       0.96857
    2 Stretch                  1     3                       0.96857
    3 Bend                     2     1     3               103.99985


            XYZ format geometry
            -------------------
     3
 geometry
 O                     0.00000000     0.00000000     0.11926200
 H                    -0.76324000     0.00000000    -0.47704800
 H                     0.76324000     0.00000000    -0.47704800

 ==============================================================================
                                internuclear distances
 ------------------------------------------------------------------------------
       center one      |      center two      | atomic units |  angstroms
 ------------------------------------------------------------------------------
    2 H                |   1 O                |     1.83033  |     0.96857
    3 H                |   1 O                |     1.83033  |     0.96857
 ------------------------------------------------------------------------------
                         number of included internuclear distances:          2
 ==============================================================================



 ==============================================================================
                                 internuclear angles
 ------------------------------------------------------------------------------
        center 1       |       center 2       |       center 3       |  degrees
 ------------------------------------------------------------------------------
    2 H                |   1 O                |   3 H                |   104.00
 ------------------------------------------------------------------------------
                            number of included internuclear angles:          1
 ==============================================================================





 Summary of "ao basis" -> "" (cartesian)
 ------------------------------------------------------------------------------
       Tag                 Description            Shells   Functions and Types
 ---------------- ------------------------------  ------  ---------------------
 *                     6-311++G(3df,3pd)              on all atoms 



                                 NWChem DFT Module
                                 -----------------


                      Basis "ao basis" -> "ao basis" (cartesian)
                      -----
  O (Oxygen)
  ----------
            Exponent  Coefficients 
       -------------- ---------------------------------------------------------
  1 S  8.58850000E+03  0.001895
  1 S  1.29723000E+03  0.014386
  1 S  2.99296000E+02  0.070732
  1 S  8.73771000E+01  0.240001
  1 S  2.56789000E+01  0.594797
  1 S  3.74004000E+00  0.280802

  2 S  4.21175000E+01  0.113889
  2 S  9.62837000E+00  0.920811
  2 S  2.85332000E+00 -0.003274

  3 P  4.21175000E+01  0.036511
  3 P  9.62837000E+00  0.237153
  3 P  2.85332000E+00  0.819702

  4 S  9.05661000E-01  1.000000

  5 P  9.05661000E-01  1.000000

  6 S  2.55611000E-01  1.000000

  7 P  2.55611000E-01  1.000000

  8 S  8.45000000E-02  1.000000

  9 P  8.45000000E-02  1.000000

 10 D  5.16000000E+00  1.000000

 11 D  1.29200000E+00  1.000000

 12 D  3.22500000E-01  1.000000

 13 F  1.40000000E+00  1.000000

  H (Hydrogen)
  ------------
            Exponent  Coefficients 
       -------------- ---------------------------------------------------------
  1 S  3.38650000E+01  0.025494
  1 S  5.09479000E+00  0.190373
  1 S  1.15879000E+00  0.852161

  2 S  3.25840000E-01  1.000000

  3 S  1.02741000E-01  1.000000

  4 S  3.60000000E-02  1.000000

  5 P  3.00000000E+00  1.000000

  6 P  7.50000000E-01  1.000000

  7 P  1.87500000E-01  1.000000

  8 D  1.00000000E+00  1.000000



 Summary of "ao basis" -> "ao basis" (cartesian)
 ------------------------------------------------------------------------------
       Tag                 Description            Shells   Functions and Types
 ---------------- ------------------------------  ------  ---------------------
 O                     6-311++G(3df,3pd)            13       45   5s4p3d1f
 H                     6-311++G(3df,3pd)             8       19   4s3p1d




 Summary of "ao basis" -> "ao basis" (cartesian)
 ------------------------------------------------------------------------------
       Tag                 Description            Shells   Functions and Types
 ---------------- ------------------------------  ------  ---------------------
 O                     6-311++G(3df,3pd)            13       45   5s4p3d1f
 H                     6-311++G(3df,3pd)             8       19   4s3p1d


      Symmetry analysis of basis
      --------------------------

        a1         35
        a2          9
        b1         24
        b2         15

  Caching 1-el integrals 

            General Information
            -------------------
          SCF calculation type: DFT
          Wavefunction type:  closed shell.
          No. of atoms     :     3
          No. of electrons :    10
           Alpha electrons :     5
            Beta electrons :     5
          Charge           :     0
          Spin multiplicity:     1
          Use of symmetry is: on ; symmetry adaption is: on 
          Maximum number of iterations: ***
          AO basis - number of functions:    83
                     number of shells:    29
          Convergence on energy requested: 1.00D-06
          Convergence on density requested: 1.00D-05
          Convergence on gradient requested: 5.00D-04

              XC Information
              --------------
                  TPSS metaGGA Exchange Functional  1.000          
             TPSS03 metaGGA Correlation Functional  1.000          

             Grid Information
             ----------------
          Grid used for XC integration:  medium    
          Radial quadrature: Mura-Knowles        
          Angular quadrature: Lebedev. 
          Tag              B.-S. Rad. Rad. Pts. Rad. Cut. Ang. Pts.
          ---              ---------- --------- --------- ---------
          O                   0.60       49           8.0       434
          H                   0.35       45          11.0       434
          Grid pruning is: on 
          Number of quadrature shells:    94
          Spatial weights used:  Erf1

          Convergence Information
          -----------------------
          Convergence aids based upon iterative change in 
          total energy or number of iterations. 
          Levelshifting, if invoked, occurs when the 
          HOMO/LUMO gap drops below (HL_TOL): 1.00D-02
          DIIS, if invoked, will attempt to extrapolate 
          using up to (NFOCK): 10 stored Fock matrices.

                    Damping( 0%)  Levelshifting(0.5)       DIIS
                  --------------- ------------------- ---------------
          dE  on:    start            ASAP                start   
          dE off:    2 iters        *** iters           *** iters 


      Screening Tolerance Information
      -------------------------------
          Density screening/tol_rho: 1.00D-10
          AO Gaussian exp screening on grid/accAOfunc:  14
          CD Gaussian exp screening on grid/accCDfunc:  20
          XC Gaussian exp screening on grid/accXCfunc:  20
          Schwarz screening/accCoul: 1.00D-08


      Superposition of Atomic Density Guess
      -------------------------------------

 Sum of atomic energies:         -75.77742205

      Non-variational initial energy
      ------------------------------

 Total energy =     -75.918683
 1-e energy   =    -121.537839
 2-e energy   =      36.530875
 HOMO         =      -0.479167
 LUMO         =       0.014894


      Symmetry analysis of molecular orbitals - initial
      -------------------------------------------------

  Numbering of irreducible representations: 

     1 a1          2 a2          3 b1          4 b2      

  Orbital symmetries:

     1 a1          2 a1          3 b1          4 a1          5 b2      
     6 a1          7 b1          8 a1          9 a1         10 b1      
    11 b2         12 a1         13 b1         14 a1         15 a2      

   Time after variat. SCF:      0.7
   Time prior to 1st pass:      0.7

 Integral file          = ./H2O.xyz.aoints.00
 Record size in doubles =    65536    No. of integs per rec  =    43688
 Max. records in memory =        5    Max. records in file   = 11668036
 No. of bits per label  =        8    No. of bits per value  =       64


 #quartets = 5.952D+04 #integrals = 1.893D+06 #direct =  0.0% #cached =100.0%


File balance: exchanges=     0  moved=     0  time=   0.0


 Grid_pts file          = ./H2O.xyz.gridpts.00
 Record size in doubles =  12289        No. of grid_pts per rec  =   3070
 Max. records in memory =      2        Max. recs in file   =  62224465


           Memory utilization after 1st SCF pass: 
           Heap Space remaining (MW):       12.75            12751996
          Stack Space remaining (MW):       13.11            13106644

   convergence    iter        energy       DeltaE   RMS-Dens  Diis-err    time
 ---------------- ----- ----------------- --------- --------- ---------  ------
 d= 0,ls=0.0,diis     1    -76.4256838508 -8.55D+01  1.17D-02  7.82D-01     1.1
 d= 0,ls=0.0,diis     2    -76.2833992521  1.42D-01  6.04D-03  1.75D+00     1.2
 d= 0,ls=0.0,diis     3    -76.4600451368 -1.77D-01  1.02D-03  4.46D-02     1.2
 d= 0,ls=0.0,diis     4    -76.4562888019  3.76D-03  2.97D-04  1.08D-03     1.3
 d= 0,ls=0.0,diis     5    -76.4561179895  1.71D-04  6.98D-05  9.55D-05     1.4
  Resetting Diis
 d= 0,ls=0.0,diis     6    -76.4560060607  1.12D-04  1.94D-05  1.03D-05     1.4
 d= 0,ls=0.0,diis     7    -76.4561121975 -1.06D-04  3.30D-06  2.86D-08     1.5
 d= 0,ls=0.0,diis     8    -76.4561031851  9.01D-06  9.09D-07  5.95D-08     1.6
 d= 0,ls=0.0,diis     9    -76.4561100595 -6.87D-06  3.05D-07  2.00D-09     1.6
 d= 0,ls=0.0,diis    10    -76.4561091222  9.37D-07  1.10D-07  8.44D-11     1.7


         Total DFT energy =      -76.456109122163
      One electron energy =     -122.504588420810
           Coulomb energy =       46.226333368878
          Exchange energy =       -8.935482128975
       Correlation energy =       -0.330653241586
 Nuclear repulsion energy =        9.088281300329

 Numeric. integr. density =       10.000001486262

     Total iterative time =      1.0s



                  Occupations of the irreducible representations
                  ----------------------------------------------

                     irrep           alpha         beta
                     --------     --------     --------
                     a1                3.0          3.0
                     a2                0.0          0.0
                     b1                1.0          1.0
                     b2                1.0          1.0


                       DFT Final Molecular Orbital Analysis
                       ------------------------------------

 Vector    1  Occ=2.000000D+00  E=-1.896905D+01  Symmetry=a1
              MO Center= -1.3D-17,  8.2D-25,  1.2D-01, r^2= 1.5D-02
   Bfn.  Coefficient  Atom+Function         Bfn.  Coefficient  Atom+Function  
  ----- ------------  ---------------      ----- ------------  ---------------
     1      0.550763  1 O  s                  2      0.470920  1 O  s          

 Vector    2  Occ=2.000000D+00  E=-1.005061D+00  Symmetry=a1
              MO Center= -2.1D-15, -2.6D-16, -8.0D-02, r^2= 5.1D-01
   Bfn.  Coefficient  Atom+Function         Bfn.  Coefficient  Atom+Function  
  ----- ------------  ---------------      ----- ------------  ---------------
    10      0.651246  1 O  s                  6      0.542367  1 O  s          
     2     -0.203588  1 O  s          

 Vector    3  Occ=2.000000D+00  E=-5.466133D-01  Symmetry=b1
              MO Center=  2.2D-15,  5.5D-32, -8.6D-02, r^2= 7.9D-01
   Bfn.  Coefficient  Atom+Function         Bfn.  Coefficient  Atom+Function  
  ----- ------------  ---------------      ----- ------------  ---------------
    11      0.385888  1 O  px                 7      0.326644  1 O  px         
     3      0.250019  1 O  px         

 Vector    4  Occ=2.000000D+00  E=-4.179921D-01  Symmetry=a1
              MO Center=  2.2D-18, -2.4D-32,  1.7D-01, r^2= 7.5D-01
   Bfn.  Coefficient  Atom+Function         Bfn.  Coefficient  Atom+Function  
  ----- ------------  ---------------      ----- ------------  ---------------
    10      0.406827  1 O  s                 13      0.398816  1 O  pz         
     9      0.335298  1 O  pz                 5      0.265139  1 O  pz         
     6      0.167868  1 O  s          

 Vector    5  Occ=2.000000D+00  E=-3.431905D-01  Symmetry=b2
              MO Center= -3.1D-16,  8.2D-18,  7.2D-02, r^2= 7.1D-01
   Bfn.  Coefficient  Atom+Function         Bfn.  Coefficient  Atom+Function  
  ----- ------------  ---------------      ----- ------------  ---------------
    12      0.449054  1 O  py                 8      0.393335  1 O  py         
     4      0.298931  1 O  py         

 Vector    6  Occ=0.000000D+00  E=-4.666678D-02  Symmetry=a1
              MO Center=  1.1D-16,  6.1D-16, -7.3D-01, r^2= 4.9D+00
   Bfn.  Coefficient  Atom+Function         Bfn.  Coefficient  Atom+Function  
  ----- ------------  ---------------      ----- ------------  ---------------
    14      0.714269  1 O  s                 48     -0.456199  2 H  s          
    67     -0.456199  3 H  s                 49     -0.427178  2 H  s          
    68     -0.427178  3 H  s                 10      0.420897  1 O  s          
     6      0.220759  1 O  s                 13     -0.180479  1 O  pz         

 Vector    7  Occ=0.000000D+00  E= 1.876050D-02  Symmetry=b1
              MO Center= -1.1D-15, -1.9D-31, -7.4D-01, r^2= 7.9D+00
   Bfn.  Coefficient  Atom+Function         Bfn.  Coefficient  Atom+Function  
  ----- ------------  ---------------      ----- ------------  ---------------
    49      1.679971  2 H  s                 68     -1.679971  3 H  s          
    48      0.567715  2 H  s                 67     -0.567715  3 H  s          
    15      0.476720  1 O  px                11      0.197861  1 O  px         
     7      0.182270  1 O  px         

 Vector    8  Occ=0.000000D+00  E= 1.034932D-01  Symmetry=a1
              MO Center=  7.6D-16, -2.6D-17, -6.2D-01, r^2= 8.8D+00
   Bfn.  Coefficient  Atom+Function         Bfn.  Coefficient  Atom+Function  
  ----- ------------  ---------------      ----- ------------  ---------------
    48      1.863889  2 H  s                 67      1.863889  3 H  s          
    49     -0.977607  2 H  s                 68     -0.977607  3 H  s          
    14     -0.953099  1 O  s                 17      0.421534  1 O  pz         
    10     -0.310641  1 O  s                 13      0.249183  1 O  pz         
     6     -0.245470  1 O  s                 33     -0.198072  1 O  dyy        

 Vector    9  Occ=0.000000D+00  E= 1.089277D-01  Symmetry=b1
              MO Center= -5.6D-14, -5.1D-17, -7.1D-02, r^2= 7.6D+00
   Bfn.  Coefficient  Atom+Function         Bfn.  Coefficient  Atom+Function  
  ----- ------------  ---------------      ----- ------------  ---------------
    48      2.962493  2 H  s                 67     -2.962493  3 H  s          
    49     -1.871538  2 H  s                 68      1.871538  3 H  s          
    15      1.210221  1 O  px                11      0.675746  1 O  px         
    47      0.342101  2 H  s                 66     -0.342101  3 H  s          
    56      0.307352  2 H  px                75      0.307352  3 H  px         

 Vector   10  Occ=0.000000D+00  E= 1.365465D-01  Symmetry=b2
              MO Center= -6.9D-19, -2.7D-17,  1.1D-01, r^2= 4.8D+00
   Bfn.  Coefficient  Atom+Function         Bfn.  Coefficient  Atom+Function  
  ----- ------------  ---------------      ----- ------------  ---------------
    16      1.224043  1 O  py                12     -0.438793  1 O  py         
     8     -0.176242  1 O  py                 4     -0.150164  1 O  py         

 Vector   11  Occ=0.000000D+00  E= 1.389071D-01  Symmetry=a1
              MO Center=  1.3D-14,  1.9D-18,  5.5D-01, r^2= 4.8D+00
   Bfn.  Coefficient  Atom+Function         Bfn.  Coefficient  Atom+Function  
  ----- ------------  ---------------      ----- ------------  ---------------
    17     -1.859268  1 O  pz                14      1.717435  1 O  s          
    48     -1.568349  2 H  s                 67     -1.568349  3 H  s          
    13      0.347473  1 O  pz                 6      0.221486  1 O  s          
    35      0.193480  1 O  dzz               33      0.174863  1 O  dyy        
    49      0.163486  2 H  s                 68      0.163486  3 H  s          

 Vector   12  Occ=0.000000D+00  E= 1.831861D-01  Symmetry=a1
              MO Center=  3.6D-14, -3.4D-16, -2.5D-01, r^2= 6.0D+00
   Bfn.  Coefficient  Atom+Function         Bfn.  Coefficient  Atom+Function  
  ----- ------------  ---------------      ----- ------------  ---------------
    14     10.822331  1 O  s                 48     -5.439601  2 H  s          
    67     -5.439601  3 H  s                 17     -2.795286  1 O  pz         
    10      1.113669  1 O  s                 13     -0.754146  1 O  pz         
    47     -0.562258  2 H  s                 66     -0.562258  3 H  s          
    49     -0.491727  2 H  s                 68     -0.491727  3 H  s          

 Vector   13  Occ=0.000000D+00  E= 2.031524D-01  Symmetry=b1
              MO Center= -2.3D-14, -1.0D-16,  1.9D-01, r^2= 7.6D+00
   Bfn.  Coefficient  Atom+Function         Bfn.  Coefficient  Atom+Function  
  ----- ------------  ---------------      ----- ------------  ---------------
    15      3.232636  1 O  px                48      2.614193  2 H  s          
    67     -2.614193  3 H  s                 49      1.850757  2 H  s          
    68     -1.850757  3 H  s                 56      0.353563  2 H  px         
    75      0.353563  3 H  px                58      0.329955  2 H  pz         
    77     -0.329955  3 H  pz                47      0.322731  2 H  s          

 Vector   14  Occ=0.000000D+00  E= 2.754533D-01  Symmetry=a1
              MO Center= -4.9D-15, -1.5D-17, -1.5D-01, r^2= 3.7D+00
   Bfn.  Coefficient  Atom+Function         Bfn.  Coefficient  Atom+Function  
  ----- ------------  ---------------      ----- ------------  ---------------
    14      5.508256  1 O  s                 48     -3.252004  2 H  s          
    67     -3.252004  3 H  s                 17     -2.469581  1 O  pz         
    56     -0.823680  2 H  px                75      0.823680  3 H  px         
    13     -0.772754  1 O  pz                10      0.599915  1 O  s          
    58      0.506998  2 H  pz                77      0.506998  3 H  pz         

 Vector   15  Occ=0.000000D+00  E= 3.018041D-01  Symmetry=a2
              MO Center= -1.2D-14,  8.6D-16, -4.7D-01, r^2= 2.9D+00
   Bfn.  Coefficient  Atom+Function         Bfn.  Coefficient  Atom+Function  
  ----- ------------  ---------------      ----- ------------  ---------------
    57      0.952466  2 H  py                76     -0.952466  3 H  py         

 Vector   16  Occ=0.000000D+00  E= 3.392483D-01  Symmetry=b2
              MO Center=  1.2D-14, -1.8D-18, -2.1D-01, r^2= 3.5D+00
   Bfn.  Coefficient  Atom+Function         Bfn.  Coefficient  Atom+Function  
  ----- ------------  ---------------      ----- ------------  ---------------
    57     -1.088040  2 H  py                76     -1.088040  3 H  py         
    16      1.047116  1 O  py                12      0.615528  1 O  py         

 Vector   17  Occ=0.000000D+00  E= 3.856726D-01  Symmetry=b1
              MO Center=  3.2D-14, -3.3D-16, -1.2D-01, r^2= 6.1D+00
   Bfn.  Coefficient  Atom+Function         Bfn.  Coefficient  Atom+Function  
  ----- ------------  ---------------      ----- ------------  ---------------
    48      7.315384  2 H  s                 67     -7.315384  3 H  s          
    15      2.906542  1 O  px                11      1.515578  1 O  px         
    56      1.354109  2 H  px                75      1.354109  3 H  px         
    49     -1.345508  2 H  s                 68      1.345508  3 H  s          
    58      1.163034  2 H  pz                77     -1.163034  3 H  pz         

 Vector   18  Occ=0.000000D+00  E= 4.408022D-01  Symmetry=a1
              MO Center=  9.5D-15, -4.6D-17, -3.8D-01, r^2= 5.0D+00
   Bfn.  Coefficient  Atom+Function         Bfn.  Coefficient  Atom+Function  
  ----- ------------  ---------------      ----- ------------  ---------------
    14      8.335592  1 O  s                 48     -7.002783  2 H  s          
    67     -7.002783  3 H  s                 17     -2.401529  1 O  pz         
    10      1.731137  1 O  s                 56     -1.088137  2 H  px         
    75      1.088137  3 H  px                58     -1.037300  2 H  pz         
    77     -1.037300  3 H  pz                30      0.964027  1 O  dxx        

 Vector   19  Occ=0.000000D+00  E= 5.215416D-01  Symmetry=b1
              MO Center= -2.5D-15, -1.5D-16, -4.9D-01, r^2= 4.1D+00
   Bfn.  Coefficient  Atom+Function         Bfn.  Coefficient  Atom+Function  
  ----- ------------  ---------------      ----- ------------  ---------------
    15      1.881439  1 O  px                58      1.270178  2 H  pz         
    77     -1.270178  3 H  pz                56     -1.198909  2 H  px         
    75     -1.198909  3 H  px                49      0.855000  2 H  s          
    68     -0.855000  3 H  s                 11      0.743558  1 O  px         
    47      0.560839  2 H  s                 66     -0.560839  3 H  s          


 center of mass
 --------------
 x =   0.00000000 y =   0.00000000 z =   0.09925980

 moments of inertia (a.u.)
 ------------------
           2.273063475243           0.000000000000           0.000000000000
           0.000000000000           6.466161739956           0.000000000000
           0.000000000000           0.000000000000           4.193098264713

     Multipole analysis of the density
     ---------------------------------

     L   x y z        total         alpha         beta         nuclear
     -   - - -        -----         -----         ----         -------
     0   0 0 0     -0.000000     -5.000000     -5.000000     10.000000

     1   1 0 0     -0.000000     -0.000000     -0.000000      0.000000
     1   0 1 0     -0.000000     -0.000000     -0.000000      0.000000
     1   0 0 1     -0.754744     -0.377372     -0.377372      0.000000

     2   2 0 0     -3.336476     -3.748509     -3.748509      4.160542
     2   1 1 0     -0.000000     -0.000000     -0.000000      0.000000
     2   1 0 1      0.000000      0.000000      0.000000      0.000000
     2   0 2 0     -5.880334     -2.940167     -2.940167      0.000000
     2   0 1 1     -0.000000     -0.000000     -0.000000      0.000000
     2   0 0 2     -4.829564     -3.430637     -3.430637      2.031711


 Parallel integral file used      51 records with       0 large values


 Task  times  cpu:        1.1s     wall:        1.6s


                                NWChem Input Module
                                -------------------


 Summary of allocated global arrays
-----------------------------------
  No active global arrays



                         GA Statistics for process    0
                         ------------------------------

       create   destroy   get      put      acc     scatter   gather  read&inc
calls:  284      284     2118     1344      310        0        0      116     
number of processes/call 2.65e+00 1.61e+00 6.29e+00 0.00e+00 0.00e+00
bytes total:             2.02e+07 4.34e+06 9.31e+06 0.00e+00 0.00e+00 9.28e+02
bytes remote:            1.43e+07 1.57e+06 7.31e+06 0.00e+00 0.00e+00 0.00e+00
Max memory consumed for GA by this process: 583200 bytes

MA_summarize_allocated_blocks: starting scan ...
MA_summarize_allocated_blocks: scan completed: 0 heap blocks, 0 stack blocks
MA usage statistics:

	allocation statistics:
					      heap	     stack
					      ----	     -----
	current number of blocks	         0	         0
	maximum number of blocks	        24	        55
	current total bytes		         0	         0
	maximum total bytes		   2841080	  23477608
	maximum total K-bytes		      2842	     23478
	maximum total M-bytes		         3	        24


                                     CITATION
                                     --------
                Please cite the following reference when publishing
                           results obtained with NWChem:

                 M. Valiev, E.J. Bylaska, N. Govind, K. Kowalski,
              T.P. Straatsma, H.J.J. van Dam, D. Wang, J. Nieplocha,
                        E. Apra, T.L. Windus, W.A. de Jong
                 "NWChem: a comprehensive and scalable open-source
                  solution for large scale molecular simulations"
                      Comput. Phys. Commun. 181, 1477 (2010)
                           doi:10.1016/j.cpc.2010.04.018

                                      AUTHORS
                                      -------
          E. Apra, E. J. Bylaska, W. A. de Jong, N. Govind, K. Kowalski,
       T. P. Straatsma, M. Valiev, H. J. J. van Dam, D. Wang, T. L. Windus,
        J. Hammond, J. Autschbach, K. Bhaskaran-Nair, J. Brabec, K. Lopata,
       S. A. Fischer, S. Krishnamoorthy, W. Ma, M. Klemm, O. Villa, Y. Chen,
    V. Anisimov, F. Aquino, S. Hirata, M. T. Hackler, T. Risthaus, M. Malagoli,
       A. Marenich, A. Otero-de-la-Roza, J. Mullin, P. Nichols, R. Peverati,
     J. Pittner, Y. Zhao, P.-D. Fan, A. Fonari, M. Williamson, R. J. Harrison,
       J. R. Rehr, M. Dupuis, D. Silverstein, D. M. A. Smith, J. Nieplocha,
        V. Tipparaju, M. Krishnan, B. E. Van Kuiken, A. Vazquez-Mayagoitia,
        L. Jensen, M. Swart, Q. Wu, T. Van Voorhis, A. A. Auer, M. Nooijen,
      L. D. Crosby, E. Brown, G. Cisneros, G. I. Fann, H. Fruchtl, J. Garza,
        K. Hirao, R. A. Kendall, J. A. Nichols, K. Tsemekhman, K. Wolinski,
     J. Anchell, D. E. Bernholdt, P. Borowski, T. Clark, D. Clerc, H. Dachsel,
   M. J. O. Deegan, K. Dyall, D. Elwood, E. Glendening, M. Gutowski, A. C. Hess,
         J. Jaffe, B. G. Johnson, J. Ju, R. Kobayashi, R. Kutteh, Z. Lin,
   R. Littlefield, X. Long, B. Meng, T. Nakajima, S. Niu, L. Pollack, M. Rosing,
   K. Glaesemann, G. Sandrone, M. Stave, H. Taylor, G. Thomas, J. H. van Lenthe,
                               A. T. Wong, Z. Zhang.

 Total times  cpu:        1.1s     wall:        1.8s
