[1537784511.854800] [r8n4:12155:0]         sys.c:744  MXM  WARN  Conflicting CPU frequencies detected, using: 2799.98
[1537784511.865202] [r8n4:12156:0]         sys.c:744  MXM  WARN  Conflicting CPU frequencies detected, using: 2799.98
[1537784511.865266] [r8n4:12158:0]         sys.c:744  MXM  WARN  Conflicting CPU frequencies detected, using: 2799.98
[1537784511.865762] [r8n4:12157:0]         sys.c:744  MXM  WARN  Conflicting CPU frequencies detected, using: 2799.98
[1537784511.865914] [r8n4:12160:0]         sys.c:744  MXM  WARN  Conflicting CPU frequencies detected, using: 2799.98
[1537784511.865982] [r8n4:12159:0]         sys.c:744  MXM  WARN  Conflicting CPU frequencies detected, using: 2799.98
[1537784511.866043] [r8n4:12161:0]         sys.c:744  MXM  WARN  Conflicting CPU frequencies detected, using: 2799.98
[1537784511.882872] [r8n4:12162:0]         sys.c:744  MXM  WARN  Conflicting CPU frequencies detected, using: 2799.98
[1537784511.883365] [r8n4:12163:0]         sys.c:744  MXM  WARN  Conflicting CPU frequencies detected, using: 2799.98
[1537784511.910621] [r8n4:12174:0]         sys.c:744  MXM  WARN  Conflicting CPU frequencies detected, using: 2799.98
[1537784511.910621] [r8n4:12168:0]         sys.c:744  MXM  WARN  Conflicting CPU frequencies detected, using: 2799.98
[1537784511.910621] [r8n4:12176:0]         sys.c:744  MXM  WARN  Conflicting CPU frequencies detected, using: 2799.98
[1537784511.910650] [r8n4:12166:0]         sys.c:744  MXM  WARN  Conflicting CPU frequencies detected, using: 2799.98
[1537784511.910655] [r8n4:12172:0]         sys.c:744  MXM  WARN  Conflicting CPU frequencies detected, using: 2799.98
[1537784511.910688] [r8n4:12170:0]         sys.c:744  MXM  WARN  Conflicting CPU frequencies detected, using: 2799.98
[1537784511.911239] [r8n4:12178:0]         sys.c:744  MXM  WARN  Conflicting CPU frequencies detected, using: 2799.98
 argument  1 = /storage/home/bikashp/nwchem_run/rabeet/pa8/nwpa8/H3S+.xyz.nw
                                         
                                         


              Northwest Computational Chemistry Package (NWChem) 6.6
              ------------------------------------------------------


                    Environmental Molecular Sciences Laboratory
                       Pacific Northwest National Laboratory
                                Richland, WA 99352

                              Copyright (c) 1994-2015
                       Pacific Northwest National Laboratory
                            Battelle Memorial Institute

             NWChem is an open-source computational chemistry package
                        distributed under the terms of the
                      Educational Community License (ECL) 2.0
             A copy of the license is included with this distribution
                              in the LICENSE.TXT file

                                  ACKNOWLEDGMENT
                                  --------------

            This software and its documentation were developed at the
            EMSL at Pacific Northwest National Laboratory, a multiprogram
            national laboratory, operated for the U.S. Department of Energy
            by Battelle under Contract Number DE-AC05-76RL01830. Support
            for this work was provided by the Department of Energy Office
            of Biological and Environmental Research, Office of Basic
            Energy Sciences, and the Office of Advanced Scientific Computing.


           Job information
           ---------------

    hostname        = r8n4.niserhpc.org
    program         = /home/bikashp/Code/nwchem-6.6_tpssloc/bin/LINUX64/nwchem
    date            = Mon Sep 24 15:51:55 2018

    compiled        = Tue_Sep_18_16:24:59_2018
    source          = /home/bikashp/Code/nwchem-6.6_tpssloc
    nwchem branch   = 6.6
    nwchem revision = 27746
    ga revision     = 10594
    input           = /storage/home/bikashp/nwchem_run/rabeet/pa8/nwpa8/H3S+.xyz.nw
    prefix          = H3S+.xyz.
    data base       = ./H3S+.xyz.db
    status          = startup
    nproc           =       16
    time left       =     -1s



           Memory information
           ------------------

    heap     =   13107196 doubles =    100.0 Mbytes
    stack    =   13107201 doubles =    100.0 Mbytes
    global   =   26214400 doubles =    200.0 Mbytes (distinct from heap & stack)
    total    =   52428797 doubles =    400.0 Mbytes
    verify   = yes
    hardfail = no 


           Directory information
           ---------------------

  0 permanent = .
  0 scratch   = .




                                NWChem Input Module
                                -------------------



 Scaling coordinates for geometry "geometry" by  1.889725989
 (inverse scale =  0.529177249)

 C3V symmetry detected

          ------
          auto-z
          ------
  Looking for out-of-plane bends


                             Geometry "geometry" -> ""
                             -------------------------

 Output coordinates in angstroms (scale by  1.889725989 to convert to a.u.)

  No.       Tag          Charge          X              Y              Z
 ---- ---------------- ---------- -------------- -------------- --------------
    1 S                   16.0000     0.00000000     0.00000000     0.10906895
    2 H                    1.0000     0.81766473     0.81766473    -0.58170105
    3 H                    1.0000     0.29928606    -1.11695079    -0.58170105
    4 H                    1.0000    -1.11695079     0.29928606    -0.58170105

      Atomic Mass 
      ----------- 

      S                 31.972070
      H                  1.007825


 Effective nuclear repulsion energy (a.u.)      19.6502191828

            Nuclear Dipole moment (a.u.) 
            ----------------------------
        X                 Y               Z
 ---------------- ---------------- ----------------
     0.0000000000    -0.0000000000     0.0000000000

      Symmetry information
      --------------------

 Group name             C3v       
 Group number             17
 Group order               6
 No. of unique centers     2

      Symmetry unique atoms

     1    2



                                Z-matrix (autoz)
                                -------- 

 Units are Angstrom for bonds and degrees for angles

      Type          Name      I     J     K     L     M      Value
      ----------- --------  ----- ----- ----- ----- ----- ----------
    1 Stretch                  1     2                       1.34696
    2 Stretch                  1     3                       1.34696
    3 Stretch                  1     4                       1.34696
    4 Bend                     2     1     3                96.05605
    5 Bend                     2     1     4                96.05605
    6 Bend                     3     1     4                96.05605
    7 Torsion                  2     1     3     4         -96.77349
    8 Torsion                  2     1     4     3          96.77349
    9 Torsion                  3     1     2     4          96.77349
   10 Torsion                  2     4     1     3         -96.77349
   11 Torsion                  3     2     1     4         -96.77349
   12 Torsion                  2     3     1     4          96.77349


            XYZ format geometry
            -------------------
     4
 geometry
 S                     0.00000000     0.00000000     0.10906895
 H                     0.81766473     0.81766473    -0.58170105
 H                     0.29928606    -1.11695079    -0.58170105
 H                    -1.11695079     0.29928606    -0.58170105

 ==============================================================================
                                internuclear distances
 ------------------------------------------------------------------------------
       center one      |      center two      | atomic units |  angstroms
 ------------------------------------------------------------------------------
    2 H                |   1 S                |     2.54539  |     1.34696
    3 H                |   1 S                |     2.54539  |     1.34696
    4 H                |   1 S                |     2.54539  |     1.34696
 ------------------------------------------------------------------------------
                         number of included internuclear distances:          3
 ==============================================================================



 ==============================================================================
                                 internuclear angles
 ------------------------------------------------------------------------------
        center 1       |       center 2       |       center 3       |  degrees
 ------------------------------------------------------------------------------
    2 H                |   1 S                |   3 H                |    96.06
    2 H                |   1 S                |   4 H                |    96.06
    3 H                |   1 S                |   4 H                |    96.06
 ------------------------------------------------------------------------------
                            number of included internuclear angles:          3
 ==============================================================================





 Summary of "ao basis" -> "" (cartesian)
 ------------------------------------------------------------------------------
       Tag                 Description            Shells   Functions and Types
 ---------------- ------------------------------  ------  ---------------------
 *                     6-311++G(3df,3pd)              on all atoms 



                                 NWChem DFT Module
                                 -----------------


                      Basis "ao basis" -> "ao basis" (cartesian)
                      -----
  S (Sulphur)
  -----------
            Exponent  Coefficients 
       -------------- ---------------------------------------------------------
  1 S  9.34134000E+04  0.000743
  1 S  1.39617000E+04  0.005793
  1 S  3.16991000E+03  0.029954
  1 S  9.02456000E+02  0.119028
  1 S  2.97158000E+02  0.368432
  1 S  1.08702000E+02  0.577299

  2 S  1.08702000E+02  0.143186
  2 S  4.31553000E+01  0.624465
  2 S  1.81079000E+01  0.283366

  3 S  5.56009000E+00  1.000000

  4 S  2.13183000E+00  1.000000

  5 S  4.20403000E-01  1.000000

  6 S  1.36045000E-01  1.000000

  7 P  4.95040000E+02  0.008309
  7 P  1.17221000E+02  0.064024
  7 P  3.77749000E+01  0.277614
  7 P  1.40584000E+01  0.745076

  8 P  5.56574000E+00  0.613712
  8 P  2.26297000E+00  0.443818

  9 P  8.07994000E-01  1.000000

 10 P  2.77460000E-01  1.000000

 11 P  7.71410000E-02  1.000000

 12 S  4.05000000E-02  1.000000

 13 P  4.05000000E-02  1.000000

 14 D  2.60000000E+00  1.000000

 15 D  6.50000000E-01  1.000000

 16 D  1.62500000E-01  1.000000

 17 F  5.50000000E-01  1.000000

  H (Hydrogen)
  ------------
            Exponent  Coefficients 
       -------------- ---------------------------------------------------------
  1 S  3.38650000E+01  0.025494
  1 S  5.09479000E+00  0.190373
  1 S  1.15879000E+00  0.852161

  2 S  3.25840000E-01  1.000000

  3 S  1.02741000E-01  1.000000

  4 S  3.60000000E-02  1.000000

  5 P  3.00000000E+00  1.000000

  6 P  7.50000000E-01  1.000000

  7 P  1.87500000E-01  1.000000

  8 D  1.00000000E+00  1.000000



 Summary of "ao basis" -> "ao basis" (cartesian)
 ------------------------------------------------------------------------------
       Tag                 Description            Shells   Functions and Types
 ---------------- ------------------------------  ------  ---------------------
 S                     6-311++G(3df,3pd)            17       53   7s6p3d1f
 H                     6-311++G(3df,3pd)             8       19   4s3p1d




 Summary of "ao basis" -> "ao basis" (cartesian)
 ------------------------------------------------------------------------------
       Tag                 Description            Shells   Functions and Types
 ---------------- ------------------------------  ------  ---------------------
 S                     6-311++G(3df,3pd)            17       53   7s6p3d1f
 H                     6-311++G(3df,3pd)             8       19   4s3p1d


      Symmetry analysis of basis
      --------------------------

        a1         36
        a2          6
        e          68

  Caching 1-el integrals 
  Rotation of axis 

            General Information
            -------------------
          SCF calculation type: DFT
          Wavefunction type:  closed shell.
          No. of atoms     :     4
          No. of electrons :    18
           Alpha electrons :     9
            Beta electrons :     9
          Charge           :     1
          Spin multiplicity:     1
          Use of symmetry is: on ; symmetry adaption is: on 
          Maximum number of iterations: ***
          AO basis - number of functions:   110
                     number of shells:    41
          Convergence on energy requested: 1.00D-06
          Convergence on density requested: 1.00D-05
          Convergence on gradient requested: 5.00D-04

              XC Information
              --------------
                  TPSS metaGGA Exchange Functional  1.000          
             TPSS03 metaGGA Correlation Functional  1.000          

             Grid Information
             ----------------
          Grid used for XC integration:  medium    
          Radial quadrature: Mura-Knowles        
          Angular quadrature: Lebedev. 
          Tag              B.-S. Rad. Rad. Pts. Rad. Cut. Ang. Pts.
          ---              ---------- --------- --------- ---------
          S                   1.00       88          11.0       590
          H                   0.35       45          11.0       434
          Grid pruning is: on 
          Number of quadrature shells:   133
          Spatial weights used:  Erf1

          Convergence Information
          -----------------------
          Convergence aids based upon iterative change in 
          total energy or number of iterations. 
          Levelshifting, if invoked, occurs when the 
          HOMO/LUMO gap drops below (HL_TOL): 1.00D-02
          DIIS, if invoked, will attempt to extrapolate 
          using up to (NFOCK): 10 stored Fock matrices.

                    Damping( 0%)  Levelshifting(0.5)       DIIS
                  --------------- ------------------- ---------------
          dE  on:    start            ASAP                start   
          dE off:    2 iters        *** iters           *** iters 


      Screening Tolerance Information
      -------------------------------
          Density screening/tol_rho: 1.00D-10
          AO Gaussian exp screening on grid/accAOfunc:  14
          CD Gaussian exp screening on grid/accCDfunc:  20
          XC Gaussian exp screening on grid/accXCfunc:  20
          Schwarz screening/accCoul: 1.00D-08


      Superposition of Atomic Density Guess
      -------------------------------------

 Sum of atomic energies:        -398.97970550

 Renormalizing density from      19.00 to     18

      Non-variational initial energy
      ------------------------------

 Total energy =    -385.814257
 1-e energy   =    -558.404202
 2-e energy   =     152.939726
 HOMO         =      -0.931884
 LUMO         =      -0.315911


      Symmetry analysis of molecular orbitals - initial
      -------------------------------------------------

  Numbering of irreducible representations: 

     1 a1          2 a2          3 e       

  Orbital symmetries:

     1 a1          2 a1          3 e           4 e           5 a1      
     6 a1          7 e           8 e           9 a1         10 e       
    11 e          12 a1         13 e          14 e          15 a1      
    16 a1         17 e          18 e          19 a1      

   Time after variat. SCF:      0.3
   Time prior to 1st pass:      0.3

 Integral file          = ./H3S+.xyz.aoints.00
 Record size in doubles =    65536    No. of integs per rec  =    43688
 Max. records in memory =        9    Max. records in file   = 11668030
 No. of bits per label  =        8    No. of bits per value  =       64


 #quartets = 1.153D+05 #integrals = 5.394D+06 #direct =  0.0% #cached =100.0%


File balance: exchanges=     0  moved=     0  time=   0.0


 Grid_pts file          = ./H3S+.xyz.gridpts.00
 Record size in doubles =  12289        No. of grid_pts per rec  =   3070
 Max. records in memory =      3        Max. recs in file   =  62224435


           Memory utilization after 1st SCF pass: 
           Heap Space remaining (MW):       12.48            12476540
          Stack Space remaining (MW):       13.11            13106484

   convergence    iter        energy       DeltaE   RMS-Dens  Diis-err    time
 ---------------- ----- ----------------- --------- --------- ---------  ------
 d= 0,ls=0.0,diis     1   -399.5095709144 -4.19D+02  2.45D-02  8.19D+00     0.6
 d= 0,ls=0.0,diis     2   -399.4559900690  5.36D-02  1.47D-02  4.19D+00     0.8
 d= 0,ls=0.0,diis     3   -399.7257255696 -2.70D-01  3.41D-03  1.37D-01     0.9
 d= 0,ls=0.0,diis     4   -399.7392867467 -1.36D-02  1.02D-03  9.09D-03     1.0
 d= 0,ls=0.0,diis     5   -399.7382910817  9.96D-04  3.34D-04  9.06D-04     1.1
  Resetting Diis
 d= 0,ls=0.0,diis     6   -399.7386814391 -3.90D-04  1.05D-04  6.53D-05     1.3
 d= 0,ls=0.0,diis     7   -399.7385568944  1.25D-04  1.05D-05  2.76D-07     1.4
 d= 0,ls=0.0,diis     8   -399.7385668380 -9.94D-06  4.19D-06  1.56D-07     1.5
 d= 0,ls=0.0,diis     9   -399.7385591444  7.69D-06  9.10D-07  4.83D-09     1.7
 d= 0,ls=0.0,diis    10   -399.7385595760 -4.32D-07  3.05D-07  8.37D-10     1.8


         Total DFT energy =     -399.738559575975
      One electron energy =     -583.718471935882
           Coulomb energy =      190.813020914853
          Exchange energy =      -25.767587545382
       Correlation energy =       -0.715740192319
 Nuclear repulsion energy =       19.650219182754

 Numeric. integr. density =       17.999990320142

     Total iterative time =      1.5s



                  Occupations of the irreducible representations
                  ----------------------------------------------

                     irrep           alpha         beta
                     --------     --------     --------
                     a1                5.0          5.0
                     a2                0.0          0.0
                     e                 4.0          4.0


                       DFT Final Molecular Orbital Analysis
                       ------------------------------------

 Vector    1  Occ=2.000000D+00  E=-8.878207D+01  Symmetry=a1
              MO Center= -1.6D-23,  1.8D-23,  1.1D-01, r^2= 3.6D-03
   Bfn.  Coefficient  Atom+Function         Bfn.  Coefficient  Atom+Function  
  ----- ------------  ---------------      ----- ------------  ---------------
     2      0.653604  1 S  s                  1      0.411319  1 S  s          

 Vector    2  Occ=2.000000D+00  E=-8.181021D+00  Symmetry=a1
              MO Center= -1.5D-15, -1.2D-15,  1.1D-01, r^2= 7.7D-02
   Bfn.  Coefficient  Atom+Function         Bfn.  Coefficient  Atom+Function  
  ----- ------------  ---------------      ----- ------------  ---------------
     4      0.597702  1 S  s                  3      0.503163  1 S  s          
     2     -0.318696  1 S  s          

 Vector    3  Occ=2.000000D+00  E=-6.161240D+00  Symmetry=e
              MO Center=  1.5D-05,  7.5D-06,  1.1D-01, r^2= 6.9D-02
   Bfn.  Coefficient  Atom+Function         Bfn.  Coefficient  Atom+Function  
  ----- ------------  ---------------      ----- ------------  ---------------
    11      0.573440  1 S  py                10      0.412007  1 S  px         
     8      0.305731  1 S  py                 7      0.219662  1 S  px         

 Vector    4  Occ=2.000000D+00  E=-6.161240D+00  Symmetry=e
              MO Center= -1.5D-05, -7.5D-06,  1.1D-01, r^2= 6.9D-02
   Bfn.  Coefficient  Atom+Function         Bfn.  Coefficient  Atom+Function  
  ----- ------------  ---------------      ----- ------------  ---------------
    10      0.573440  1 S  px                11     -0.412007  1 S  py         
     7      0.305731  1 S  px                 8     -0.219662  1 S  py         

 Vector    5  Occ=2.000000D+00  E=-6.156661D+00  Symmetry=a1
              MO Center=  9.6D-18, -4.0D-18,  1.1D-01, r^2= 6.9D-02
   Bfn.  Coefficient  Atom+Function         Bfn.  Coefficient  Atom+Function  
  ----- ------------  ---------------      ----- ------------  ---------------
    12      0.706114  1 S  pz                 9      0.376612  1 S  pz         

 Vector    6  Occ=2.000000D+00  E=-1.094265D+00  Symmetry=a1
              MO Center=  4.2D-16, -1.4D-16, -1.5D-01, r^2= 1.0D+00
   Bfn.  Coefficient  Atom+Function         Bfn.  Coefficient  Atom+Function  
  ----- ------------  ---------------      ----- ------------  ---------------
     6      0.667335  1 S  s                  5      0.646543  1 S  s          
     4     -0.386177  1 S  s                  3     -0.208253  1 S  s          

 Vector    7  Occ=2.000000D+00  E=-7.761379D-01  Symmetry=e
              MO Center= -1.8D-01,  1.6D-01, -2.2D-01, r^2= 1.4D+00
   Bfn.  Coefficient  Atom+Function         Bfn.  Coefficient  Atom+Function  
  ----- ------------  ---------------      ----- ------------  ---------------
    16      0.589998  1 S  px                13      0.198969  1 S  px         
    93     -0.184460  4 H  s                 10     -0.165995  1 S  px         

 Vector    8  Occ=2.000000D+00  E=-7.761379D-01  Symmetry=e
              MO Center=  1.8D-01, -1.6D-01, -2.2D-01, r^2= 1.4D+00
   Bfn.  Coefficient  Atom+Function         Bfn.  Coefficient  Atom+Function  
  ----- ------------  ---------------      ----- ------------  ---------------
    17      0.589998  1 S  py                14      0.198969  1 S  py         
    74     -0.181630  3 H  s                 11     -0.165995  1 S  py         

 Vector    9  Occ=2.000000D+00  E=-6.756756D-01  Symmetry=a1
              MO Center=  8.7D-18,  1.8D-16,  2.2D-01, r^2= 1.4D+00
   Bfn.  Coefficient  Atom+Function         Bfn.  Coefficient  Atom+Function  
  ----- ------------  ---------------      ----- ------------  ---------------
    18      0.742639  1 S  pz                 6      0.408850  1 S  s          
     5      0.243160  1 S  s                 15      0.207899  1 S  pz         
    12     -0.181904  1 S  pz                 4     -0.160405  1 S  s          
    21      0.153899  1 S  pz         

 Vector   10  Occ=0.000000D+00  E=-3.532526D-01  Symmetry=e
              MO Center=  3.2D-02, -5.5D-02, -6.5D-02, r^2= 2.3D+00
   Bfn.  Coefficient  Atom+Function         Bfn.  Coefficient  Atom+Function  
  ----- ------------  ---------------      ----- ------------  ---------------
    17      0.839824  1 S  py                75      0.481462  3 H  s          
    74      0.371050  3 H  s                 20      0.329238  1 S  py         
    56     -0.296606  2 H  s                 55     -0.228587  2 H  s          
    42      0.218411  1 S  dyz               39     -0.192198  1 S  dxy        
    36      0.190361  1 S  dyz               94     -0.184856  4 H  s          

 Vector   11  Occ=0.000000D+00  E=-3.532526D-01  Symmetry=e
              MO Center= -3.2D-02,  5.5D-02, -6.5D-02, r^2= 2.3D+00
   Bfn.  Coefficient  Atom+Function         Bfn.  Coefficient  Atom+Function  
  ----- ------------  ---------------      ----- ------------  ---------------
    16      0.839824  1 S  px                94      0.449218  4 H  s          
    56     -0.384699  2 H  s                 93      0.346200  4 H  s          
    19      0.329238  1 S  px                55     -0.296477  2 H  s          
    39     -0.249281  1 S  dxy               40      0.218411  1 S  dxz        
    34      0.190361  1 S  dxz               33     -0.180301  1 S  dxy        

 Vector   12  Occ=0.000000D+00  E=-2.915450D-01  Symmetry=a1
              MO Center= -8.4D-15,  9.0D-15, -4.6D-01, r^2= 3.8D+00
   Bfn.  Coefficient  Atom+Function         Bfn.  Coefficient  Atom+Function  
  ----- ------------  ---------------      ----- ------------  ---------------
     6      0.798554  1 S  s                  5      0.504843  1 S  s          
    18     -0.442826  1 S  pz                56     -0.403396  2 H  s          
    75     -0.403396  3 H  s                 94     -0.403396  4 H  s          
     4     -0.245735  1 S  s                 21     -0.229421  1 S  pz         
    55     -0.213293  2 H  s                 74     -0.213293  3 H  s          

 Vector   13  Occ=0.000000D+00  E=-1.995403D-01  Symmetry=e
              MO Center=  7.9D-02, -5.1D-02, -1.5D-01, r^2= 2.6D+00
   Bfn.  Coefficient  Atom+Function         Bfn.  Coefficient  Atom+Function  
  ----- ------------  ---------------      ----- ------------  ---------------
    40      0.684564  1 S  dxz               39      0.431599  1 S  dxy        
    38     -0.267619  1 S  dxx               41      0.267619  1 S  dyy        
    34      0.259068  1 S  dxz               33      0.191960  1 S  dxy        
    83     -0.157980  3 H  px         

 Vector   14  Occ=0.000000D+00  E=-1.995403D-01  Symmetry=e
              MO Center= -7.9D-02,  5.1D-02, -1.5D-01, r^2= 2.6D+00
   Bfn.  Coefficient  Atom+Function         Bfn.  Coefficient  Atom+Function  
  ----- ------------  ---------------      ----- ------------  ---------------
    42      0.684564  1 S  dyz               39      0.535237  1 S  dxy        
    36      0.259068  1 S  dyz               33      0.238054  1 S  dxy        
    38      0.215800  1 S  dxx               41     -0.215800  1 S  dyy        
   103     -0.171071  4 H  py         

 Vector   15  Occ=0.000000D+00  E=-1.969811D-01  Symmetry=a1
              MO Center= -4.9D-14,  1.1D-15, -4.8D-01, r^2= 3.0D+00
   Bfn.  Coefficient  Atom+Function         Bfn.  Coefficient  Atom+Function  
  ----- ------------  ---------------      ----- ------------  ---------------
    22      1.800968  1 S  s                 43      0.686836  1 S  dzz        
    56     -0.606635  2 H  s                 75     -0.606635  3 H  s          
    94     -0.606635  4 H  s                  6      0.565882  1 S  s          
    21     -0.455619  1 S  pz                25     -0.390301  1 S  pz         
    57     -0.276930  2 H  s                 76     -0.276930  3 H  s          

 Vector   16  Occ=0.000000D+00  E=-1.396385D-01  Symmetry=e
              MO Center=  2.5D-01, -7.0D-02, -5.2D-02, r^2= 8.6D+00
   Bfn.  Coefficient  Atom+Function         Bfn.  Coefficient  Atom+Function  
  ----- ------------  ---------------      ----- ------------  ---------------
    24      0.549620  1 S  py                76     -0.546021  3 H  s          
    57      0.542273  2 H  s                 42      0.251862  1 S  dyz        
    14     -0.177007  1 S  py                36      0.160506  1 S  dyz        

 Vector   17  Occ=0.000000D+00  E=-1.396385D-01  Symmetry=e
              MO Center= -2.5D-01,  7.0D-02, -5.2D-02, r^2= 8.6D+00
   Bfn.  Coefficient  Atom+Function         Bfn.  Coefficient  Atom+Function  
  ----- ------------  ---------------      ----- ------------  ---------------
    95      0.628327  4 H  s                 23     -0.549620  1 S  px         
    57     -0.317410  2 H  s                 76     -0.310917  3 H  s          
    40     -0.251862  1 S  dxz               13      0.177007  1 S  px         
    34     -0.160506  1 S  dxz        

 Vector   18  Occ=0.000000D+00  E=-1.179135D-01  Symmetry=a1
              MO Center=  2.4D-14,  2.4D-15,  1.3D+00, r^2= 7.8D+00
   Bfn.  Coefficient  Atom+Function         Bfn.  Coefficient  Atom+Function  
  ----- ------------  ---------------      ----- ------------  ---------------
    25      1.167230  1 S  pz                22      0.585983  1 S  s          
    21     -0.544050  1 S  pz                18     -0.331422  1 S  pz         
    56     -0.276604  2 H  s                 75     -0.276604  3 H  s          
    94     -0.276604  4 H  s                 43      0.225626  1 S  dzz        

 Vector   19  Occ=0.000000D+00  E=-7.560672D-02  Symmetry=a1
              MO Center=  1.7D-13, -2.0D-13, -1.2D+00, r^2= 1.4D+01
   Bfn.  Coefficient  Atom+Function         Bfn.  Coefficient  Atom+Function  
  ----- ------------  ---------------      ----- ------------  ---------------
    22      4.862616  1 S  s                 57     -1.983462  2 H  s          
    76     -1.983462  3 H  s                 95     -1.983462  4 H  s          
    25     -1.020729  1 S  pz                 6     -0.543619  1 S  s          
    56      0.328380  2 H  s                 75      0.328380  3 H  s          
    94      0.328380  4 H  s                  5     -0.314213  1 S  s          

 Vector   20  Occ=0.000000D+00  E=-4.392625D-02  Symmetry=e
              MO Center=  8.1D-02,  5.8D-01, -6.1D-01, r^2= 1.5D+01
   Bfn.  Coefficient  Atom+Function         Bfn.  Coefficient  Atom+Function  
  ----- ------------  ---------------      ----- ------------  ---------------
    57      5.626661  2 H  s                 95     -4.446973  4 H  s          
    23     -3.578270  1 S  px                24     -1.781409  1 S  py         
    19      1.261782  1 S  px                76     -1.179688  3 H  s          
    56     -0.891539  2 H  s                 94      0.704619  4 H  s          
    20      0.628167  1 S  py                16      0.440769  1 S  px         

 Vector   21  Occ=0.000000D+00  E=-4.392625D-02  Symmetry=e
              MO Center= -8.1D-02, -5.8D-01, -6.1D-01, r^2= 1.5D+01
   Bfn.  Coefficient  Atom+Function         Bfn.  Coefficient  Atom+Function  
  ----- ------------  ---------------      ----- ------------  ---------------
    76      5.816015  3 H  s                 95     -3.929647  4 H  s          
    24      3.578270  1 S  py                57     -1.886368  2 H  s          
    23     -1.781409  1 S  px                20     -1.261782  1 S  py         
    75     -0.921542  3 H  s                 19      0.628167  1 S  px         
    94      0.622649  4 H  s                 17     -0.440769  1 S  py         

 Vector   22  Occ=0.000000D+00  E= 1.101040D-03  Symmetry=a1
              MO Center=  1.7D-14,  7.8D-15, -8.4D-01, r^2= 9.7D+00
   Bfn.  Coefficient  Atom+Function         Bfn.  Coefficient  Atom+Function  
  ----- ------------  ---------------      ----- ------------  ---------------
    22     14.031446  1 S  s                 57     -3.339584  2 H  s          
    76     -3.339584  3 H  s                 95     -3.339584  4 H  s          
    56     -3.034219  2 H  s                 75     -3.034219  3 H  s          
    94     -3.034219  4 H  s                 25     -2.708682  1 S  pz         
    21     -2.160952  1 S  pz                 6      1.708611  1 S  s          

 Vector   23  Occ=0.000000D+00  E= 4.086108D-02  Symmetry=e
              MO Center=  5.5D-02,  4.5D-02,  1.4D-02, r^2= 1.0D+01
   Bfn.  Coefficient  Atom+Function         Bfn.  Coefficient  Atom+Function  
  ----- ------------  ---------------      ----- ------------  ---------------
    56      1.603342  2 H  s                 24     -1.153340  1 S  py         
    23     -1.045527  1 S  px                75     -0.869753  3 H  s          
    20      0.852679  1 S  py                19      0.772972  1 S  px         
    94     -0.733590  4 H  s                 39     -0.662634  1 S  dxy        
    57     -0.577056  2 H  s                 17     -0.532403  1 S  py         

 Vector   24  Occ=0.000000D+00  E= 4.086108D-02  Symmetry=e
              MO Center= -5.5D-02, -4.5D-02,  1.4D-02, r^2= 1.0D+01
   Bfn.  Coefficient  Atom+Function         Bfn.  Coefficient  Atom+Function  
  ----- ------------  ---------------      ----- ------------  ---------------
    94     -1.427842  4 H  s                 75      1.349228  3 H  s          
    23     -1.153340  1 S  px                24      1.045527  1 S  py         
    19      0.852679  1 S  px                20     -0.772972  1 S  py         
    16     -0.532403  1 S  px                95      0.513892  4 H  s          
    76     -0.485598  3 H  s                 17      0.482635  1 S  py         

 Vector   25  Occ=0.000000D+00  E= 6.973235D-02  Symmetry=a1
              MO Center=  1.2D-13,  1.3D-13,  1.4D+00, r^2= 9.5D+00
   Bfn.  Coefficient  Atom+Function         Bfn.  Coefficient  Atom+Function  
  ----- ------------  ---------------      ----- ------------  ---------------
    21      4.648510  1 S  pz                 6     -2.992864  1 S  s          
    25     -2.319051  1 S  pz                56      2.200134  2 H  s          
    75      2.200134  3 H  s                 94      2.200134  4 H  s          
    22     -1.271348  1 S  s                 84      0.467911  3 H  py         
   102      0.467911  4 H  px                43     -0.449095  1 S  dzz        

 Vector   26  Occ=0.000000D+00  E= 1.224221D-01  Symmetry=e
              MO Center= -8.8D-02, -4.9D-02, -1.9D-01, r^2= 7.9D+00
   Bfn.  Coefficient  Atom+Function         Bfn.  Coefficient  Atom+Function  
  ----- ------------  ---------------      ----- ------------  ---------------
    19      4.088642  1 S  px                95     -3.995926  4 H  s          
    94      3.954249  4 H  s                 76      3.398120  3 H  s          
    75     -3.362678  3 H  s                 23     -3.282022  1 S  px         
    20     -3.084189  1 S  py                24      2.475731  1 S  py         
    40     -1.536824  1 S  dxz               42      1.159274  1 S  dyz        

 Vector   27  Occ=0.000000D+00  E= 1.224221D-01  Symmetry=e
              MO Center=  8.8D-02,  4.9D-02, -1.9D-01, r^2= 7.9D+00
   Bfn.  Coefficient  Atom+Function         Bfn.  Coefficient  Atom+Function  
  ----- ------------  ---------------      ----- ------------  ---------------
    57      4.268955  2 H  s                 56     -4.224429  2 H  s          
    20      4.088642  1 S  py                24     -3.282022  1 S  py         
    19      3.084189  1 S  px                76     -2.652193  3 H  s          
    75      2.624530  3 H  s                 23     -2.475731  1 S  px         
    39      1.832122  1 S  dxy               95     -1.616762  4 H  s          

 Vector   28  Occ=0.000000D+00  E= 1.469055D-01  Symmetry=a2
              MO Center= -2.0D-15, -1.7D-15, -5.6D-01, r^2= 4.0D+00
   Bfn.  Coefficient  Atom+Function         Bfn.  Coefficient  Atom+Function  
  ----- ------------  ---------------      ----- ------------  ---------------
    83      0.871249  3 H  px               103     -0.871249  4 H  py         
    64     -0.637799  2 H  px                65      0.637799  2 H  py         
    84      0.233451  3 H  py               102     -0.233451  4 H  px         

 Vector   29  Occ=0.000000D+00  E= 1.675231D-01  Symmetry=e
              MO Center=  1.7D-02,  1.4D-02, -2.4D-01, r^2= 8.3D+00
   Bfn.  Coefficient  Atom+Function         Bfn.  Coefficient  Atom+Function  
  ----- ------------  ---------------      ----- ------------  ---------------
    94     -5.372542  4 H  s                 75      5.110836  3 H  s          
    95      4.314584  4 H  s                 76     -4.104413  3 H  s          
    19     -4.045434  1 S  px                20      3.710095  1 S  py         
    23      2.805435  1 S  px                24     -2.572884  1 S  py         
    40      0.997756  1 S  dxz              102     -0.983152  4 H  px         

 Vector   30  Occ=0.000000D+00  E= 1.675231D-01  Symmetry=e
              MO Center= -1.7D-02, -1.4D-02, -2.4D-01, r^2= 8.3D+00
   Bfn.  Coefficient  Atom+Function         Bfn.  Coefficient  Atom+Function  
  ----- ------------  ---------------      ----- ------------  ---------------
    56      6.052581  2 H  s                 57     -4.860710  2 H  s          
    20     -4.045434  1 S  py                19     -3.710095  1 S  px         
    75     -3.252935  3 H  s                 24      2.805435  1 S  py         
    94     -2.799646  4 H  s                 76      2.612369  3 H  s          
    23      2.572884  1 S  px                95      2.248342  4 H  s          

 Vector   31  Occ=0.000000D+00  E= 1.720704D-01  Symmetry=e
              MO Center= -4.5D-01, -4.8D-02, -2.5D-01, r^2= 4.4D+00
   Bfn.  Coefficient  Atom+Function         Bfn.  Coefficient  Atom+Function  
  ----- ------------  ---------------      ----- ------------  ---------------
    19      1.769119  1 S  px                94      1.584209  4 H  s          
    95     -1.509710  4 H  s                 23     -1.268710  1 S  px         
   104      1.199107  4 H  pz                75     -1.046911  3 H  s          
    76      0.997679  3 H  s                 38     -0.897927  1 S  dxx        
    41      0.897927  1 S  dyy               40      0.866783  1 S  dxz        

 Vector   32  Occ=0.000000D+00  E= 1.720704D-01  Symmetry=e
              MO Center=  4.5D-01,  4.8D-02, -2.5D-01, r^2= 4.4D+00
   Bfn.  Coefficient  Atom+Function         Bfn.  Coefficient  Atom+Function  
  ----- ------------  ---------------      ----- ------------  ---------------
    39      1.795855  1 S  dxy               20      1.769119  1 S  py         
    56     -1.519078  2 H  s                 57      1.447642  2 H  s          
    24     -1.268710  1 S  py                75      1.224852  3 H  s          
    76     -1.167253  3 H  s                 66     -1.149809  2 H  pz         
    85      0.927106  3 H  pz                42      0.866783  1 S  dyz        

 Vector   33  Occ=0.000000D+00  E= 1.965027D-01  Symmetry=a1
              MO Center= -9.6D-14,  1.8D-13, -6.6D-01, r^2= 8.5D+00
   Bfn.  Coefficient  Atom+Function         Bfn.  Coefficient  Atom+Function  
  ----- ------------  ---------------      ----- ------------  ---------------
    56      4.119099  2 H  s                 75      4.119099  3 H  s          
    94      4.119099  4 H  s                  6     -2.394973  1 S  s          
    21      2.259110  1 S  pz                38     -2.073043  1 S  dxx        
    41     -2.073043  1 S  dyy               43     -1.533334  1 S  dzz        
    18      0.765008  1 S  pz                57     -0.703506  2 H  s          

 Vector   34  Occ=0.000000D+00  E= 2.076327D-01  Symmetry=a1
              MO Center= -1.1D-13,  1.5D-14, -8.8D-01, r^2= 7.4D+00
   Bfn.  Coefficient  Atom+Function         Bfn.  Coefficient  Atom+Function  
  ----- ------------  ---------------      ----- ------------  ---------------
    22     15.260240  1 S  s                  6      4.923753  1 S  s          
    56     -4.326883  2 H  s                 75     -4.326883  3 H  s          
    94     -4.326883  4 H  s                 57     -3.239705  2 H  s          
    76     -3.239705  3 H  s                 95     -3.239705  4 H  s          
    25     -3.117793  1 S  pz                21     -2.022794  1 S  pz         

 Vector   35  Occ=0.000000D+00  E= 3.332670D-01  Symmetry=a1
              MO Center= -7.0D-15,  9.2D-15, -1.4D-01, r^2= 5.5D+00
   Bfn.  Coefficient  Atom+Function         Bfn.  Coefficient  Atom+Function  
  ----- ------------  ---------------      ----- ------------  ---------------
    21      4.612809  1 S  pz                22     -3.303949  1 S  s          
    43     -2.834245  1 S  dzz               56      2.175615  2 H  s          
    75      2.175615  3 H  s                 94      2.175615  4 H  s          
    66     -1.370491  2 H  pz                85     -1.370491  3 H  pz         
   104     -1.370491  4 H  pz                18      0.836730  1 S  pz         

 Vector   36  Occ=0.000000D+00  E= 3.477124D-01  Symmetry=e
              MO Center= -1.4D-01,  5.6D-03, -3.5D-01, r^2= 5.2D+00
   Bfn.  Coefficient  Atom+Function         Bfn.  Coefficient  Atom+Function  
  ----- ------------  ---------------      ----- ------------  ---------------
    19      2.188702  1 S  px                94     -1.780099  4 H  s          
    40     -1.645347  1 S  dxz               93      1.319302  4 H  s          
    83     -1.303019  3 H  px                64     -1.276722  2 H  px         
   102     -1.140445  4 H  px                75      1.061178  3 H  s          
    23     -0.894598  1 S  px                20     -0.854847  1 S  py         

 Vector   37  Occ=0.000000D+00  E= 3.477124D-01  Symmetry=e
              MO Center=  1.4D-01, -5.6D-03, -3.5D-01, r^2= 5.2D+00
   Bfn.  Coefficient  Atom+Function         Bfn.  Coefficient  Atom+Function  
  ----- ------------  ---------------      ----- ------------  ---------------
    20      2.188702  1 S  py                42     -1.645347  1 S  dyz        
    56      1.640412  2 H  s                 75     -1.442810  3 H  s          
   103     -1.339678  4 H  py                55     -1.215774  2 H  s          
    65     -1.203402  2 H  py                84     -1.177105  3 H  py         
    74      1.069323  3 H  s                 24     -0.894598  1 S  py         

 Vector   38  Occ=0.000000D+00  E= 5.106900D-01  Symmetry=a1
              MO Center= -9.9D-13,  2.8D-13, -7.3D-02, r^2= 6.2D+00
   Bfn.  Coefficient  Atom+Function         Bfn.  Coefficient  Atom+Function  
  ----- ------------  ---------------      ----- ------------  ---------------
     6     15.090332  1 S  s                 56     -6.118670  2 H  s          
    75     -6.118670  3 H  s                 94     -6.118670  4 H  s          
    21     -4.862562  1 S  pz                22      4.303526  1 S  s          
    18     -3.902410  1 S  pz                84     -2.261309  3 H  py         
   102     -2.261309  4 H  px                55     -1.773839  2 H  s          


 center of mass
 --------------
 x =   0.00000000 y =  -0.00000000 z =   0.09333203

 moments of inertia (a.u.)
 ------------------
          11.925461742349           0.000000000000          -0.000000000000
           0.000000000000          11.925461742349          -0.000000000000
          -0.000000000000          -0.000000000000          14.437253290199

     Multipole analysis of the density
     ---------------------------------

     L   x y z        total         alpha         beta         nuclear
     -   - - -        -----         -----         ----         -------
     0   0 0 0      1.000000     -9.000000     -9.000000     19.000000

     1   1 0 0      0.000000      0.000000      0.000000      0.000000
     1   0 1 0      0.000000      0.000000      0.000000     -0.000000
     1   0 0 1     -0.633349     -0.316675     -0.316675      0.000000

     2   2 0 0     -7.219237     -7.190908     -7.190908      7.162579
     2   1 1 0      0.000000      0.000000      0.000000      0.000000
     2   1 0 1      0.000000     -0.000000     -0.000000      0.000000
     2   0 2 0     -7.219237     -7.190908     -7.190908      7.162579
     2   0 1 1     -0.000000     -0.000000     -0.000000      0.000000
     2   0 0 2     -8.990700     -6.647747     -6.647747      4.304793


------------------------------------------------------------
EAF file 0: "./H3S+.xyz.aoints.00" size=524288 bytes
------------------------------------------------------------
               write      read    awrite     aread      wait
               -----      ----    ------     -----      ----
     calls:        1         9         0         0         0
   data(b): 5.24e+05  4.72e+06  0.00e+00  0.00e+00
   time(s): 0.00e+00  0.00e+00  0.00e+00  0.00e+00  0.00e+00
rate(mb/s): 0.00e+00  0.00e+00
------------------------------------------------------------


 Parallel integral file used     130 records with       0 large values


 Task  times  cpu:        1.7s     wall:        2.3s


                                NWChem Input Module
                                -------------------


 Summary of allocated global arrays
-----------------------------------
  No active global arrays



                         GA Statistics for process    0
                         ------------------------------

       create   destroy   get      put      acc     scatter   gather  read&inc
calls:  284      284     2218     1536      452        0        0      126     
number of processes/call 3.41e+00 1.83e+00 5.61e+00 0.00e+00 0.00e+00
bytes total:             3.29e+07 6.38e+06 1.55e+07 0.00e+00 0.00e+00 1.01e+03
bytes remote:            2.48e+07 2.54e+06 1.27e+07 0.00e+00 0.00e+00 0.00e+00
Max memory consumed for GA by this process: 808992 bytes

MA_summarize_allocated_blocks: starting scan ...
MA_summarize_allocated_blocks: scan completed: 0 heap blocks, 0 stack blocks
MA usage statistics:

	allocation statistics:
					      heap	     stack
					      ----	     -----
	current number of blocks	         0	         0
	maximum number of blocks	        24	        55
	current total bytes		         0	         0
	maximum total bytes		   5044992	  23750696
	maximum total K-bytes		      5045	     23751
	maximum total M-bytes		         6	        24


                                     CITATION
                                     --------
                Please cite the following reference when publishing
                           results obtained with NWChem:

                 M. Valiev, E.J. Bylaska, N. Govind, K. Kowalski,
              T.P. Straatsma, H.J.J. van Dam, D. Wang, J. Nieplocha,
                        E. Apra, T.L. Windus, W.A. de Jong
                 "NWChem: a comprehensive and scalable open-source
                  solution for large scale molecular simulations"
                      Comput. Phys. Commun. 181, 1477 (2010)
                           doi:10.1016/j.cpc.2010.04.018

                                      AUTHORS
                                      -------
          E. Apra, E. J. Bylaska, W. A. de Jong, N. Govind, K. Kowalski,
       T. P. Straatsma, M. Valiev, H. J. J. van Dam, D. Wang, T. L. Windus,
        J. Hammond, J. Autschbach, K. Bhaskaran-Nair, J. Brabec, K. Lopata,
       S. A. Fischer, S. Krishnamoorthy, W. Ma, M. Klemm, O. Villa, Y. Chen,
    V. Anisimov, F. Aquino, S. Hirata, M. T. Hackler, T. Risthaus, M. Malagoli,
       A. Marenich, A. Otero-de-la-Roza, J. Mullin, P. Nichols, R. Peverati,
     J. Pittner, Y. Zhao, P.-D. Fan, A. Fonari, M. Williamson, R. J. Harrison,
       J. R. Rehr, M. Dupuis, D. Silverstein, D. M. A. Smith, J. Nieplocha,
        V. Tipparaju, M. Krishnan, B. E. Van Kuiken, A. Vazquez-Mayagoitia,
        L. Jensen, M. Swart, Q. Wu, T. Van Voorhis, A. A. Auer, M. Nooijen,
      L. D. Crosby, E. Brown, G. Cisneros, G. I. Fann, H. Fruchtl, J. Garza,
        K. Hirao, R. A. Kendall, J. A. Nichols, K. Tsemekhman, K. Wolinski,
     J. Anchell, D. E. Bernholdt, P. Borowski, T. Clark, D. Clerc, H. Dachsel,
   M. J. O. Deegan, K. Dyall, D. Elwood, E. Glendening, M. Gutowski, A. C. Hess,
         J. Jaffe, B. G. Johnson, J. Ju, R. Kobayashi, R. Kutteh, Z. Lin,
   R. Littlefield, X. Long, B. Meng, T. Nakajima, S. Niu, L. Pollack, M. Rosing,
   K. Glaesemann, G. Sandrone, M. Stave, H. Taylor, G. Thomas, J. H. van Lenthe,
                               A. T. Wong, Z. Zhang.

 Total times  cpu:        1.7s     wall:        2.5s
