[1537784493.184363] [r8n4:11655:0]         sys.c:744  MXM  WARN  Conflicting CPU frequencies detected, using: 2499.99
[1537784493.185234] [r8n4:11657:0]         sys.c:744  MXM  WARN  Conflicting CPU frequencies detected, using: 2499.99
[1537784493.185687] [r8n4:11656:0]         sys.c:744  MXM  WARN  Conflicting CPU frequencies detected, using: 2499.99
[1537784493.186334] [r8n4:11654:0]         sys.c:744  MXM  WARN  Conflicting CPU frequencies detected, using: 2532.96
[1537784493.187135] [r8n4:11658:0]         sys.c:744  MXM  WARN  Conflicting CPU frequencies detected, using: 2563.15
[1537784493.187363] [r8n4:11659:0]         sys.c:744  MXM  WARN  Conflicting CPU frequencies detected, using: 2563.15
[1537784493.188498] [r8n4:11660:0]         sys.c:744  MXM  WARN  Conflicting CPU frequencies detected, using: 2593.25
[1537784493.365266] [r8n4:11678:0]         sys.c:744  MXM  WARN  Conflicting CPU frequencies detected, using: 2799.98
[1537784493.386466] [r8n4:11672:0]         sys.c:744  MXM  WARN  Conflicting CPU frequencies detected, using: 2799.98
[1537784493.427442] [r8n4:11670:0]         sys.c:744  MXM  WARN  Conflicting CPU frequencies detected, using: 2799.98
[1537784493.526657] [r8n4:11676:0]         sys.c:744  MXM  WARN  Conflicting CPU frequencies detected, using: 2799.98
[1537784493.527616] [r8n4:11668:0]         sys.c:744  MXM  WARN  Conflicting CPU frequencies detected, using: 2799.98
[1537784493.532488] [r8n4:11674:0]         sys.c:744  MXM  WARN  Conflicting CPU frequencies detected, using: 2799.98
[1537784493.534937] [r8n4:11661:0]         sys.c:744  MXM  WARN  Conflicting CPU frequencies detected, using: 2799.98
[1537784493.545241] [r8n4:11666:0]         sys.c:744  MXM  WARN  Conflicting CPU frequencies detected, using: 2799.98
[1537784493.549640] [r8n4:11663:0]         sys.c:744  MXM  WARN  Conflicting CPU frequencies detected, using: 2799.98
 argument  1 = /storage/home/bikashp/nwchem_run/rabeet/pa8/nwpa8/H2S.xyz.nw
                                         
                                         


              Northwest Computational Chemistry Package (NWChem) 6.6
              ------------------------------------------------------


                    Environmental Molecular Sciences Laboratory
                       Pacific Northwest National Laboratory
                                Richland, WA 99352

                              Copyright (c) 1994-2015
                       Pacific Northwest National Laboratory
                            Battelle Memorial Institute

             NWChem is an open-source computational chemistry package
                        distributed under the terms of the
                      Educational Community License (ECL) 2.0
             A copy of the license is included with this distribution
                              in the LICENSE.TXT file

                                  ACKNOWLEDGMENT
                                  --------------

            This software and its documentation were developed at the
            EMSL at Pacific Northwest National Laboratory, a multiprogram
            national laboratory, operated for the U.S. Department of Energy
            by Battelle under Contract Number DE-AC05-76RL01830. Support
            for this work was provided by the Department of Energy Office
            of Biological and Environmental Research, Office of Basic
            Energy Sciences, and the Office of Advanced Scientific Computing.


           Job information
           ---------------

    hostname        = r8n4.niserhpc.org
    program         = /home/bikashp/Code/nwchem-6.6_tpssloc/bin/LINUX64/nwchem
    date            = Mon Sep 24 15:51:36 2018

    compiled        = Tue_Sep_18_16:24:59_2018
    source          = /home/bikashp/Code/nwchem-6.6_tpssloc
    nwchem branch   = 6.6
    nwchem revision = 27746
    ga revision     = 10594
    input           = /storage/home/bikashp/nwchem_run/rabeet/pa8/nwpa8/H2S.xyz.nw
    prefix          = H2S.xyz.
    data base       = ./H2S.xyz.db
    status          = startup
    nproc           =       16
    time left       =     -1s



           Memory information
           ------------------

    heap     =   13107196 doubles =    100.0 Mbytes
    stack    =   13107201 doubles =    100.0 Mbytes
    global   =   26214400 doubles =    200.0 Mbytes (distinct from heap & stack)
    total    =   52428797 doubles =    400.0 Mbytes
    verify   = yes
    hardfail = no 


           Directory information
           ---------------------

  0 permanent = .
  0 scratch   = .




                                NWChem Input Module
                                -------------------



 Scaling coordinates for geometry "geometry" by  1.889725989
 (inverse scale =  0.529177249)

 C2V symmetry detected

          ------
          auto-z
          ------


                             Geometry "geometry" -> ""
                             -------------------------

 Output coordinates in angstroms (scale by  1.889725989 to convert to a.u.)

  No.       Tag          Charge          X              Y              Z
 ---- ---------------- ---------- -------------- -------------- --------------
    1 S                   16.0000     0.00000000     0.00000000     0.10213556
    2 H                    1.0000    -0.97427000     0.00000000    -0.81708444
    3 H                    1.0000     0.97427000     0.00000000    -0.81708444

      Atomic Mass 
      ----------- 

      S                 31.972070
      H                  1.007825


 Effective nuclear repulsion energy (a.u.)      12.9136889622

            Nuclear Dipole moment (a.u.) 
            ----------------------------
        X                 Y               Z
 ---------------- ---------------- ----------------
     0.0000000000     0.0000000000     0.0000000000

      Symmetry information
      --------------------

 Group name             C2v       
 Group number             16
 Group order               4
 No. of unique centers     2

      Symmetry unique atoms

     1    2



                                Z-matrix (autoz)
                                -------- 

 Units are Angstrom for bonds and degrees for angles

      Type          Name      I     J     K     L     M      Value
      ----------- --------  ----- ----- ----- ----- ----- ----------
    1 Stretch                  1     2                       1.33947
    2 Stretch                  1     3                       1.33947
    3 Bend                     2     1     3                93.33062


            XYZ format geometry
            -------------------
     3
 geometry
 S                     0.00000000     0.00000000     0.10213556
 H                    -0.97427000     0.00000000    -0.81708444
 H                     0.97427000     0.00000000    -0.81708444

 ==============================================================================
                                internuclear distances
 ------------------------------------------------------------------------------
       center one      |      center two      | atomic units |  angstroms
 ------------------------------------------------------------------------------
    2 H                |   1 S                |     2.53122  |     1.33947
    3 H                |   1 S                |     2.53122  |     1.33947
 ------------------------------------------------------------------------------
                         number of included internuclear distances:          2
 ==============================================================================



 ==============================================================================
                                 internuclear angles
 ------------------------------------------------------------------------------
        center 1       |       center 2       |       center 3       |  degrees
 ------------------------------------------------------------------------------
    2 H                |   1 S                |   3 H                |    93.33
 ------------------------------------------------------------------------------
                            number of included internuclear angles:          1
 ==============================================================================





 Summary of "ao basis" -> "" (cartesian)
 ------------------------------------------------------------------------------
       Tag                 Description            Shells   Functions and Types
 ---------------- ------------------------------  ------  ---------------------
 *                     6-311++G(3df,3pd)              on all atoms 



                                 NWChem DFT Module
                                 -----------------


                      Basis "ao basis" -> "ao basis" (cartesian)
                      -----
  S (Sulphur)
  -----------
            Exponent  Coefficients 
       -------------- ---------------------------------------------------------
  1 S  9.34134000E+04  0.000743
  1 S  1.39617000E+04  0.005793
  1 S  3.16991000E+03  0.029954
  1 S  9.02456000E+02  0.119028
  1 S  2.97158000E+02  0.368432
  1 S  1.08702000E+02  0.577299

  2 S  1.08702000E+02  0.143186
  2 S  4.31553000E+01  0.624465
  2 S  1.81079000E+01  0.283366

  3 S  5.56009000E+00  1.000000

  4 S  2.13183000E+00  1.000000

  5 S  4.20403000E-01  1.000000

  6 S  1.36045000E-01  1.000000

  7 P  4.95040000E+02  0.008309
  7 P  1.17221000E+02  0.064024
  7 P  3.77749000E+01  0.277614
  7 P  1.40584000E+01  0.745076

  8 P  5.56574000E+00  0.613712
  8 P  2.26297000E+00  0.443818

  9 P  8.07994000E-01  1.000000

 10 P  2.77460000E-01  1.000000

 11 P  7.71410000E-02  1.000000

 12 S  4.05000000E-02  1.000000

 13 P  4.05000000E-02  1.000000

 14 D  2.60000000E+00  1.000000

 15 D  6.50000000E-01  1.000000

 16 D  1.62500000E-01  1.000000

 17 F  5.50000000E-01  1.000000

  H (Hydrogen)
  ------------
            Exponent  Coefficients 
       -------------- ---------------------------------------------------------
  1 S  3.38650000E+01  0.025494
  1 S  5.09479000E+00  0.190373
  1 S  1.15879000E+00  0.852161

  2 S  3.25840000E-01  1.000000

  3 S  1.02741000E-01  1.000000

  4 S  3.60000000E-02  1.000000

  5 P  3.00000000E+00  1.000000

  6 P  7.50000000E-01  1.000000

  7 P  1.87500000E-01  1.000000

  8 D  1.00000000E+00  1.000000



 Summary of "ao basis" -> "ao basis" (cartesian)
 ------------------------------------------------------------------------------
       Tag                 Description            Shells   Functions and Types
 ---------------- ------------------------------  ------  ---------------------
 S                     6-311++G(3df,3pd)            17       53   7s6p3d1f
 H                     6-311++G(3df,3pd)             8       19   4s3p1d




 Summary of "ao basis" -> "ao basis" (cartesian)
 ------------------------------------------------------------------------------
       Tag                 Description            Shells   Functions and Types
 ---------------- ------------------------------  ------  ---------------------
 S                     6-311++G(3df,3pd)            17       53   7s6p3d1f
 H                     6-311++G(3df,3pd)             8       19   4s3p1d


      Symmetry analysis of basis
      --------------------------

        a1         39
        a2          9
        b1         26
        b2         17

  Caching 1-el integrals 

            General Information
            -------------------
          SCF calculation type: DFT
          Wavefunction type:  closed shell.
          No. of atoms     :     3
          No. of electrons :    18
           Alpha electrons :     9
            Beta electrons :     9
          Charge           :     0
          Spin multiplicity:     1
          Use of symmetry is: on ; symmetry adaption is: on 
          Maximum number of iterations: ***
          AO basis - number of functions:    91
                     number of shells:    33
          Convergence on energy requested: 1.00D-06
          Convergence on density requested: 1.00D-05
          Convergence on gradient requested: 5.00D-04

              XC Information
              --------------
                  TPSS metaGGA Exchange Functional  1.000          
             TPSS03 metaGGA Correlation Functional  1.000          

             Grid Information
             ----------------
          Grid used for XC integration:  medium    
          Radial quadrature: Mura-Knowles        
          Angular quadrature: Lebedev. 
          Tag              B.-S. Rad. Rad. Pts. Rad. Cut. Ang. Pts.
          ---              ---------- --------- --------- ---------
          S                   1.00       88          11.0       590
          H                   0.35       45          11.0       434
          Grid pruning is: on 
          Number of quadrature shells:   133
          Spatial weights used:  Erf1

          Convergence Information
          -----------------------
          Convergence aids based upon iterative change in 
          total energy or number of iterations. 
          Levelshifting, if invoked, occurs when the 
          HOMO/LUMO gap drops below (HL_TOL): 1.00D-02
          DIIS, if invoked, will attempt to extrapolate 
          using up to (NFOCK): 10 stored Fock matrices.

                    Damping( 0%)  Levelshifting(0.5)       DIIS
                  --------------- ------------------- ---------------
          dE  on:    start            ASAP                start   
          dE off:    2 iters        *** iters           *** iters 


      Screening Tolerance Information
      -------------------------------
          Density screening/tol_rho: 1.00D-10
          AO Gaussian exp screening on grid/accAOfunc:  14
          CD Gaussian exp screening on grid/accCDfunc:  20
          XC Gaussian exp screening on grid/accXCfunc:  20
          Schwarz screening/accCoul: 1.00D-08


      Superposition of Atomic Density Guess
      -------------------------------------

 Sum of atomic energies:        -398.47988734

      Non-variational initial energy
      ------------------------------

 Total energy =    -398.642923
 1-e energy   =    -575.673457
 2-e energy   =     164.116845
 HOMO         =      -0.322797
 LUMO         =       0.027025


      Symmetry analysis of molecular orbitals - initial
      -------------------------------------------------

  Numbering of irreducible representations: 

     1 a1          2 a2          3 b1          4 b2      

  Orbital symmetries:

     1 a1          2 a1          3 b1          4 a1          5 b2      
     6 a1          7 b1          8 a1          9 b2         10 a1      
    11 b1         12 b1         13 a1         14 b2         15 b1      
    16 a1         17 a1         18 a1         19 a2      

   Time after variat. SCF:      0.5
   Time prior to 1st pass:      0.5

 Integral file          = ./H2S.xyz.aoints.00
 Record size in doubles =    65536    No. of integs per rec  =    43688
 Max. records in memory =        7    Max. records in file   = 11667946
 No. of bits per label  =        8    No. of bits per value  =       64


 #quartets = 1.003D+05 #integrals = 2.621D+06 #direct =  0.0% #cached =100.0%


File balance: exchanges=     0  moved=     0  time=   0.0


 Grid_pts file          = ./H2S.xyz.gridpts.00
 Record size in doubles =  12289        No. of grid_pts per rec  =   3070
 Max. records in memory =      3        Max. recs in file   =  62223989


           Memory utilization after 1st SCF pass: 
           Heap Space remaining (MW):       12.61            12607932
          Stack Space remaining (MW):       13.11            13106604

   convergence    iter        energy       DeltaE   RMS-Dens  Diis-err    time
 ---------------- ----- ----------------- --------- --------- ---------  ------
 d= 0,ls=0.0,diis     1   -399.4540995869 -4.12D+02  1.76D-02  8.63D-01     0.9
 d= 0,ls=0.0,diis     2   -399.4399647057  1.41D-02  6.58D-03  1.39D-01     1.0
 d= 0,ls=0.0,diis     3   -399.4492855933 -9.32D-03  3.01D-03  1.22D-01     1.1
 d= 0,ls=0.0,diis     4   -399.4596506475 -1.04D-02  2.10D-04  1.51D-04     1.2
 d= 0,ls=0.0,diis     5   -399.4594907757  1.60D-04  4.77D-05  1.42D-05     1.3
  Resetting Diis
 d= 0,ls=0.0,diis     6   -399.4595776467 -8.69D-05  2.34D-05  2.60D-06     1.4
 d= 0,ls=0.0,diis     7   -399.4595349641  4.27D-05  8.54D-06  7.89D-08     1.5
 d= 0,ls=0.0,diis     8   -399.4595464330 -1.15D-05  3.52D-06  1.04D-07     1.6
 d= 0,ls=0.0,diis     9   -399.4595425867  3.85D-06  6.74D-07  2.15D-09     1.8
 d= 0,ls=0.0,diis    10   -399.4595412509  1.34D-06  1.67D-07  2.71D-10     1.9
 d= 0,ls=0.0,diis    11   -399.4595415077 -2.57D-07  5.96D-08  7.32D-12     2.0


         Total DFT energy =     -399.459541507702
      One electron energy =     -576.069493553799
           Coulomb energy =      190.081204771188
          Exchange energy =      -25.669656607290
       Correlation energy =       -0.715285080036
 Nuclear repulsion energy =       12.913688962234

 Numeric. integr. density =       17.999993003178

     Total iterative time =      1.4s



                  Occupations of the irreducible representations
                  ----------------------------------------------

                     irrep           alpha         beta
                     --------     --------     --------
                     a1                5.0          5.0
                     a2                0.0          0.0
                     b1                2.0          2.0
                     b2                2.0          2.0


                       DFT Final Molecular Orbital Analysis
                       ------------------------------------

 Vector    1  Occ=2.000000D+00  E=-8.843422D+01  Symmetry=a1
              MO Center= -9.8D-19,  2.1D-26,  1.0D-01, r^2= 3.6D-03
   Bfn.  Coefficient  Atom+Function         Bfn.  Coefficient  Atom+Function  
  ----- ------------  ---------------      ----- ------------  ---------------
     2      0.653603  1 S  s                  1      0.411318  1 S  s          

 Vector    2  Occ=2.000000D+00  E=-7.834702D+00  Symmetry=a1
              MO Center= -3.4D-17, -5.7D-17,  1.0D-01, r^2= 7.7D-02
   Bfn.  Coefficient  Atom+Function         Bfn.  Coefficient  Atom+Function  
  ----- ------------  ---------------      ----- ------------  ---------------
     4      0.597570  1 S  s                  3      0.503043  1 S  s          
     2     -0.318682  1 S  s          

 Vector    3  Occ=2.000000D+00  E=-5.817403D+00  Symmetry=b1
              MO Center= -9.9D-15, -6.8D-18,  1.0D-01, r^2= 6.9D-02
   Bfn.  Coefficient  Atom+Function         Bfn.  Coefficient  Atom+Function  
  ----- ------------  ---------------      ----- ------------  ---------------
    10      0.706032  1 S  px                 7      0.376319  1 S  px         

 Vector    4  Occ=2.000000D+00  E=-5.814605D+00  Symmetry=a1
              MO Center=  9.9D-15,  8.4D-29,  1.0D-01, r^2= 6.9D-02
   Bfn.  Coefficient  Atom+Function         Bfn.  Coefficient  Atom+Function  
  ----- ------------  ---------------      ----- ------------  ---------------
    12      0.706016  1 S  pz                 9      0.376406  1 S  pz         

 Vector    5  Occ=2.000000D+00  E=-5.807867D+00  Symmetry=b2
              MO Center= -5.0D-18,  5.9D-17,  1.0D-01, r^2= 6.9D-02
   Bfn.  Coefficient  Atom+Function         Bfn.  Coefficient  Atom+Function  
  ----- ------------  ---------------      ----- ------------  ---------------
    11      0.706294  1 S  py                 8      0.376680  1 S  py         

 Vector    6  Occ=2.000000D+00  E=-7.442820D-01  Symmetry=a1
              MO Center= -1.4D-15,  6.4D-16, -2.1D-01, r^2= 1.0D+00
   Bfn.  Coefficient  Atom+Function         Bfn.  Coefficient  Atom+Function  
  ----- ------------  ---------------      ----- ------------  ---------------
     5      0.680279  1 S  s                  6      0.576939  1 S  s          
     4     -0.380114  1 S  s                  3     -0.206756  1 S  s          

 Vector    7  Occ=2.000000D+00  E=-4.655639D-01  Symmetry=b1
              MO Center=  7.5D-16, -1.2D-17, -3.6D-01, r^2= 1.5D+00
   Bfn.  Coefficient  Atom+Function         Bfn.  Coefficient  Atom+Function  
  ----- ------------  ---------------      ----- ------------  ---------------
    16      0.543188  1 S  px                55     -0.196612  2 H  s          
    74      0.196612  3 H  s                 13      0.184679  1 S  px         
    10     -0.157190  1 S  px         

 Vector    8  Occ=2.000000D+00  E=-3.930541D-01  Symmetry=a1
              MO Center=  1.4D-15, -1.3D-17,  1.4D-01, r^2= 1.6D+00
   Bfn.  Coefficient  Atom+Function         Bfn.  Coefficient  Atom+Function  
  ----- ------------  ---------------      ----- ------------  ---------------
    18      0.633739  1 S  pz                 6      0.478378  1 S  s          
     5      0.280399  1 S  s                 15      0.188590  1 S  pz         
    21      0.170495  1 S  pz                 4     -0.168093  1 S  s          
    12     -0.165920  1 S  pz         

 Vector    9  Occ=2.000000D+00  E=-2.951735D-01  Symmetry=b2
              MO Center=  3.3D-16,  1.0D-15,  2.6D-02, r^2= 1.6D+00
   Bfn.  Coefficient  Atom+Function         Bfn.  Coefficient  Atom+Function  
  ----- ------------  ---------------      ----- ------------  ---------------
    17      0.829937  1 S  py                20      0.273934  1 S  py         
    14      0.220695  1 S  py                11     -0.195453  1 S  py         

 Vector   10  Occ=0.000000D+00  E=-7.242391D-02  Symmetry=b1
              MO Center=  2.7D-16, -2.6D-17, -1.1D-01, r^2= 3.0D+00
   Bfn.  Coefficient  Atom+Function         Bfn.  Coefficient  Atom+Function  
  ----- ------------  ---------------      ----- ------------  ---------------
    16      0.813728  1 S  px                56      0.551841  2 H  s          
    75     -0.551841  3 H  s                 57      0.518667  2 H  s          
    76     -0.518667  3 H  s                 19      0.432068  1 S  px         
    40      0.352412  1 S  dxz               23      0.309792  1 S  px         
    55      0.257851  2 H  s                 74     -0.257851  3 H  s          

 Vector   11  Occ=0.000000D+00  E=-5.530883D-02  Symmetry=a1
              MO Center=  4.1D-15, -2.1D-15, -6.4D-01, r^2= 5.7D+00
   Bfn.  Coefficient  Atom+Function         Bfn.  Coefficient  Atom+Function  
  ----- ------------  ---------------      ----- ------------  ---------------
    22      0.931938  1 S  s                 57     -0.767009  2 H  s          
    76     -0.767009  3 H  s                  6      0.557897  1 S  s          
    18     -0.432181  1 S  pz                56     -0.370187  2 H  s          
    75     -0.370187  3 H  s                  5      0.356174  1 S  s          
    25     -0.334746  1 S  pz                21     -0.196376  1 S  pz         

 Vector   12  Occ=0.000000D+00  E= 2.828453D-02  Symmetry=a1
              MO Center=  3.8D-13, -4.5D-16, -5.5D-01, r^2= 5.8D+00
   Bfn.  Coefficient  Atom+Function         Bfn.  Coefficient  Atom+Function  
  ----- ------------  ---------------      ----- ------------  ---------------
    56      1.602512  2 H  s                 75      1.602512  3 H  s          
    22     -1.400927  1 S  s                 21      1.117739  1 S  pz         
     6     -0.983110  1 S  s                 18      0.637877  1 S  pz         
    41     -0.321746  1 S  dyy               43     -0.284744  1 S  dzz        
    55      0.209564  2 H  s                 74      0.209564  3 H  s          

 Vector   13  Occ=0.000000D+00  E= 3.093728D-02  Symmetry=b1
              MO Center= -3.6D-13, -5.6D-28, -6.0D-01, r^2= 1.2D+01
   Bfn.  Coefficient  Atom+Function         Bfn.  Coefficient  Atom+Function  
  ----- ------------  ---------------      ----- ------------  ---------------
    57      1.587461  2 H  s                 76     -1.587461  3 H  s          
    56     -0.526971  2 H  s                 75      0.526971  3 H  s          
    16     -0.221865  1 S  px                23     -0.219034  1 S  px         
    13      0.152197  1 S  px         

 Vector   14  Occ=0.000000D+00  E= 4.192350D-02  Symmetry=a1
              MO Center= -3.8D-15,  8.4D-17,  8.1D-01, r^2= 1.1D+01
   Bfn.  Coefficient  Atom+Function         Bfn.  Coefficient  Atom+Function  
  ----- ------------  ---------------      ----- ------------  ---------------
    25      1.402465  1 S  pz                21     -1.246800  1 S  pz         
    22      1.169808  1 S  s                 56     -0.608176  2 H  s          
    75     -0.608176  3 H  s                  6      0.364821  1 S  s          
    18     -0.255261  1 S  pz                64     -0.152555  2 H  px         
    83      0.152555  3 H  px         

 Vector   15  Occ=0.000000D+00  E= 4.916018D-02  Symmetry=b2
              MO Center= -7.3D-18,  6.4D-16,  3.2D-02, r^2= 1.2D+01
   Bfn.  Coefficient  Atom+Function         Bfn.  Coefficient  Atom+Function  
  ----- ------------  ---------------      ----- ------------  ---------------
    24      1.643544  1 S  py                20     -0.924738  1 S  py         
    14     -0.171855  1 S  py         

 Vector   16  Occ=0.000000D+00  E= 7.524302D-02  Symmetry=a1
              MO Center=  4.3D-14,  1.2D-16, -1.6D-01, r^2= 4.3D+00
   Bfn.  Coefficient  Atom+Function         Bfn.  Coefficient  Atom+Function  
  ----- ------------  ---------------      ----- ------------  ---------------
    56      0.793195  2 H  s                 75      0.793195  3 H  s          
    57     -0.593132  2 H  s                 76     -0.593132  3 H  s          
     6     -0.577897  1 S  s                 22      0.571991  1 S  s          
    18      0.539943  1 S  pz                21      0.542124  1 S  pz         
    38     -0.449086  1 S  dxx               43      0.323559  1 S  dzz        

 Vector   17  Occ=0.000000D+00  E= 8.696636D-02  Symmetry=a1
              MO Center= -9.6D-13,  3.1D-15, -8.5D-01, r^2= 1.5D+01
   Bfn.  Coefficient  Atom+Function         Bfn.  Coefficient  Atom+Function  
  ----- ------------  ---------------      ----- ------------  ---------------
    22      8.321358  1 S  s                 57     -4.014134  2 H  s          
    76     -4.014134  3 H  s                 25     -2.834748  1 S  pz         
     6     -0.439903  1 S  s                 21      0.426196  1 S  pz         
    43     -0.397462  1 S  dzz                5     -0.365975  1 S  s          
    38     -0.302696  1 S  dxx               41     -0.190266  1 S  dyy        

 Vector   18  Occ=0.000000D+00  E= 9.628088D-02  Symmetry=b1
              MO Center=  7.9D-13, -1.0D-14, -3.7D-01, r^2= 1.7D+01
   Bfn.  Coefficient  Atom+Function         Bfn.  Coefficient  Atom+Function  
  ----- ------------  ---------------      ----- ------------  ---------------
    57      5.810421  2 H  s                 76     -5.810421  3 H  s          
    23      4.853385  1 S  px                19     -2.527018  1 S  px         
    56     -1.780894  2 H  s                 75      1.780894  3 H  s          
    16     -0.579974  1 S  px                40      0.498276  1 S  dxz        
    55     -0.244005  2 H  s                 74      0.244005  3 H  s          

 Vector   19  Occ=0.000000D+00  E= 9.909963D-02  Symmetry=a2
              MO Center= -7.8D-15,  1.0D-14, -1.4D-01, r^2= 2.7D+00
   Bfn.  Coefficient  Atom+Function         Bfn.  Coefficient  Atom+Function  
  ----- ------------  ---------------      ----- ------------  ---------------
    39      1.136951  1 S  dxy               33      0.307086  1 S  dxy        
    65     -0.239854  2 H  py                84      0.239854  3 H  py         

 Vector   20  Occ=0.000000D+00  E= 1.096674D-01  Symmetry=b2
              MO Center=  7.8D-15, -2.1D-15,  3.9D-02, r^2= 2.9D+00
   Bfn.  Coefficient  Atom+Function         Bfn.  Coefficient  Atom+Function  
  ----- ------------  ---------------      ----- ------------  ---------------
    42      1.189270  1 S  dyz               17      0.302826  1 S  py         
    36      0.300581  1 S  dyz               65     -0.221003  2 H  py         
    84     -0.221003  3 H  py                24      0.182921  1 S  py         

 Vector   21  Occ=0.000000D+00  E= 2.339260D-01  Symmetry=b1
              MO Center=  8.9D-14, -4.0D-16, -1.0D-01, r^2= 8.9D+00
   Bfn.  Coefficient  Atom+Function         Bfn.  Coefficient  Atom+Function  
  ----- ------------  ---------------      ----- ------------  ---------------
    56      1.552115  2 H  s                 75     -1.552115  3 H  s          
    23      1.516168  1 S  px                19     -1.314953  1 S  px         
    16      1.190640  1 S  px                40     -0.709182  1 S  dxz        
    57     -0.388011  2 H  s                 76      0.388011  3 H  s          
    55     -0.366886  2 H  s                 74      0.366886  3 H  s          

 Vector   22  Occ=0.000000D+00  E= 2.462276D-01  Symmetry=a1
              MO Center= -2.9D-14, -1.6D-14, -2.4D-01, r^2= 7.5D+00
   Bfn.  Coefficient  Atom+Function         Bfn.  Coefficient  Atom+Function  
  ----- ------------  ---------------      ----- ------------  ---------------
    22      6.683043  1 S  s                 56     -4.584209  2 H  s          
    75     -4.584209  3 H  s                  6      3.816299  1 S  s          
    21     -3.145644  1 S  pz                57     -1.564681  2 H  s          
    76     -1.564681  3 H  s                 41     -1.206581  1 S  dyy        
    18     -1.123391  1 S  pz                25     -1.042681  1 S  pz         

 Vector   23  Occ=0.000000D+00  E= 2.554802D-01  Symmetry=a1
              MO Center= -2.0D-14, -9.1D-16,  9.7D-01, r^2= 8.2D+00
   Bfn.  Coefficient  Atom+Function         Bfn.  Coefficient  Atom+Function  
  ----- ------------  ---------------      ----- ------------  ---------------
    21      3.890624  1 S  pz                25     -2.918404  1 S  pz         
    22      2.377365  1 S  s                  6     -2.078771  1 S  s          
    57     -1.273001  2 H  s                 76     -1.273001  3 H  s          
    56      1.190061  2 H  s                 75      1.190061  3 H  s          
    18     -0.629561  1 S  pz                64      0.478205  2 H  px         

 Vector   24  Occ=0.000000D+00  E= 2.752277D-01  Symmetry=b2
              MO Center= -1.0D-16,  1.6D-14,  1.4D-01, r^2= 8.3D+00
   Bfn.  Coefficient  Atom+Function         Bfn.  Coefficient  Atom+Function  
  ----- ------------  ---------------      ----- ------------  ---------------
    20      2.988451  1 S  py                24     -1.936496  1 S  py         
    17     -1.747111  1 S  py                50      0.369284  1 S  fyyy       
    45      0.360244  1 S  fxxy              52      0.360199  1 S  fyzz       

 Vector   25  Occ=0.000000D+00  E= 3.242969D-01  Symmetry=b1
              MO Center=  7.8D-14, -9.2D-16, -3.4D-01, r^2= 9.5D+00
   Bfn.  Coefficient  Atom+Function         Bfn.  Coefficient  Atom+Function  
  ----- ------------  ---------------      ----- ------------  ---------------
    19      7.094704  1 S  px                56      6.200655  2 H  s          
    75     -6.200655  3 H  s                 23     -4.735108  1 S  px         
    57     -4.648212  2 H  s                 76      4.648212  3 H  s          
    40     -3.067048  1 S  dxz               64      0.751817  2 H  px         
    83      0.751817  3 H  px                16      0.722570  1 S  px         

 Vector   26  Occ=0.000000D+00  E= 3.580699D-01  Symmetry=a1
              MO Center= -2.9D-15,  1.8D-16, -5.9D-01, r^2= 5.0D+00
   Bfn.  Coefficient  Atom+Function         Bfn.  Coefficient  Atom+Function  
  ----- ------------  ---------------      ----- ------------  ---------------
    56      3.435733  2 H  s                 75      3.435733  3 H  s          
     6     -2.839513  1 S  s                 21      1.589718  1 S  pz         
    18      1.514882  1 S  pz                43     -1.285256  1 S  dzz        
    64      1.113112  2 H  px                83     -1.113112  3 H  px         
    41     -0.751835  1 S  dyy               55     -0.749911  2 H  s          

 Vector   27  Occ=0.000000D+00  E= 3.794850D-01  Symmetry=b1
              MO Center= -1.3D-14,  3.6D-17, -2.6D-01, r^2= 5.0D+00
   Bfn.  Coefficient  Atom+Function         Bfn.  Coefficient  Atom+Function  
  ----- ------------  ---------------      ----- ------------  ---------------
    19      2.925171  1 S  px                56      2.922504  2 H  s          
    75     -2.922504  3 H  s                 57     -1.902685  2 H  s          
    76      1.902685  3 H  s                 23     -1.711981  1 S  px         
    66      1.242600  2 H  pz                85     -1.242600  3 H  pz         
    16      1.067106  1 S  px                55     -0.470219  2 H  s          

 Vector   28  Occ=0.000000D+00  E= 3.968216D-01  Symmetry=a1
              MO Center=  1.7D-14, -1.1D-15, -5.4D-01, r^2= 7.5D+00
   Bfn.  Coefficient  Atom+Function         Bfn.  Coefficient  Atom+Function  
  ----- ------------  ---------------      ----- ------------  ---------------
    22      5.888461  1 S  s                 38     -2.830594  1 S  dxx        
    57     -2.655993  2 H  s                 76     -2.655993  3 H  s          
    56      2.156948  2 H  s                 75      2.156948  3 H  s          
    25     -1.959366  1 S  pz                21      1.903838  1 S  pz         
    41     -1.869150  1 S  dyy               43     -1.744859  1 S  dzz        

 Vector   29  Occ=0.000000D+00  E= 4.017109D-01  Symmetry=a2
              MO Center=  3.6D-15,  3.6D-15, -5.4D-01, r^2= 3.9D+00
   Bfn.  Coefficient  Atom+Function         Bfn.  Coefficient  Atom+Function  
  ----- ------------  ---------------      ----- ------------  ---------------
    39      2.107914  1 S  dxy               65      1.245070  2 H  py         
    84     -1.245070  3 H  py                33      0.182134  1 S  dxy        

 Vector   30  Occ=0.000000D+00  E= 4.404137D-01  Symmetry=b2
              MO Center= -3.5D-15,  1.1D-15, -5.6D-01, r^2= 4.2D+00
   Bfn.  Coefficient  Atom+Function         Bfn.  Coefficient  Atom+Function  
  ----- ------------  ---------------      ----- ------------  ---------------
    42      2.225877  1 S  dyz               20     -1.698266  1 S  py         
    65      1.453189  2 H  py                84      1.453189  3 H  py         
    17     -0.851624  1 S  py                24      0.468212  1 S  py         
    45      0.251735  1 S  fxxy              52      0.212761  1 S  fyzz       
    36      0.196465  1 S  dyz               50      0.188156  1 S  fyyy       

 Vector   31  Occ=0.000000D+00  E= 4.823719D-01  Symmetry=a1
              MO Center= -3.8D-15, -2.0D-16, -3.2D-01, r^2= 4.5D+00
   Bfn.  Coefficient  Atom+Function         Bfn.  Coefficient  Atom+Function  
  ----- ------------  ---------------      ----- ------------  ---------------
    43      2.513312  1 S  dzz               21     -2.181957  1 S  pz         
     6     -2.106061  1 S  s                 22     -1.857688  1 S  s          
    66      1.483610  2 H  pz                85      1.483610  3 H  pz         
    25      1.172041  1 S  pz                55     -0.781174  2 H  s          
    74     -0.781174  3 H  s                 57      0.667009  2 H  s          

 Vector   32  Occ=0.000000D+00  E= 4.864682D-01  Symmetry=b1
              MO Center=  1.5D-14, -2.4D-15, -7.4D-01, r^2= 4.2D+00
   Bfn.  Coefficient  Atom+Function         Bfn.  Coefficient  Atom+Function  
  ----- ------------  ---------------      ----- ------------  ---------------
    56      2.182036  2 H  s                 75     -2.182036  3 H  s          
    40      1.618426  1 S  dxz               64      1.436922  2 H  px         
    83      1.436922  3 H  px                55     -1.332578  2 H  s          
    74      1.332578  3 H  s                 57     -0.850196  2 H  s          
    76      0.850196  3 H  s                 19     -0.701650  1 S  px         

 Vector   33  Occ=0.000000D+00  E= 7.152373D-01  Symmetry=a1
              MO Center=  3.0D-15,  8.4D-16, -1.7D-01, r^2= 5.9D+00
   Bfn.  Coefficient  Atom+Function         Bfn.  Coefficient  Atom+Function  
  ----- ------------  ---------------      ----- ------------  ---------------
     6     12.149713  1 S  s                 56     -6.649007  2 H  s          
    75     -6.649007  3 H  s                 18     -4.986632  1 S  pz         
    21     -4.640439  1 S  pz                55     -2.462238  2 H  s          
    74     -2.462238  3 H  s                 64     -2.330789  2 H  px         
    83      2.330789  3 H  px                66     -2.123665  2 H  pz         


 center of mass
 --------------
 x =   0.00000000 y =   0.00000000 z =   0.08999062

 moments of inertia (a.u.)
 ------------------
           5.721375445453           0.000000000000           0.000000000000
           0.000000000000          12.553746656971           0.000000000000
           0.000000000000           0.000000000000           6.832371211517

     Multipole analysis of the density
     ---------------------------------

     L   x y z        total         alpha         beta         nuclear
     -   - - -        -----         -----         ----         -------
     0   0 0 0     -0.000000     -9.000000     -9.000000     18.000000

     1   1 0 0      0.000000      0.000000      0.000000      0.000000
     1   0 1 0      0.000000      0.000000      0.000000      0.000000
     1   0 0 1     -0.419733     -0.209866     -0.209866      0.000000

     2   2 0 0     -9.411701     -8.095512     -8.095512      6.779323
     2   1 1 0      0.000000      0.000000      0.000000      0.000000
     2   1 0 1     -0.000000     -0.000000     -0.000000      0.000000
     2   0 2 0    -12.704076     -6.352038     -6.352038      0.000000
     2   0 1 1     -0.000000     -0.000000     -0.000000      0.000000
     2   0 0 2    -10.401257     -7.882785     -7.882785      5.364313


 Parallel integral file used      69 records with       0 large values


 Task  times  cpu:        1.6s     wall:        2.5s


                                NWChem Input Module
                                -------------------


 Summary of allocated global arrays
-----------------------------------
  No active global arrays



                         GA Statistics for process    0
                         ------------------------------

       create   destroy   get      put      acc     scatter   gather  read&inc
calls:  303      303     2157     1499      289        0        0      101     
number of processes/call 2.74e+00 1.54e+00 7.18e+00 0.00e+00 0.00e+00
bytes total:             2.65e+07 5.95e+06 1.17e+07 0.00e+00 0.00e+00 8.08e+02
bytes remote:            1.78e+07 1.84e+06 9.16e+06 0.00e+00 0.00e+00 0.00e+00
Max memory consumed for GA by this process: 808992 bytes

MA_summarize_allocated_blocks: starting scan ...
MA_summarize_allocated_blocks: scan completed: 0 heap blocks, 0 stack blocks
MA usage statistics:

	allocation statistics:
					      heap	     stack
					      ----	     -----
	current number of blocks	         0	         0
	maximum number of blocks	        24	        55
	current total bytes		         0	         0
	maximum total bytes		   3993664	  23559848
	maximum total K-bytes		      3994	     23560
	maximum total M-bytes		         4	        24


                                     CITATION
                                     --------
                Please cite the following reference when publishing
                           results obtained with NWChem:

                 M. Valiev, E.J. Bylaska, N. Govind, K. Kowalski,
              T.P. Straatsma, H.J.J. van Dam, D. Wang, J. Nieplocha,
                        E. Apra, T.L. Windus, W.A. de Jong
                 "NWChem: a comprehensive and scalable open-source
                  solution for large scale molecular simulations"
                      Comput. Phys. Commun. 181, 1477 (2010)
                           doi:10.1016/j.cpc.2010.04.018

                                      AUTHORS
                                      -------
          E. Apra, E. J. Bylaska, W. A. de Jong, N. Govind, K. Kowalski,
       T. P. Straatsma, M. Valiev, H. J. J. van Dam, D. Wang, T. L. Windus,
        J. Hammond, J. Autschbach, K. Bhaskaran-Nair, J. Brabec, K. Lopata,
       S. A. Fischer, S. Krishnamoorthy, W. Ma, M. Klemm, O. Villa, Y. Chen,
    V. Anisimov, F. Aquino, S. Hirata, M. T. Hackler, T. Risthaus, M. Malagoli,
       A. Marenich, A. Otero-de-la-Roza, J. Mullin, P. Nichols, R. Peverati,
     J. Pittner, Y. Zhao, P.-D. Fan, A. Fonari, M. Williamson, R. J. Harrison,
       J. R. Rehr, M. Dupuis, D. Silverstein, D. M. A. Smith, J. Nieplocha,
        V. Tipparaju, M. Krishnan, B. E. Van Kuiken, A. Vazquez-Mayagoitia,
        L. Jensen, M. Swart, Q. Wu, T. Van Voorhis, A. A. Auer, M. Nooijen,
      L. D. Crosby, E. Brown, G. Cisneros, G. I. Fann, H. Fruchtl, J. Garza,
        K. Hirao, R. A. Kendall, J. A. Nichols, K. Tsemekhman, K. Wolinski,
     J. Anchell, D. E. Bernholdt, P. Borowski, T. Clark, D. Clerc, H. Dachsel,
   M. J. O. Deegan, K. Dyall, D. Elwood, E. Glendening, M. Gutowski, A. C. Hess,
         J. Jaffe, B. G. Johnson, J. Ju, R. Kobayashi, R. Kutteh, Z. Lin,
   R. Littlefield, X. Long, B. Meng, T. Nakajima, S. Niu, L. Pollack, M. Rosing,
   K. Glaesemann, G. Sandrone, M. Stave, H. Taylor, G. Thomas, J. H. van Lenthe,
                               A. T. Wong, Z. Zhang.

 Total times  cpu:        1.6s     wall:        2.6s
