[1537784480.829520] [r8n4:11314:0]         sys.c:744  MXM  WARN  Conflicting CPU frequencies detected, using: 2499.99
[1537784480.833610] [r8n4:11316:0]         sys.c:744  MXM  WARN  Conflicting CPU frequencies detected, using: 2499.99
[1537784480.835111] [r8n4:11315:0]         sys.c:744  MXM  WARN  Conflicting CPU frequencies detected, using: 2499.99
[1537784480.835896] [r8n4:11320:0]         sys.c:744  MXM  WARN  Conflicting CPU frequencies detected, using: 2499.99
[1537784480.836074] [r8n4:11322:0]         sys.c:744  MXM  WARN  Conflicting CPU frequencies detected, using: 2499.99
[1537784480.836175] [r8n4:11318:0]         sys.c:744  MXM  WARN  Conflicting CPU frequencies detected, using: 2499.99
[1537784480.836232] [r8n4:11319:0]         sys.c:744  MXM  WARN  Conflicting CPU frequencies detected, using: 2499.99
[1537784480.836297] [r8n4:11317:0]         sys.c:744  MXM  WARN  Conflicting CPU frequencies detected, using: 2499.99
[1537784480.836398] [r8n4:11326:0]         sys.c:744  MXM  WARN  Conflicting CPU frequencies detected, using: 2499.99
[1537784480.836463] [r8n4:11330:0]         sys.c:744  MXM  WARN  Conflicting CPU frequencies detected, using: 2499.99
[1537784480.836516] [r8n4:11324:0]         sys.c:744  MXM  WARN  Conflicting CPU frequencies detected, using: 2499.99
[1537784480.854699] [r8n4:11332:0]         sys.c:744  MXM  WARN  Conflicting CPU frequencies detected, using: 2499.99
[1537784480.855067] [r8n4:11328:0]         sys.c:744  MXM  WARN  Conflicting CPU frequencies detected, using: 2499.99
[1537784480.885607] [r8n4:11334:0]         sys.c:744  MXM  WARN  Conflicting CPU frequencies detected, using: 2499.99
[1537784480.885728] [r8n4:11341:0]         sys.c:744  MXM  WARN  Conflicting CPU frequencies detected, using: 2499.99
[1537784480.885732] [r8n4:11342:0]         sys.c:744  MXM  WARN  Conflicting CPU frequencies detected, using: 2499.99
 argument  1 = /storage/home/bikashp/nwchem_run/rabeet/pa8/nwpa8/H2Cl+.xyz.nw
                                         
                                         


              Northwest Computational Chemistry Package (NWChem) 6.6
              ------------------------------------------------------


                    Environmental Molecular Sciences Laboratory
                       Pacific Northwest National Laboratory
                                Richland, WA 99352

                              Copyright (c) 1994-2015
                       Pacific Northwest National Laboratory
                            Battelle Memorial Institute

             NWChem is an open-source computational chemistry package
                        distributed under the terms of the
                      Educational Community License (ECL) 2.0
             A copy of the license is included with this distribution
                              in the LICENSE.TXT file

                                  ACKNOWLEDGMENT
                                  --------------

            This software and its documentation were developed at the
            EMSL at Pacific Northwest National Laboratory, a multiprogram
            national laboratory, operated for the U.S. Department of Energy
            by Battelle under Contract Number DE-AC05-76RL01830. Support
            for this work was provided by the Department of Energy Office
            of Biological and Environmental Research, Office of Basic
            Energy Sciences, and the Office of Advanced Scientific Computing.


           Job information
           ---------------

    hostname        = r8n4.niserhpc.org
    program         = /home/bikashp/Code/nwchem-6.6_tpssloc/bin/LINUX64/nwchem
    date            = Mon Sep 24 15:51:23 2018

    compiled        = Tue_Sep_18_16:24:59_2018
    source          = /home/bikashp/Code/nwchem-6.6_tpssloc
    nwchem branch   = 6.6
    nwchem revision = 27746
    ga revision     = 10594
    input           = /storage/home/bikashp/nwchem_run/rabeet/pa8/nwpa8/H2Cl+.xyz.nw
    prefix          = H2Cl+.xyz.
    data base       = ./H2Cl+.xyz.db
    status          = startup
    nproc           =       16
    time left       =     -1s



           Memory information
           ------------------

    heap     =   13107196 doubles =    100.0 Mbytes
    stack    =   13107201 doubles =    100.0 Mbytes
    global   =   26214400 doubles =    200.0 Mbytes (distinct from heap & stack)
    total    =   52428797 doubles =    400.0 Mbytes
    verify   = yes
    hardfail = no 


           Directory information
           ---------------------

  0 permanent = .
  0 scratch   = .




                                NWChem Input Module
                                -------------------



 Scaling coordinates for geometry "geometry" by  1.889725989
 (inverse scale =  0.529177249)

 C2V symmetry detected

          ------
          auto-z
          ------


                             Geometry "geometry" -> ""
                             -------------------------

 Output coordinates in angstroms (scale by  1.889725989 to convert to a.u.)

  No.       Tag          Charge          X              Y              Z
 ---- ---------------- ---------- -------------- -------------- --------------
    1 Cl                  17.0000     0.00000000     0.00000000    -0.09115219
    2 H                    1.0000    -0.97252313     0.00000000     0.77479365
    3 H                    1.0000     0.97252313     0.00000000     0.77479365

      Atomic Mass 
      ----------- 

      Cl                34.968850
      H                  1.007825


 Effective nuclear repulsion energy (a.u.)      14.0889526096

            Nuclear Dipole moment (a.u.) 
            ----------------------------
        X                 Y               Z
 ---------------- ---------------- ----------------
     0.0000000000     0.0000000000     0.0000000000

      Symmetry information
      --------------------

 Group name             C2v       
 Group number             16
 Group order               4
 No. of unique centers     2

      Symmetry unique atoms

     1    2



                                Z-matrix (autoz)
                                -------- 

 Units are Angstrom for bonds and degrees for angles

      Type          Name      I     J     K     L     M      Value
      ----------- --------  ----- ----- ----- ----- ----- ----------
    1 Stretch                  1     2                       1.30218
    2 Stretch                  1     3                       1.30218
    3 Bend                     2     1     3                96.63552


            XYZ format geometry
            -------------------
     3
 geometry
 Cl                    0.00000000     0.00000000    -0.09115219
 H                    -0.97252313     0.00000000     0.77479365
 H                     0.97252313     0.00000000     0.77479365

 ==============================================================================
                                internuclear distances
 ------------------------------------------------------------------------------
       center one      |      center two      | atomic units |  angstroms
 ------------------------------------------------------------------------------
    2 H                |   1 Cl               |     2.46076  |     1.30218
    3 H                |   1 Cl               |     2.46076  |     1.30218
 ------------------------------------------------------------------------------
                         number of included internuclear distances:          2
 ==============================================================================



 ==============================================================================
                                 internuclear angles
 ------------------------------------------------------------------------------
        center 1       |       center 2       |       center 3       |  degrees
 ------------------------------------------------------------------------------
    2 H                |   1 Cl               |   3 H                |    96.64
 ------------------------------------------------------------------------------
                            number of included internuclear angles:          1
 ==============================================================================





 Summary of "ao basis" -> "" (cartesian)
 ------------------------------------------------------------------------------
       Tag                 Description            Shells   Functions and Types
 ---------------- ------------------------------  ------  ---------------------
 *                     6-311++G(3df,3pd)              on all atoms 



                                 NWChem DFT Module
                                 -----------------


                      Basis "ao basis" -> "ao basis" (cartesian)
                      -----
  Cl (Chlorine)
  -------------
            Exponent  Coefficients 
       -------------- ---------------------------------------------------------
  1 S  1.05819000E+05  0.000738
  1 S  1.58720000E+04  0.005718
  1 S  3.61965000E+03  0.029495
  1 S  1.03080000E+03  0.117286
  1 S  3.39908000E+02  0.362949
  1 S  1.24538000E+02  0.584149

  2 S  1.24538000E+02  0.134177
  2 S  4.95135000E+01  0.624250
  2 S  2.08056000E+01  0.291756

  3 S  6.58346000E+00  1.000000

  4 S  2.56468000E+00  1.000000

  5 S  5.59763000E-01  1.000000

  6 S  1.83273000E-01  1.000000

  7 P  5.89776000E+02  0.002391
  7 P  1.39849000E+02  0.018504
  7 P  4.51413000E+01  0.081377
  7 P  1.68733000E+01  0.221552
  7 P  6.74110000E+00  0.772569

  8 P  6.74110000E+00 -1.572244
  8 P  2.77152000E+00  0.992389

  9 P  1.02387000E+00  1.000000

 10 P  3.81368000E-01  1.000000

 11 P  1.09437000E-01  1.000000

 12 S  4.83000000E-02  1.000000

 13 P  4.83000000E-02  1.000000

 14 D  3.00000000E+00  1.000000

 15 D  7.50000000E-01  1.000000

 16 D  1.87500000E-01  1.000000

 17 F  7.00000000E-01  1.000000

  H (Hydrogen)
  ------------
            Exponent  Coefficients 
       -------------- ---------------------------------------------------------
  1 S  3.38650000E+01  0.025494
  1 S  5.09479000E+00  0.190373
  1 S  1.15879000E+00  0.852161

  2 S  3.25840000E-01  1.000000

  3 S  1.02741000E-01  1.000000

  4 S  3.60000000E-02  1.000000

  5 P  3.00000000E+00  1.000000

  6 P  7.50000000E-01  1.000000

  7 P  1.87500000E-01  1.000000

  8 D  1.00000000E+00  1.000000



 Summary of "ao basis" -> "ao basis" (cartesian)
 ------------------------------------------------------------------------------
       Tag                 Description            Shells   Functions and Types
 ---------------- ------------------------------  ------  ---------------------
 Cl                    6-311++G(3df,3pd)            17       53   7s6p3d1f
 H                     6-311++G(3df,3pd)             8       19   4s3p1d




 Summary of "ao basis" -> "ao basis" (cartesian)
 ------------------------------------------------------------------------------
       Tag                 Description            Shells   Functions and Types
 ---------------- ------------------------------  ------  ---------------------
 Cl                    6-311++G(3df,3pd)            17       53   7s6p3d1f
 H                     6-311++G(3df,3pd)             8       19   4s3p1d


      Symmetry analysis of basis
      --------------------------

        a1         39
        a2          9
        b1         26
        b2         17

  Caching 1-el integrals 

            General Information
            -------------------
          SCF calculation type: DFT
          Wavefunction type:  closed shell.
          No. of atoms     :     3
          No. of electrons :    18
           Alpha electrons :     9
            Beta electrons :     9
          Charge           :     1
          Spin multiplicity:     1
          Use of symmetry is: on ; symmetry adaption is: on 
          Maximum number of iterations: ***
          AO basis - number of functions:    91
                     number of shells:    33
          Convergence on energy requested: 1.00D-06
          Convergence on density requested: 1.00D-05
          Convergence on gradient requested: 5.00D-04

              XC Information
              --------------
                  TPSS metaGGA Exchange Functional  1.000          
             TPSS03 metaGGA Correlation Functional  1.000          

             Grid Information
             ----------------
          Grid used for XC integration:  medium    
          Radial quadrature: Mura-Knowles        
          Angular quadrature: Lebedev. 
          Tag              B.-S. Rad. Rad. Pts. Rad. Cut. Ang. Pts.
          ---              ---------- --------- --------- ---------
          Cl                  1.00       88          10.0       590
          H                   0.35       45          11.0       434
          Grid pruning is: on 
          Number of quadrature shells:   133
          Spatial weights used:  Erf1

          Convergence Information
          -----------------------
          Convergence aids based upon iterative change in 
          total energy or number of iterations. 
          Levelshifting, if invoked, occurs when the 
          HOMO/LUMO gap drops below (HL_TOL): 1.00D-02
          DIIS, if invoked, will attempt to extrapolate 
          using up to (NFOCK): 10 stored Fock matrices.

                    Damping( 0%)  Levelshifting(0.5)       DIIS
                  --------------- ------------------- ---------------
          dE  on:    start            ASAP                start   
          dE off:    2 iters        *** iters           *** iters 


      Screening Tolerance Information
      -------------------------------
          Density screening/tol_rho: 1.00D-10
          AO Gaussian exp screening on grid/accAOfunc:  14
          CD Gaussian exp screening on grid/accCDfunc:  20
          XC Gaussian exp screening on grid/accXCfunc:  20
          Schwarz screening/accCoul: 1.00D-08


      Superposition of Atomic Density Guess
      -------------------------------------

 Sum of atomic energies:        -460.47768407

 Renormalizing density from      19.00 to     18

      Non-variational initial energy
      ------------------------------

 Total energy =    -445.212748
 1-e energy   =    -628.593785
 2-e energy   =     169.292084
 HOMO         =      -1.036477
 LUMO         =      -0.345800


      Symmetry analysis of molecular orbitals - initial
      -------------------------------------------------

  Numbering of irreducible representations: 

     1 a1          2 a2          3 b1          4 b2      

  Orbital symmetries:

     1 a1          2 a1          3 b1          4 a1          5 b2      
     6 a1          7 b1          8 a1          9 b2         10 b1      
    11 a1         12 a1         13 b1         14 a1         15 b2      
    16 a1         17 a2         18 b2         19 a1      

   Time after variat. SCF:      0.5
   Time prior to 1st pass:      0.5

 Integral file          = ./H2Cl+.xyz.aoints.00
 Record size in doubles =    65536    No. of integs per rec  =    43688
 Max. records in memory =        7    Max. records in file   = 11668009
 No. of bits per label  =        8    No. of bits per value  =       64


 #quartets = 1.005D+05 #integrals = 2.649D+06 #direct =  0.0% #cached =100.0%


File balance: exchanges=     0  moved=     0  time=   0.0


 Grid_pts file          = ./H2Cl+.xyz.gridpts.00
 Record size in doubles =  12289        No. of grid_pts per rec  =   3070
 Max. records in memory =      3        Max. recs in file   =  62224323


           Memory utilization after 1st SCF pass: 
           Heap Space remaining (MW):       12.61            12607908
          Stack Space remaining (MW):       13.11            13106604

   convergence    iter        energy       DeltaE   RMS-Dens  Diis-err    time
 ---------------- ----- ----------------- --------- --------- ---------  ------
 d= 0,ls=0.0,diis     1   -460.8532082571 -4.75D+02  2.83D-02  7.20D+00     0.9
 d= 0,ls=0.0,diis     2   -460.7605082269  9.27D-02  1.79D-02  3.95D+00     1.0
 d= 0,ls=0.0,diis     3   -461.0822864824 -3.22D-01  4.83D-03  2.06D-01     1.1
 d= 0,ls=0.0,diis     4   -461.1002581637 -1.80D-02  1.44D-03  1.12D-02     1.2
 d= 0,ls=0.0,diis     5   -461.0988964224  1.36D-03  3.94D-04  1.66D-03     1.3
  Resetting Diis
 d= 0,ls=0.0,diis     6   -461.0993797663 -4.83D-04  7.47D-05  5.06D-05     1.4
 d= 0,ls=0.0,diis     7   -461.0993863659 -6.60D-06  8.29D-06  4.52D-07     1.5
 d= 0,ls=0.0,diis     8   -461.0993955339 -9.17D-06  4.93D-06  2.24D-07     1.6
 d= 0,ls=0.0,diis     9   -461.0993857263  9.81D-06  1.72D-06  3.21D-08     1.8
 d= 0,ls=0.0,diis    10   -461.0993866831 -9.57D-07  4.75D-07  1.91D-09     1.9


         Total DFT energy =     -461.099386683113
      One electron energy =     -656.735295921515
           Coulomb energy =      210.193802709966
          Exchange energy =      -27.904549633071
       Correlation energy =       -0.742296448073
 Nuclear repulsion energy =       14.088952609581

 Numeric. integr. density =       18.000001309483

     Total iterative time =      1.3s



                  Occupations of the irreducible representations
                  ----------------------------------------------

                     irrep           alpha         beta
                     --------     --------     --------
                     a1                5.0          5.0
                     a2                0.0          0.0
                     b1                2.0          2.0
                     b2                2.0          2.0


                       DFT Final Molecular Orbital Analysis
                       ------------------------------------

 Vector    1  Occ=2.000000D+00  E=-1.014780D+02  Symmetry=a1
              MO Center= -6.6D-20,  1.8D-25, -9.1D-02, r^2= 3.1D-03
   Bfn.  Coefficient  Atom+Function         Bfn.  Coefficient  Atom+Function  
  ----- ------------  ---------------      ----- ------------  ---------------
     2      0.653539  1 Cl s                  1      0.412006  1 Cl s          

 Vector    2  Occ=2.000000D+00  E=-9.730650D+00  Symmetry=a1
              MO Center=  1.5D-15,  1.7D-17, -8.9D-02, r^2= 6.6D-02
   Bfn.  Coefficient  Atom+Function         Bfn.  Coefficient  Atom+Function  
  ----- ------------  ---------------      ----- ------------  ---------------
     4      0.617461  1 Cl s                  3      0.479938  1 Cl s          
     2     -0.325321  1 Cl s          

 Vector    3  Occ=2.000000D+00  E=-7.512019D+00  Symmetry=b1
              MO Center= -1.5D-15,  2.4D-37, -9.1D-02, r^2= 5.8D-02
   Bfn.  Coefficient  Atom+Function         Bfn.  Coefficient  Atom+Function  
  ----- ------------  ---------------      ----- ------------  ---------------
     7      1.233394  1 Cl px                10      0.335085  1 Cl px         

 Vector    4  Occ=2.000000D+00  E=-7.508557D+00  Symmetry=a1
              MO Center=  2.1D-22,  2.6D-36, -9.3D-02, r^2= 5.8D-02
   Bfn.  Coefficient  Atom+Function         Bfn.  Coefficient  Atom+Function  
  ----- ------------  ---------------      ----- ------------  ---------------
     9      1.233510  1 Cl pz                12      0.335116  1 Cl pz         

 Vector    5  Occ=2.000000D+00  E=-7.500788D+00  Symmetry=b2
              MO Center= -4.6D-18, -3.9D-17, -9.1D-02, r^2= 5.8D-02
   Bfn.  Coefficient  Atom+Function         Bfn.  Coefficient  Atom+Function  
  ----- ------------  ---------------      ----- ------------  ---------------
     8      1.234007  1 Cl py                11      0.335264  1 Cl py         

 Vector    6  Occ=2.000000D+00  E=-1.227609D+00  Symmetry=a1
              MO Center= -1.1D-15, -8.5D-16,  1.3D-01, r^2= 8.3D-01
   Bfn.  Coefficient  Atom+Function         Bfn.  Coefficient  Atom+Function  
  ----- ------------  ---------------      ----- ------------  ---------------
     6      0.663577  1 Cl s                  5      0.547767  1 Cl s          
     4     -0.424388  1 Cl s                  3     -0.201246  1 Cl s          

 Vector    7  Occ=2.000000D+00  E=-8.707123D-01  Symmetry=b1
              MO Center= -1.5D-15,  2.2D-16,  2.5D-01, r^2= 1.2D+00
   Bfn.  Coefficient  Atom+Function         Bfn.  Coefficient  Atom+Function  
  ----- ------------  ---------------      ----- ------------  ---------------
    16      0.649203  1 Cl px                 7     -0.304691  1 Cl px         
    13      0.174346  1 Cl px                55     -0.167220  2 H  s          
    74      0.167220  3 H  s          

 Vector    8  Occ=2.000000D+00  E=-7.993010D-01  Symmetry=a1
              MO Center=  3.4D-15,  4.3D-16, -1.0D-01, r^2= 1.2D+00
   Bfn.  Coefficient  Atom+Function         Bfn.  Coefficient  Atom+Function  
  ----- ------------  ---------------      ----- ------------  ---------------
    18      0.755992  1 Cl pz                 6     -0.355853  1 Cl s          
     9     -0.321313  1 Cl pz                 5     -0.176970  1 Cl s          
    15      0.171306  1 Cl pz                21      0.158636  1 Cl pz         
     4      0.150780  1 Cl s          

 Vector    9  Occ=2.000000D+00  E=-7.053364D-01  Symmetry=b2
              MO Center= -5.1D-18,  3.9D-16, -3.3D-02, r^2= 1.1D+00
   Bfn.  Coefficient  Atom+Function         Bfn.  Coefficient  Atom+Function  
  ----- ------------  ---------------      ----- ------------  ---------------
    17      0.979216  1 Cl py                 8     -0.369066  1 Cl py         
    20      0.217792  1 Cl py                50     -0.183396  1 Cl fyyy       
    14      0.180920  1 Cl py                52     -0.160329  1 Cl fyzz       
    45     -0.152720  1 Cl fxxy       

 Vector   10  Occ=0.000000D+00  E=-3.915643D-01  Symmetry=b1
              MO Center= -1.6D-16,  1.5D-16,  2.1D-01, r^2= 2.0D+00
   Bfn.  Coefficient  Atom+Function         Bfn.  Coefficient  Atom+Function  
  ----- ------------  ---------------      ----- ------------  ---------------
    16      0.823841  1 Cl px                40     -0.357785  1 Cl dxz        
    56      0.354890  2 H  s                 75     -0.354890  3 H  s          
    55      0.323437  2 H  s                 74     -0.323437  3 H  s          
    34     -0.300195  1 Cl dxz               19      0.296320  1 Cl px         
     7     -0.219710  1 Cl px                49     -0.177927  1 Cl fxzz       

 Vector   11  Occ=0.000000D+00  E=-3.530576D-01  Symmetry=a1
              MO Center= -3.2D-16, -1.4D-16,  5.3D-01, r^2= 2.6D+00
   Bfn.  Coefficient  Atom+Function         Bfn.  Coefficient  Atom+Function  
  ----- ------------  ---------------      ----- ------------  ---------------
    18      0.604872  1 Cl pz                 6      0.583034  1 Cl s          
    56     -0.462040  2 H  s                 75     -0.462040  3 H  s          
     5      0.334083  1 Cl s                 55     -0.329955  2 H  s          
    74     -0.329955  3 H  s                 21      0.278180  1 Cl pz         
    22      0.222003  1 Cl s                  4     -0.202115  1 Cl s          

 Vector   12  Occ=0.000000D+00  E=-2.184441D-01  Symmetry=a1
              MO Center=  1.6D-15, -2.7D-15,  5.6D-01, r^2= 2.9D+00
   Bfn.  Coefficient  Atom+Function         Bfn.  Coefficient  Atom+Function  
  ----- ------------  ---------------      ----- ------------  ---------------
    22      0.705523  1 Cl s                 43      0.388227  1 Cl dzz        
    38     -0.340184  1 Cl dxx               56     -0.261383  2 H  s          
    75     -0.261383  3 H  s                 25      0.255847  1 Cl pz         
    32     -0.240571  1 Cl dxx               66      0.181581  2 H  pz         
    85      0.181581  3 H  pz         

 Vector   13  Occ=0.000000D+00  E=-1.808373D-01  Symmetry=a1
              MO Center= -1.6D-16, -1.0D-16, -2.1D-03, r^2= 4.1D+00
   Bfn.  Coefficient  Atom+Function         Bfn.  Coefficient  Atom+Function  
  ----- ------------  ---------------      ----- ------------  ---------------
    22      1.507712  1 Cl s                 56     -0.800019  2 H  s          
    75     -0.800019  3 H  s                 21      0.627314  1 Cl pz         
    41      0.442519  1 Cl dyy               18      0.343892  1 Cl pz         
     6      0.249740  1 Cl s                 43     -0.209708  1 Cl dzz        
    37     -0.203347  1 Cl dzz               64     -0.201589  2 H  px         

 Vector   14  Occ=0.000000D+00  E=-1.736209D-01  Symmetry=a2
              MO Center=  4.7D-14, -9.7D-16,  1.0D-01, r^2= 2.2D+00
   Bfn.  Coefficient  Atom+Function         Bfn.  Coefficient  Atom+Function  
  ----- ------------  ---------------      ----- ------------  ---------------
    39      1.057289  1 Cl dxy               33      0.459739  1 Cl dxy        
    65     -0.205940  2 H  py                84      0.205940  3 H  py         

 Vector   15  Occ=0.000000D+00  E=-1.632350D-01  Symmetry=b2
              MO Center= -4.6D-14,  2.1D-15,  2.2D-01, r^2= 2.6D+00
   Bfn.  Coefficient  Atom+Function         Bfn.  Coefficient  Atom+Function  
  ----- ------------  ---------------      ----- ------------  ---------------
    42      1.038161  1 Cl dyz               36      0.420663  1 Cl dyz        
    24      0.311404  1 Cl py                17     -0.230169  1 Cl py         
    20     -0.205163  1 Cl py                65      0.204815  2 H  py         
    84      0.204815  3 H  py         

 Vector   16  Occ=0.000000D+00  E=-1.493655D-01  Symmetry=b1
              MO Center=  1.9D-14,  1.6D-16,  1.9D-01, r^2= 7.9D+00
   Bfn.  Coefficient  Atom+Function         Bfn.  Coefficient  Atom+Function  
  ----- ------------  ---------------      ----- ------------  ---------------
    57      0.707907  2 H  s                 76     -0.707907  3 H  s          
    23     -0.458160  1 Cl px                40      0.206606  1 Cl dxz        
    34      0.196844  1 Cl dxz               13      0.152704  1 Cl px         
    19     -0.150851  1 Cl px         

 Vector   17  Occ=0.000000D+00  E=-1.220628D-01  Symmetry=a1
              MO Center=  5.8D-15,  9.6D-14, -9.4D-01, r^2= 6.8D+00
   Bfn.  Coefficient  Atom+Function         Bfn.  Coefficient  Atom+Function  
  ----- ------------  ---------------      ----- ------------  ---------------
    25      1.026557  1 Cl pz                22     -0.568608  1 Cl s          
    21     -0.240595  1 Cl pz                43     -0.208232  1 Cl dzz        
     6      0.178636  1 Cl s          

 Vector   18  Occ=0.000000D+00  E=-1.142440D-01  Symmetry=b2
              MO Center= -1.5D-15, -9.8D-14, -2.7D-01, r^2= 7.6D+00
   Bfn.  Coefficient  Atom+Function         Bfn.  Coefficient  Atom+Function  
  ----- ------------  ---------------      ----- ------------  ---------------
    24      1.135137  1 Cl py                42     -0.470312  1 Cl dyz        
    20     -0.274199  1 Cl py                36     -0.189022  1 Cl dyz        

 Vector   19  Occ=0.000000D+00  E=-6.667025D-02  Symmetry=a1
              MO Center= -1.5D-14,  1.4D-15,  1.4D+00, r^2= 1.3D+01
   Bfn.  Coefficient  Atom+Function         Bfn.  Coefficient  Atom+Function  
  ----- ------------  ---------------      ----- ------------  ---------------
    22      4.948573  1 Cl s                 57     -2.292364  2 H  s          
    76     -2.292364  3 H  s                 25      1.371209  1 Cl pz         
    56     -0.557308  2 H  s                 75     -0.557308  3 H  s          
     5     -0.238485  1 Cl s                 21      0.185332  1 Cl pz         
    55      0.175338  2 H  s                 74      0.175338  3 H  s          

 Vector   20  Occ=0.000000D+00  E=-4.059382D-02  Symmetry=b1
              MO Center= -1.3D-14,  8.5D-17,  1.1D+00, r^2= 1.4D+01
   Bfn.  Coefficient  Atom+Function         Bfn.  Coefficient  Atom+Function  
  ----- ------------  ---------------      ----- ------------  ---------------
    57      4.074054  2 H  s                 76     -4.074054  3 H  s          
    23      2.982612  1 Cl px                19     -0.769866  1 Cl px         
    55     -0.282221  2 H  s                 74      0.282221  3 H  s          
    16     -0.200841  1 Cl px                56     -0.167232  2 H  s          
    75      0.167232  3 H  s          

 Vector   21  Occ=0.000000D+00  E= 3.850838D-02  Symmetry=b1
              MO Center=  2.3D-13,  8.8D-16,  1.4D-01, r^2= 9.3D+00
   Bfn.  Coefficient  Atom+Function         Bfn.  Coefficient  Atom+Function  
  ----- ------------  ---------------      ----- ------------  ---------------
    56      3.289124  2 H  s                 75     -3.289124  3 H  s          
    40      1.516293  1 Cl dxz               57     -1.336833  2 H  s          
    76      1.336833  3 H  s                 19      1.271025  1 Cl px         
    23      0.736958  1 Cl px                16      0.532291  1 Cl px         
    34      0.387285  1 Cl dxz               64      0.245785  2 H  px         

 Vector   22  Occ=0.000000D+00  E= 4.852278D-02  Symmetry=a1
              MO Center= -1.0D-13, -3.2D-15,  4.8D-01, r^2= 6.9D+00
   Bfn.  Coefficient  Atom+Function         Bfn.  Coefficient  Atom+Function  
  ----- ------------  ---------------      ----- ------------  ---------------
    22      6.825478  1 Cl s                 56     -4.009593  2 H  s          
    75     -4.009593  3 H  s                 25      2.222078  1 Cl pz         
    21      1.602409  1 Cl pz                57     -1.254639  2 H  s          
    76     -1.254639  3 H  s                  6      1.237778  1 Cl s          
    38      1.002547  1 Cl dxx               43      0.623992  1 Cl dzz        

 Vector   23  Occ=0.000000D+00  E= 1.140477D-01  Symmetry=a1
              MO Center= -1.9D-13,  1.4D-14, -2.7D-01, r^2= 7.9D+00
   Bfn.  Coefficient  Atom+Function         Bfn.  Coefficient  Atom+Function  
  ----- ------------  ---------------      ----- ------------  ---------------
    56     -4.206861  2 H  s                 75     -4.206861  3 H  s          
    21      3.956900  1 Cl pz                 6      3.026173  1 Cl s          
    22      1.476669  1 Cl s                 43      1.175458  1 Cl dzz        
    64     -1.087289  2 H  px                83      1.087289  3 H  px         
    25     -0.740405  1 Cl pz                57      0.671458  2 H  s          

 Vector   24  Occ=0.000000D+00  E= 1.493580D-01  Symmetry=b2
              MO Center= -1.3D-15, -2.1D-14, -8.4D-02, r^2= 7.2D+00
   Bfn.  Coefficient  Atom+Function         Bfn.  Coefficient  Atom+Function  
  ----- ------------  ---------------      ----- ------------  ---------------
    20      2.161755  1 Cl py                17     -1.922898  1 Cl py         
    24     -1.579944  1 Cl py                45      0.474505  1 Cl fxxy       
    50      0.467970  1 Cl fyyy              52      0.464551  1 Cl fyzz       
    42     -0.368288  1 Cl dyz                8      0.238840  1 Cl py         
    65      0.231717  2 H  py                84      0.231717  3 H  py         

 Vector   25  Occ=0.000000D+00  E= 1.547920D-01  Symmetry=a1
              MO Center= -2.9D-13,  7.8D-15, -4.2D-02, r^2= 6.4D+00
   Bfn.  Coefficient  Atom+Function         Bfn.  Coefficient  Atom+Function  
  ----- ------------  ---------------      ----- ------------  ---------------
    56     -1.404152  2 H  s                 75     -1.404152  3 H  s          
    25      1.370128  1 Cl pz                21     -1.013189  1 Cl pz         
    18      0.988682  1 Cl pz                43      0.966303  1 Cl dzz        
    55      0.857383  2 H  s                 74      0.857383  3 H  s          
    41      0.798533  1 Cl dyy               64     -0.469499  2 H  px         

 Vector   26  Occ=0.000000D+00  E= 1.561774D-01  Symmetry=b1
              MO Center=  3.9D-13, -2.3D-15,  3.6D-01, r^2= 4.2D+00
   Bfn.  Coefficient  Atom+Function         Bfn.  Coefficient  Atom+Function  
  ----- ------------  ---------------      ----- ------------  ---------------
    56      1.444177  2 H  s                 75     -1.444177  3 H  s          
    19      1.087174  1 Cl px                66     -1.092147  2 H  pz         
    85      1.092147  3 H  pz                40     -0.571979  1 Cl dxz        
    16      0.542677  1 Cl px                55     -0.367498  2 H  s          
    74      0.367498  3 H  s                 64     -0.335552  2 H  px         

 Vector   27  Occ=0.000000D+00  E= 1.800888D-01  Symmetry=a2
              MO Center= -1.6D-14, -2.0D-14,  6.5D-01, r^2= 3.6D+00
   Bfn.  Coefficient  Atom+Function         Bfn.  Coefficient  Atom+Function  
  ----- ------------  ---------------      ----- ------------  ---------------
    39      1.832703  1 Cl dxy               65      1.190387  2 H  py         
    84     -1.190387  3 H  py                33      0.335066  1 Cl dxy        

 Vector   28  Occ=0.000000D+00  E= 1.936976D-01  Symmetry=b1
              MO Center= -7.1D-14,  2.3D-14,  6.6D-01, r^2= 1.0D+01
   Bfn.  Coefficient  Atom+Function         Bfn.  Coefficient  Atom+Function  
  ----- ------------  ---------------      ----- ------------  ---------------
    19      5.521366  1 Cl px                56      4.586684  2 H  s          
    75     -4.586684  3 H  s                 57     -4.012800  2 H  s          
    76      4.012800  3 H  s                 23     -3.503162  1 Cl px         
    40      1.159231  1 Cl dxz               64      0.904521  2 H  px         
    83      0.904521  3 H  px                66     -0.708572  2 H  pz         

 Vector   29  Occ=0.000000D+00  E= 2.040545D-01  Symmetry=a1
              MO Center=  4.4D-15, -1.0D-15,  7.1D-01, r^2= 6.7D+00
   Bfn.  Coefficient  Atom+Function         Bfn.  Coefficient  Atom+Function  
  ----- ------------  ---------------      ----- ------------  ---------------
    22      4.907030  1 Cl s                 38     -1.822940  1 Cl dxx        
    57     -1.664502  2 H  s                 76     -1.664502  3 H  s          
    41     -1.345746  1 Cl dyy               25      0.965533  1 Cl pz         
     6      0.907196  1 Cl s                 64     -0.750563  2 H  px         
    83      0.750563  3 H  px                21      0.637953  1 Cl pz         

 Vector   30  Occ=0.000000D+00  E= 2.193832D-01  Symmetry=b2
              MO Center=  1.7D-14,  4.7D-15,  5.5D-01, r^2= 4.0D+00
   Bfn.  Coefficient  Atom+Function         Bfn.  Coefficient  Atom+Function  
  ----- ------------  ---------------      ----- ------------  ---------------
    20      2.263487  1 Cl py                42      1.792398  1 Cl dyz        
    65     -1.374490  2 H  py                84     -1.374490  3 H  py         
    24     -0.435882  1 Cl py                36      0.303211  1 Cl dyz        
    17     -0.298720  1 Cl py         

 Vector   31  Occ=0.000000D+00  E= 2.586150D-01  Symmetry=a1
              MO Center=  1.8D-15,  5.9D-16,  5.4D-01, r^2= 4.9D+00
   Bfn.  Coefficient  Atom+Function         Bfn.  Coefficient  Atom+Function  
  ----- ------------  ---------------      ----- ------------  ---------------
    22      3.716521  1 Cl s                 21     -2.248095  1 Cl pz         
    43     -1.977207  1 Cl dzz                6      1.485731  1 Cl s          
    25      1.355515  1 Cl pz                66      1.155851  2 H  pz         
    85      1.155851  3 H  pz                57     -1.147922  2 H  s          
    76     -1.147922  3 H  s                 18      0.855181  1 Cl pz         

 Vector   32  Occ=0.000000D+00  E= 2.815802D-01  Symmetry=b1
              MO Center= -9.3D-15, -1.8D-15,  4.7D-01, r^2= 4.2D+00
   Bfn.  Coefficient  Atom+Function         Bfn.  Coefficient  Atom+Function  
  ----- ------------  ---------------      ----- ------------  ---------------
    19      2.360225  1 Cl px                40      1.751233  1 Cl dxz        
    55      1.464850  2 H  s                 74     -1.464850  3 H  s          
    23     -1.372792  1 Cl px                56     -1.309487  2 H  s          
    75      1.309487  3 H  s                 64     -1.194516  2 H  px         
    83     -1.194516  3 H  px                16     -1.102632  1 Cl px         

 Vector   33  Occ=0.000000D+00  E= 5.431479D-01  Symmetry=a1
              MO Center=  7.2D-13, -2.3D-16,  3.5D-01, r^2= 5.9D+00
   Bfn.  Coefficient  Atom+Function         Bfn.  Coefficient  Atom+Function  
  ----- ------------  ---------------      ----- ------------  ---------------
     6      8.617699  1 Cl s                 56     -6.764680  2 H  s          
    75     -6.764680  3 H  s                 21      5.133226  1 Cl pz         
    18      3.555126  1 Cl pz                38      3.406149  1 Cl dxx        
    43      2.662987  1 Cl dzz               55     -2.571643  2 H  s          
    74     -2.571643  3 H  s                 64     -2.488527  2 H  px         


 center of mass
 --------------
 x =   0.00000000 y =   0.00000000 z =  -0.08306908

 moments of inertia (a.u.)
 ------------------
           5.103355920410           0.000000000000           0.000000000000
           0.000000000000          11.911248106119           0.000000000000
           0.000000000000           0.000000000000           6.807892185709

     Multipole analysis of the density
     ---------------------------------

     L   x y z        total         alpha         beta         nuclear
     -   - - -        -----         -----         ----         -------
     0   0 0 0      1.000000     -9.000000     -9.000000     19.000000

     1   1 0 0      0.000000      0.000000      0.000000      0.000000
     1   0 1 0      0.000000      0.000000      0.000000      0.000000
     1   0 0 1      0.782834      0.391417      0.391417      0.000000

     2   2 0 0     -5.516664     -6.135849     -6.135849      6.755034
     2   1 1 0      0.000000      0.000000      0.000000      0.000000
     2   1 0 1     -0.000000     -0.000000     -0.000000      0.000000
     2   0 2 0     -9.390582     -4.695291     -4.695291      0.000000
     2   0 1 1     -0.000000     -0.000000     -0.000000      0.000000
     2   0 0 2     -6.832706     -5.812285     -5.812285      4.791864


 Parallel integral file used      69 records with       0 large values


 Task  times  cpu:        1.5s     wall:        2.1s


                                NWChem Input Module
                                -------------------


 Summary of allocated global arrays
-----------------------------------
  No active global arrays



                         GA Statistics for process    0
                         ------------------------------

       create   destroy   get      put      acc     scatter   gather  read&inc
calls:  284      284     1947     1416      282        0        0       87     
number of processes/call 2.79e+00 1.54e+00 6.82e+00 0.00e+00 0.00e+00
bytes total:             2.40e+07 5.46e+06 1.11e+07 0.00e+00 0.00e+00 6.96e+02
bytes remote:            1.61e+07 1.69e+06 8.44e+06 0.00e+00 0.00e+00 0.00e+00
Max memory consumed for GA by this process: 808992 bytes

MA_summarize_allocated_blocks: starting scan ...
MA_summarize_allocated_blocks: scan completed: 0 heap blocks, 0 stack blocks
MA usage statistics:

	allocation statistics:
					      heap	     stack
					      ----	     -----
	current number of blocks	         0	         0
	maximum number of blocks	        24	        55
	current total bytes		         0	         0
	maximum total bytes		   3993832	  23559848
	maximum total K-bytes		      3994	     23560
	maximum total M-bytes		         4	        24


                                     CITATION
                                     --------
                Please cite the following reference when publishing
                           results obtained with NWChem:

                 M. Valiev, E.J. Bylaska, N. Govind, K. Kowalski,
              T.P. Straatsma, H.J.J. van Dam, D. Wang, J. Nieplocha,
                        E. Apra, T.L. Windus, W.A. de Jong
                 "NWChem: a comprehensive and scalable open-source
                  solution for large scale molecular simulations"
                      Comput. Phys. Commun. 181, 1477 (2010)
                           doi:10.1016/j.cpc.2010.04.018

                                      AUTHORS
                                      -------
          E. Apra, E. J. Bylaska, W. A. de Jong, N. Govind, K. Kowalski,
       T. P. Straatsma, M. Valiev, H. J. J. van Dam, D. Wang, T. L. Windus,
        J. Hammond, J. Autschbach, K. Bhaskaran-Nair, J. Brabec, K. Lopata,
       S. A. Fischer, S. Krishnamoorthy, W. Ma, M. Klemm, O. Villa, Y. Chen,
    V. Anisimov, F. Aquino, S. Hirata, M. T. Hackler, T. Risthaus, M. Malagoli,
       A. Marenich, A. Otero-de-la-Roza, J. Mullin, P. Nichols, R. Peverati,
     J. Pittner, Y. Zhao, P.-D. Fan, A. Fonari, M. Williamson, R. J. Harrison,
       J. R. Rehr, M. Dupuis, D. Silverstein, D. M. A. Smith, J. Nieplocha,
        V. Tipparaju, M. Krishnan, B. E. Van Kuiken, A. Vazquez-Mayagoitia,
        L. Jensen, M. Swart, Q. Wu, T. Van Voorhis, A. A. Auer, M. Nooijen,
      L. D. Crosby, E. Brown, G. Cisneros, G. I. Fann, H. Fruchtl, J. Garza,
        K. Hirao, R. A. Kendall, J. A. Nichols, K. Tsemekhman, K. Wolinski,
     J. Anchell, D. E. Bernholdt, P. Borowski, T. Clark, D. Clerc, H. Dachsel,
   M. J. O. Deegan, K. Dyall, D. Elwood, E. Glendening, M. Gutowski, A. C. Hess,
         J. Jaffe, B. G. Johnson, J. Ju, R. Kobayashi, R. Kutteh, Z. Lin,
   R. Littlefield, X. Long, B. Meng, T. Nakajima, S. Niu, L. Pollack, M. Rosing,
   K. Glaesemann, G. Sandrone, M. Stave, H. Taylor, G. Thomas, J. H. van Lenthe,
                               A. T. Wong, Z. Zhang.

 Total times  cpu:        1.5s     wall:        2.3s
