[1537784524.430033] [r8n4:12521:0]         sys.c:744  MXM  WARN  Conflicting CPU frequencies detected, using: 2799.98
[1537784524.431600] [r8n4:12522:0]         sys.c:744  MXM  WARN  Conflicting CPU frequencies detected, using: 2799.98
[1537784524.432359] [r8n4:12523:0]         sys.c:744  MXM  WARN  Conflicting CPU frequencies detected, using: 2799.98
[1537784524.433887] [r8n4:12525:0]         sys.c:744  MXM  WARN  Conflicting CPU frequencies detected, using: 2799.98
[1537784524.434068] [r8n4:12524:0]         sys.c:744  MXM  WARN  Conflicting CPU frequencies detected, using: 2799.98
[1537784524.442958] [r8n4:12527:0]         sys.c:744  MXM  WARN  Conflicting CPU frequencies detected, using: 2799.98
[1537784524.442999] [r8n4:12526:0]         sys.c:744  MXM  WARN  Conflicting CPU frequencies detected, using: 2799.98
[1537784524.450019] [r8n4:12530:0]         sys.c:744  MXM  WARN  Conflicting CPU frequencies detected, using: 2799.98
[1537784524.451138] [r8n4:12528:0]         sys.c:744  MXM  WARN  Conflicting CPU frequencies detected, using: 2799.98
[1537784524.497087] [r8n4:12544:0]         sys.c:744  MXM  WARN  Conflicting CPU frequencies detected, using: 2499.99
[1537784524.497264] [r8n4:12540:0]         sys.c:744  MXM  WARN  Conflicting CPU frequencies detected, using: 2499.99
[1537784524.497295] [r8n4:12536:0]         sys.c:744  MXM  WARN  Conflicting CPU frequencies detected, using: 2499.99
[1537784524.498034] [r8n4:12542:0]         sys.c:744  MXM  WARN  Conflicting CPU frequencies detected, using: 2499.99
[1537784524.498293] [r8n4:12534:0]         sys.c:744  MXM  WARN  Conflicting CPU frequencies detected, using: 2499.99
[1537784524.498329] [r8n4:12532:0]         sys.c:744  MXM  WARN  Conflicting CPU frequencies detected, using: 2499.99
[1537784524.498364] [r8n4:12538:0]         sys.c:744  MXM  WARN  Conflicting CPU frequencies detected, using: 2499.99
 argument  1 = /storage/home/bikashp/nwchem_run/rabeet/pa8/nwpa8/HCl.xyz.nw
                                         
                                         


              Northwest Computational Chemistry Package (NWChem) 6.6
              ------------------------------------------------------


                    Environmental Molecular Sciences Laboratory
                       Pacific Northwest National Laboratory
                                Richland, WA 99352

                              Copyright (c) 1994-2015
                       Pacific Northwest National Laboratory
                            Battelle Memorial Institute

             NWChem is an open-source computational chemistry package
                        distributed under the terms of the
                      Educational Community License (ECL) 2.0
             A copy of the license is included with this distribution
                              in the LICENSE.TXT file

                                  ACKNOWLEDGMENT
                                  --------------

            This software and its documentation were developed at the
            EMSL at Pacific Northwest National Laboratory, a multiprogram
            national laboratory, operated for the U.S. Department of Energy
            by Battelle under Contract Number DE-AC05-76RL01830. Support
            for this work was provided by the Department of Energy Office
            of Biological and Environmental Research, Office of Basic
            Energy Sciences, and the Office of Advanced Scientific Computing.


           Job information
           ---------------

    hostname        = r8n4.niserhpc.org
    program         = /home/bikashp/Code/nwchem-6.6_tpssloc/bin/LINUX64/nwchem
    date            = Mon Sep 24 15:52:07 2018

    compiled        = Tue_Sep_18_16:24:59_2018
    source          = /home/bikashp/Code/nwchem-6.6_tpssloc
    nwchem branch   = 6.6
    nwchem revision = 27746
    ga revision     = 10594
    input           = /storage/home/bikashp/nwchem_run/rabeet/pa8/nwpa8/HCl.xyz.nw
    prefix          = HCl.xyz.
    data base       = ./HCl.xyz.db
    status          = startup
    nproc           =       16
    time left       =     -1s



           Memory information
           ------------------

    heap     =   13107196 doubles =    100.0 Mbytes
    stack    =   13107201 doubles =    100.0 Mbytes
    global   =   26214400 doubles =    200.0 Mbytes (distinct from heap & stack)
    total    =   52428797 doubles =    400.0 Mbytes
    verify   = yes
    hardfail = no 


           Directory information
           ---------------------

  0 permanent = .
  0 scratch   = .




                                NWChem Input Module
                                -------------------



 Scaling coordinates for geometry "geometry" by  1.889725989
 (inverse scale =  0.529177249)

 ORDER OF PRIMARY AXIS IS BEING SET TO 4
 C4V symmetry detected

          ------
          auto-z
          ------


                             Geometry "geometry" -> ""
                             -------------------------

 Output coordinates in angstroms (scale by  1.889725989 to convert to a.u.)

  No.       Tag          Charge          X              Y              Z
 ---- ---------------- ---------- -------------- -------------- --------------
    1 Cl                  17.0000     0.00000000     0.00000000     0.07111000
    2 H                    1.0000     0.00000000     0.00000000    -1.20887000

      Atomic Mass 
      ----------- 

      Cl                34.968850
      H                  1.007825


 Effective nuclear repulsion energy (a.u.)       7.0282451546

            Nuclear Dipole moment (a.u.) 
            ----------------------------
        X                 Y               Z
 ---------------- ---------------- ----------------
     0.0000000000     0.0000000000     0.0000000000

      Symmetry information
      --------------------

 Group name             C4v       
 Group number             18
 Group order               8
 No. of unique centers     2

      Symmetry unique atoms

     1    2



                                Z-matrix (autoz)
                                -------- 

 Units are Angstrom for bonds and degrees for angles

      Type          Name      I     J     K     L     M      Value
      ----------- --------  ----- ----- ----- ----- ----- ----------
    1 Stretch                  1     2                       1.27998


            XYZ format geometry
            -------------------
     2
 geometry
 Cl                    0.00000000     0.00000000     0.07111000
 H                     0.00000000     0.00000000    -1.20887000

 ==============================================================================
                                internuclear distances
 ------------------------------------------------------------------------------
       center one      |      center two      | atomic units |  angstroms
 ------------------------------------------------------------------------------
    2 H                |   1 Cl               |     2.41881  |     1.27998
 ------------------------------------------------------------------------------
                         number of included internuclear distances:          1
 ==============================================================================





 Summary of "ao basis" -> "" (cartesian)
 ------------------------------------------------------------------------------
       Tag                 Description            Shells   Functions and Types
 ---------------- ------------------------------  ------  ---------------------
 *                     6-311++G(3df,3pd)              on all atoms 



                                 NWChem DFT Module
                                 -----------------


                      Basis "ao basis" -> "ao basis" (cartesian)
                      -----
  Cl (Chlorine)
  -------------
            Exponent  Coefficients 
       -------------- ---------------------------------------------------------
  1 S  1.05819000E+05  0.000738
  1 S  1.58720000E+04  0.005718
  1 S  3.61965000E+03  0.029495
  1 S  1.03080000E+03  0.117286
  1 S  3.39908000E+02  0.362949
  1 S  1.24538000E+02  0.584149

  2 S  1.24538000E+02  0.134177
  2 S  4.95135000E+01  0.624250
  2 S  2.08056000E+01  0.291756

  3 S  6.58346000E+00  1.000000

  4 S  2.56468000E+00  1.000000

  5 S  5.59763000E-01  1.000000

  6 S  1.83273000E-01  1.000000

  7 P  5.89776000E+02  0.002391
  7 P  1.39849000E+02  0.018504
  7 P  4.51413000E+01  0.081377
  7 P  1.68733000E+01  0.221552
  7 P  6.74110000E+00  0.772569

  8 P  6.74110000E+00 -1.572244
  8 P  2.77152000E+00  0.992389

  9 P  1.02387000E+00  1.000000

 10 P  3.81368000E-01  1.000000

 11 P  1.09437000E-01  1.000000

 12 S  4.83000000E-02  1.000000

 13 P  4.83000000E-02  1.000000

 14 D  3.00000000E+00  1.000000

 15 D  7.50000000E-01  1.000000

 16 D  1.87500000E-01  1.000000

 17 F  7.00000000E-01  1.000000

  H (Hydrogen)
  ------------
            Exponent  Coefficients 
       -------------- ---------------------------------------------------------
  1 S  3.38650000E+01  0.025494
  1 S  5.09479000E+00  0.190373
  1 S  1.15879000E+00  0.852161

  2 S  3.25840000E-01  1.000000

  3 S  1.02741000E-01  1.000000

  4 S  3.60000000E-02  1.000000

  5 P  3.00000000E+00  1.000000

  6 P  7.50000000E-01  1.000000

  7 P  1.87500000E-01  1.000000

  8 D  1.00000000E+00  1.000000



 Summary of "ao basis" -> "ao basis" (cartesian)
 ------------------------------------------------------------------------------
       Tag                 Description            Shells   Functions and Types
 ---------------- ------------------------------  ------  ---------------------
 Cl                    6-311++G(3df,3pd)            17       53   7s6p3d1f
 H                     6-311++G(3df,3pd)             8       19   4s3p1d




 Summary of "ao basis" -> "ao basis" (cartesian)
 ------------------------------------------------------------------------------
       Tag                 Description            Shells   Functions and Types
 ---------------- ------------------------------  ------  ---------------------
 Cl                    6-311++G(3df,3pd)            17       53   7s6p3d1f
 H                     6-311++G(3df,3pd)             8       19   4s3p1d


      Symmetry analysis of basis
      --------------------------

        a1         30
        a2          0
        b1          5
        b2          5
        e          32

  Caching 1-el integrals 

            General Information
            -------------------
          SCF calculation type: DFT
          Wavefunction type:  closed shell.
          No. of atoms     :     2
          No. of electrons :    18
           Alpha electrons :     9
            Beta electrons :     9
          Charge           :     0
          Spin multiplicity:     1
          Use of symmetry is: on ; symmetry adaption is: on 
          Maximum number of iterations: ***
          AO basis - number of functions:    72
                     number of shells:    25
          Convergence on energy requested: 1.00D-06
          Convergence on density requested: 1.00D-05
          Convergence on gradient requested: 5.00D-04

              XC Information
              --------------
                  TPSS metaGGA Exchange Functional  1.000          
             TPSS03 metaGGA Correlation Functional  1.000          

             Grid Information
             ----------------
          Grid used for XC integration:  medium    
          Radial quadrature: Mura-Knowles        
          Angular quadrature: Lebedev. 
          Tag              B.-S. Rad. Rad. Pts. Rad. Cut. Ang. Pts.
          ---              ---------- --------- --------- ---------
          Cl                  1.00       88          10.0       590
          H                   0.35       45          10.0       434
          Grid pruning is: on 
          Number of quadrature shells:   133
          Spatial weights used:  Erf1

          Convergence Information
          -----------------------
          Convergence aids based upon iterative change in 
          total energy or number of iterations. 
          Levelshifting, if invoked, occurs when the 
          HOMO/LUMO gap drops below (HL_TOL): 1.00D-02
          DIIS, if invoked, will attempt to extrapolate 
          using up to (NFOCK): 10 stored Fock matrices.

                    Damping( 0%)  Levelshifting(0.5)       DIIS
                  --------------- ------------------- ---------------
          dE  on:    start            ASAP                start   
          dE off:    2 iters        *** iters           *** iters 


      Screening Tolerance Information
      -------------------------------
          Density screening/tol_rho: 1.00D-10
          AO Gaussian exp screening on grid/accAOfunc:  14
          CD Gaussian exp screening on grid/accCDfunc:  20
          XC Gaussian exp screening on grid/accXCfunc:  20
          Schwarz screening/accCoul: 1.00D-08


      Superposition of Atomic Density Guess
      -------------------------------------

 Sum of atomic energies:        -459.97786591

      Non-variational initial energy
      ------------------------------

 Total energy =    -460.048538
 1-e energy   =    -649.130987
 2-e energy   =     182.054204
 HOMO         =      -0.449592
 LUMO         =       0.028310


      Symmetry analysis of molecular orbitals - initial
      -------------------------------------------------

  Numbering of irreducible representations: 

     1 a1          2 a2          3 b1          4 b2          5 e       

  Orbital symmetries:

     1 a1          2 a1          3 a1          4 e           5 e       
     6 a1          7 a1          8 e           9 e          10 a1      
    11 a1         12 e          13 e          14 a1         15 a1      
    16 e          17 e          18 a1         19 b1      

   Time after variat. SCF:      0.6
   Time prior to 1st pass:      0.6

 Integral file          = ./HCl.xyz.aoints.00
 Record size in doubles =    65536    No. of integs per rec  =    43688
 Max. records in memory =        3    Max. records in file   = 11667800
 No. of bits per label  =        8    No. of bits per value  =       64


 #quartets = 5.297D+04 #integrals = 8.589D+05 #direct =  0.0% #cached =100.0%


File balance: exchanges=     0  moved=     0  time=   0.0


 Grid_pts file          = ./HCl.xyz.gridpts.00
 Record size in doubles =  12289        No. of grid_pts per rec  =   3070
 Max. records in memory =      3        Max. recs in file   =  62223209


           Memory utilization after 1st SCF pass: 
           Heap Space remaining (MW):       12.87            12870348
          Stack Space remaining (MW):       13.11            13106716

   convergence    iter        energy       DeltaE   RMS-Dens  Diis-err    time
 ---------------- ----- ----------------- --------- --------- ---------  ------
 d= 0,ls=0.0,diis     1   -460.8703333402 -4.68D+02  2.79D-02  1.12D+00     0.9
 d= 0,ls=0.0,diis     2   -460.8469686390  2.34D-02  9.65D-03  2.34D-01     0.9
 d= 0,ls=0.0,diis     3   -460.8649746184 -1.80D-02  4.43D-03  1.58D-01     1.0
 d= 0,ls=0.0,diis     4   -460.8777095459 -1.27D-02  3.36D-04  6.64D-04     1.0
 d= 0,ls=0.0,diis     5   -460.8771520693  5.57D-04  1.66D-04  1.52D-04     1.1
  Resetting Diis
 d= 0,ls=0.0,diis     6   -460.8774529684 -3.01D-04  4.50D-05  6.21D-06     1.1
 d= 0,ls=0.0,diis     7   -460.8774160230  3.69D-05  1.44D-05  1.91D-07     1.2
 d= 0,ls=0.0,diis     8   -460.8774145535  1.47D-06  7.35D-06  4.04D-07     1.2
 d= 0,ls=0.0,diis     9   -460.8774185050 -3.95D-06  8.68D-07  3.15D-09     1.3
 d= 0,ls=0.0,diis    10   -460.8774171999  1.31D-06  2.03D-07  1.27D-10     1.3
 d= 0,ls=0.0,diis    11   -460.8774175917 -3.92D-07  8.36D-08  5.20D-11     1.4


         Total DFT energy =     -460.877417591711
      One electron energy =     -649.080288571733
           Coulomb energy =      209.751086656152
          Exchange energy =      -27.835823205829
       Correlation energy =       -0.740637624909
 Nuclear repulsion energy =        7.028245154608

 Numeric. integr. density =       18.000001616658

     Total iterative time =      0.8s



                  Occupations of the irreducible representations
                  ----------------------------------------------

                     irrep           alpha         beta
                     --------     --------     --------
                     a1                5.0          5.0
                     a2                0.0          0.0
                     b1                0.0          0.0
                     b2                0.0          0.0
                     e                 4.0          4.0


                       DFT Final Molecular Orbital Analysis
                       ------------------------------------

 Vector    1  Occ=2.000000D+00  E=-1.010970D+02  Symmetry=a1
              MO Center=  6.6D-28,  1.3D-27,  7.1D-02, r^2= 3.1D-03
   Bfn.  Coefficient  Atom+Function         Bfn.  Coefficient  Atom+Function  
  ----- ------------  ---------------      ----- ------------  ---------------
     2      0.653537  1 Cl s                  1      0.412004  1 Cl s          

 Vector    2  Occ=2.000000D+00  E=-9.353162D+00  Symmetry=a1
              MO Center=  1.6D-16,  1.2D-17,  7.0D-02, r^2= 6.6D-02
   Bfn.  Coefficient  Atom+Function         Bfn.  Coefficient  Atom+Function  
  ----- ------------  ---------------      ----- ------------  ---------------
     4      0.617417  1 Cl s                  3      0.479817  1 Cl s          
     2     -0.325295  1 Cl s          

 Vector    3  Occ=2.000000D+00  E=-7.135726D+00  Symmetry=a1
              MO Center= -2.4D-16, -1.9D-17,  7.2D-02, r^2= 5.8D-02
   Bfn.  Coefficient  Atom+Function         Bfn.  Coefficient  Atom+Function  
  ----- ------------  ---------------      ----- ------------  ---------------
     9      1.233077  1 Cl pz                12      0.334970  1 Cl pz         

 Vector    4  Occ=2.000000D+00  E=-7.126191D+00  Symmetry=e
              MO Center=  1.8D-17,  1.9D-17,  7.1D-02, r^2= 5.8D-02
   Bfn.  Coefficient  Atom+Function         Bfn.  Coefficient  Atom+Function  
  ----- ------------  ---------------      ----- ------------  ---------------
     8      1.097387  1 Cl py                 7      0.563641  1 Cl px         
    11      0.298127  1 Cl py                10      0.153125  1 Cl px         

 Vector    5  Occ=2.000000D+00  E=-7.126191D+00  Symmetry=e
              MO Center=  8.7D-17, -4.8D-17,  7.1D-02, r^2= 5.8D-02
   Bfn.  Coefficient  Atom+Function         Bfn.  Coefficient  Atom+Function  
  ----- ------------  ---------------      ----- ------------  ---------------
     7      1.097387  1 Cl px                 8     -0.563641  1 Cl py         
    10      0.298127  1 Cl px                11     -0.153125  1 Cl py         

 Vector    6  Occ=2.000000D+00  E=-8.437118D-01  Symmetry=a1
              MO Center= -3.7D-16,  9.1D-16, -1.6D-01, r^2= 8.3D-01
   Bfn.  Coefficient  Atom+Function         Bfn.  Coefficient  Atom+Function  
  ----- ------------  ---------------      ----- ------------  ---------------
     6      0.667433  1 Cl s                  5      0.574093  1 Cl s          
     4     -0.425948  1 Cl s                  3     -0.204756  1 Cl s          

 Vector    7  Occ=2.000000D+00  E=-4.948934D-01  Symmetry=a1
              MO Center= -5.9D-16,  1.3D-16, -1.2D-01, r^2= 1.3D+00
   Bfn.  Coefficient  Atom+Function         Bfn.  Coefficient  Atom+Function  
  ----- ------------  ---------------      ----- ------------  ---------------
    18      0.646146  1 Cl pz                 6      0.355708  1 Cl s          
     9     -0.296310  1 Cl pz                55     -0.238177  2 H  s          
     5      0.178750  1 Cl s                 21      0.170154  1 Cl pz         
    15      0.162781  1 Cl pz         

 Vector    8  Occ=2.000000D+00  E=-3.630749D-01  Symmetry=e
              MO Center=  1.1D-15, -1.5D-15,  2.2D-02, r^2= 1.2D+00
   Bfn.  Coefficient  Atom+Function         Bfn.  Coefficient  Atom+Function  
  ----- ------------  ---------------      ----- ------------  ---------------
    16      0.712020  1 Cl px                17     -0.596142  1 Cl py         
     7     -0.273219  1 Cl px                 8      0.228754  1 Cl py         
    19      0.225038  1 Cl px                20     -0.188414  1 Cl py         

 Vector    9  Occ=2.000000D+00  E=-3.630749D-01  Symmetry=e
              MO Center= -2.1D-16, -4.3D-17,  2.2D-02, r^2= 1.2D+00
   Bfn.  Coefficient  Atom+Function         Bfn.  Coefficient  Atom+Function  
  ----- ------------  ---------------      ----- ------------  ---------------
    17      0.712020  1 Cl py                16      0.596142  1 Cl px         
     8     -0.273219  1 Cl py                 7     -0.228754  1 Cl px         
    20      0.225038  1 Cl py                19      0.188414  1 Cl px         

 Vector   10  Occ=0.000000D+00  E=-7.653203D-02  Symmetry=a1
              MO Center= -1.0D-18, -1.2D-15, -8.1D-01, r^2= 3.3D+00
   Bfn.  Coefficient  Atom+Function         Bfn.  Coefficient  Atom+Function  
  ----- ------------  ---------------      ----- ------------  ---------------
    56      0.794476  2 H  s                 57      0.681254  2 H  s          
    18      0.639345  1 Cl pz                22     -0.529623  1 Cl s          
     6     -0.421482  1 Cl s                 21      0.357828  1 Cl pz         
    55      0.333234  2 H  s                 25      0.269401  1 Cl pz         
     5     -0.234746  1 Cl s                  9     -0.190659  1 Cl pz         

 Vector   11  Occ=0.000000D+00  E= 9.770425D-03  Symmetry=a1
              MO Center= -1.1D-14,  8.8D-15, -6.1D-01, r^2= 7.4D+00
   Bfn.  Coefficient  Atom+Function         Bfn.  Coefficient  Atom+Function  
  ----- ------------  ---------------      ----- ------------  ---------------
    56      1.616446  2 H  s                 57     -1.173690  2 H  s          
    21      0.865971  1 Cl pz                22     -0.522657  1 Cl s          
    18      0.409473  1 Cl pz                55      0.358329  2 H  s          
     6     -0.347101  1 Cl s                 66      0.263824  2 H  pz         
    38     -0.155593  1 Cl dxx               41     -0.155593  1 Cl dyy        

 Vector   12  Occ=0.000000D+00  E= 5.204572D-02  Symmetry=a1
              MO Center= -9.0D-15, -1.8D-14,  3.2D-01, r^2= 9.8D+00
   Bfn.  Coefficient  Atom+Function         Bfn.  Coefficient  Atom+Function  
  ----- ------------  ---------------      ----- ------------  ---------------
    22      1.725063  1 Cl s                 57     -1.037497  2 H  s          
    25      0.778041  1 Cl pz                21     -0.526277  1 Cl pz         
    38     -0.194149  1 Cl dxx               41     -0.194149  1 Cl dyy        
     5     -0.189879  1 Cl s          

 Vector   13  Occ=0.000000D+00  E= 6.350669D-02  Symmetry=e
              MO Center=  1.8D-14, -4.3D-15, -4.8D-02, r^2= 9.3D+00
   Bfn.  Coefficient  Atom+Function         Bfn.  Coefficient  Atom+Function  
  ----- ------------  ---------------      ----- ------------  ---------------
    23      1.402508  1 Cl px                19     -0.708764  1 Cl px         
    24     -0.210943  1 Cl py                13     -0.180664  1 Cl px         

 Vector   14  Occ=0.000000D+00  E= 6.350669D-02  Symmetry=e
              MO Center=  1.8D-15,  1.3D-14, -4.8D-02, r^2= 9.3D+00
   Bfn.  Coefficient  Atom+Function         Bfn.  Coefficient  Atom+Function  
  ----- ------------  ---------------      ----- ------------  ---------------
    24      1.402508  1 Cl py                20     -0.708764  1 Cl py         
    23      0.210943  1 Cl px                14     -0.180664  1 Cl py         

 Vector   15  Occ=0.000000D+00  E= 1.028689D-01  Symmetry=a1
              MO Center=  6.8D-16, -1.6D-15, -1.1D+00, r^2= 1.3D+01
   Bfn.  Coefficient  Atom+Function         Bfn.  Coefficient  Atom+Function  
  ----- ------------  ---------------      ----- ------------  ---------------
    22      4.943387  1 Cl s                 57     -4.311884  2 H  s          
    25     -2.456449  1 Cl pz                21      0.600051  1 Cl pz         
    43     -0.407478  1 Cl dzz                6     -0.336964  1 Cl s          
     5     -0.260699  1 Cl s                 38     -0.258209  1 Cl dxx        
    41     -0.258209  1 Cl dyy               55      0.227800  2 H  s          

 Vector   16  Occ=0.000000D+00  E= 1.206608D-01  Symmetry=e
              MO Center= -2.8D-15, -1.0D-15, -1.5D-01, r^2= 2.6D+00
   Bfn.  Coefficient  Atom+Function         Bfn.  Coefficient  Atom+Function  
  ----- ------------  ---------------      ----- ------------  ---------------
    40      0.939061  1 Cl dxz               64     -0.400569  2 H  px         
    42      0.341130  1 Cl dyz               34      0.332706  1 Cl dxz        
    23      0.228266  1 Cl px                16      0.197404  1 Cl px         

 Vector   17  Occ=0.000000D+00  E= 1.206608D-01  Symmetry=e
              MO Center= -7.3D-16,  8.4D-16, -1.5D-01, r^2= 2.6D+00
   Bfn.  Coefficient  Atom+Function         Bfn.  Coefficient  Atom+Function  
  ----- ------------  ---------------      ----- ------------  ---------------
    42      0.939061  1 Cl dyz               65     -0.400569  2 H  py         
    40     -0.341130  1 Cl dxz               36      0.332706  1 Cl dyz        
    24      0.228266  1 Cl py                17      0.197404  1 Cl py         

 Vector   18  Occ=0.000000D+00  E= 1.737915D-01  Symmetry=b2
              MO Center=  1.3D-16,  1.6D-15,  6.6D-02, r^2= 2.2D+00
   Bfn.  Coefficient  Atom+Function         Bfn.  Coefficient  Atom+Function  
  ----- ------------  ---------------      ----- ------------  ---------------
    39      1.500438  1 Cl dxy               33      0.369437  1 Cl dxy        

 Vector   19  Occ=0.000000D+00  E= 1.737978D-01  Symmetry=b1
              MO Center=  3.9D-16,  2.2D-15,  6.6D-02, r^2= 2.2D+00
   Bfn.  Coefficient  Atom+Function         Bfn.  Coefficient  Atom+Function  
  ----- ------------  ---------------      ----- ------------  ---------------
    38      0.750211  1 Cl dxx               41     -0.750211  1 Cl dyy        
    32      0.184729  1 Cl dxx               35     -0.184729  1 Cl dyy        

 Vector   20  Occ=0.000000D+00  E= 2.449951D-01  Symmetry=a1
              MO Center= -1.0D-15, -1.1D-15, -6.0D-01, r^2= 7.1D+00
   Bfn.  Coefficient  Atom+Function         Bfn.  Coefficient  Atom+Function  
  ----- ------------  ---------------      ----- ------------  ---------------
    56      6.539298  2 H  s                 22     -3.172590  1 Cl s          
    21      2.189230  1 Cl pz                 6     -1.856151  1 Cl s          
    25      1.422508  1 Cl pz                43     -1.395508  1 Cl dzz        
    66      1.107112  2 H  pz                18      0.609954  1 Cl pz         
    57      0.241579  2 H  s                 46     -0.224306  1 Cl fxxz       

 Vector   21  Occ=0.000000D+00  E= 3.376895D-01  Symmetry=a1
              MO Center= -2.5D-15,  1.5D-15,  8.3D-01, r^2= 6.2D+00
   Bfn.  Coefficient  Atom+Function         Bfn.  Coefficient  Atom+Function  
  ----- ------------  ---------------      ----- ------------  ---------------
    21      3.825855  1 Cl pz                56      3.306645  2 H  s          
     6     -2.546254  1 Cl s                 25     -1.543991  1 Cl pz         
    66      1.502380  2 H  pz                55      0.881394  2 H  s          
    57     -0.850781  2 H  s                 18     -0.670894  1 Cl pz         
    22     -0.402825  1 Cl s                 43     -0.380242  1 Cl dzz        

 Vector   22  Occ=0.000000D+00  E= 3.734114D-01  Symmetry=e
              MO Center=  3.8D-15, -1.2D-15,  9.0D-02, r^2= 6.1D+00
   Bfn.  Coefficient  Atom+Function         Bfn.  Coefficient  Atom+Function  
  ----- ------------  ---------------      ----- ------------  ---------------
    19     -2.286039  1 Cl px                16      2.217990  1 Cl px         
    23      1.353860  1 Cl px                20      0.761031  1 Cl py         
    17     -0.738377  1 Cl py                44     -0.573548  1 Cl fxxx       
    47     -0.573556  1 Cl fxyy              49     -0.564433  1 Cl fxzz       
    24     -0.450705  1 Cl py                 7     -0.250058  1 Cl px         

 Vector   23  Occ=0.000000D+00  E= 3.734114D-01  Symmetry=e
              MO Center= -1.6D-15, -5.5D-15,  9.0D-02, r^2= 6.1D+00
   Bfn.  Coefficient  Atom+Function         Bfn.  Coefficient  Atom+Function  
  ----- ------------  ---------------      ----- ------------  ---------------
    20     -2.286039  1 Cl py                17      2.217990  1 Cl py         
    24      1.353860  1 Cl py                19     -0.761031  1 Cl px         
    16      0.738377  1 Cl px                45     -0.573556  1 Cl fxxy       
    50     -0.573548  1 Cl fyyy              52     -0.564433  1 Cl fyzz       
    23      0.450705  1 Cl px                 8     -0.250058  1 Cl py         

 Vector   24  Occ=0.000000D+00  E= 4.104044D-01  Symmetry=a1
              MO Center= -2.4D-15,  5.0D-15, -1.0D+00, r^2= 6.4D+00
   Bfn.  Coefficient  Atom+Function         Bfn.  Coefficient  Atom+Function  
  ----- ------------  ---------------      ----- ------------  ---------------
    22      3.908165  1 Cl s                 56      3.546378  2 H  s          
    57     -2.954204  2 H  s                 38     -1.849082  1 Cl dxx        
    41     -1.849082  1 Cl dyy               21      1.631017  1 Cl pz         
    43     -1.478297  1 Cl dzz               25     -1.165044  1 Cl pz         
    66      0.896725  2 H  pz                55     -0.740639  2 H  s          

 Vector   25  Occ=0.000000D+00  E= 4.421062D-01  Symmetry=e
              MO Center=  9.3D-16,  3.4D-16, -8.8D-01, r^2= 3.3D+00
   Bfn.  Coefficient  Atom+Function         Bfn.  Coefficient  Atom+Function  
  ----- ------------  ---------------      ----- ------------  ---------------
    42      1.527115  1 Cl dyz               40      1.394215  1 Cl dxz        
    65      1.381016  2 H  py                64      1.260830  2 H  px         
    20     -1.097847  1 Cl py                19     -1.002304  1 Cl px         
    36      0.199849  1 Cl dyz               24      0.188458  1 Cl py         
    34      0.182457  1 Cl dxz               23      0.172057  1 Cl px         

 Vector   26  Occ=0.000000D+00  E= 4.421062D-01  Symmetry=e
              MO Center=  5.5D-16, -6.4D-16, -8.8D-01, r^2= 3.3D+00
   Bfn.  Coefficient  Atom+Function         Bfn.  Coefficient  Atom+Function  
  ----- ------------  ---------------      ----- ------------  ---------------
    40      1.527115  1 Cl dxz               42     -1.394215  1 Cl dyz        
    64      1.381016  2 H  px                65     -1.260830  2 H  py         
    19     -1.097847  1 Cl px                20      1.002304  1 Cl py         
    34      0.199849  1 Cl dxz               23      0.188458  1 Cl px         
    36     -0.182457  1 Cl dyz               24     -0.172057  1 Cl py         

 Vector   27  Occ=0.000000D+00  E= 4.739661D-01  Symmetry=a1
              MO Center=  3.0D-15,  1.0D-15, -7.5D-01, r^2= 4.0D+00
   Bfn.  Coefficient  Atom+Function         Bfn.  Coefficient  Atom+Function  
  ----- ------------  ---------------      ----- ------------  ---------------
    22      2.734003  1 Cl s                  6      1.718631  1 Cl s          
    21      1.651676  1 Cl pz                18     -1.623193  1 Cl pz         
    56     -1.597781  2 H  s                 43     -1.544098  1 Cl dzz        
    25     -1.535810  1 Cl pz                57     -1.503257  2 H  s          
    66     -1.414246  2 H  pz                55      1.372859  2 H  s          

 Vector   28  Occ=0.000000D+00  E= 7.790374D-01  Symmetry=a1
              MO Center=  7.5D-17, -1.7D-16, -5.0D-01, r^2= 5.3D+00
   Bfn.  Coefficient  Atom+Function         Bfn.  Coefficient  Atom+Function  
  ----- ------------  ---------------      ----- ------------  ---------------
    56      9.246236  2 H  s                  6     -6.403174  1 Cl s          
    21      5.372288  1 Cl pz                66      4.506863  2 H  pz         
    18      4.330471  1 Cl pz                55      4.162442  2 H  s          
    43     -4.135492  1 Cl dzz               46     -1.112128  1 Cl fxxz       
    51     -1.112128  1 Cl fyyz              53     -1.115571  1 Cl fzzz       


 center of mass
 --------------
 x =   0.00000000 y =   0.00000000 z =   0.06661955

 moments of inertia (a.u.)
 ------------------
           5.731251853562           0.000000000000           0.000000000000
           0.000000000000           5.731251853562           0.000000000000
           0.000000000000           0.000000000000           0.000000000000

     Multipole analysis of the density
     ---------------------------------

     L   x y z        total         alpha         beta         nuclear
     -   - - -        -----         -----         ----         -------
     0   0 0 0     -0.000000     -9.000000     -9.000000     18.000000

     1   1 0 0      0.000000      0.000000      0.000000      0.000000
     1   0 1 0      0.000000      0.000000      0.000000      0.000000
     1   0 0 1     -0.459397     -0.229698     -0.229698      0.000000

     2   2 0 0    -10.640003     -5.320001     -5.320001      0.000000
     2   1 1 0      0.000000      0.000000      0.000000      0.000000
     2   1 0 1      0.000000      0.000000      0.000000      0.000000
     2   0 2 0    -10.640003     -5.320001     -5.320001      0.000000
     2   0 1 1      0.000000      0.000000      0.000000      0.000000
     2   0 0 2     -7.935323     -6.730468     -6.730468      5.525613


 Parallel integral file used      29 records with       0 large values


 Task  times  cpu:        1.0s     wall:        1.7s


                                NWChem Input Module
                                -------------------


 Summary of allocated global arrays
-----------------------------------
  No active global arrays



                         GA Statistics for process    0
                         ------------------------------

       create   destroy   get      put      acc     scatter   gather  read&inc
calls:  303      303     2123     1522      264        0        0       80     
number of processes/call 2.19e+00 1.43e+00 6.94e+00 0.00e+00 0.00e+00
bytes total:             1.84e+07 5.20e+06 7.95e+06 0.00e+00 0.00e+00 6.40e+02
bytes remote:            9.50e+06 1.16e+06 5.56e+06 0.00e+00 0.00e+00 0.00e+00
Max memory consumed for GA by this process: 808992 bytes

MA_summarize_allocated_blocks: starting scan ...
MA_summarize_allocated_blocks: scan completed: 0 heap blocks, 0 stack blocks
MA usage statistics:

	allocation statistics:
					      heap	     stack
					      ----	     -----
	current number of blocks	         0	         0
	maximum number of blocks	        24	        55
	current total bytes		         0	         0
	maximum total bytes		   1894176	  22512616
	maximum total K-bytes		      1895	     22513
	maximum total M-bytes		         2	        23


                                     CITATION
                                     --------
                Please cite the following reference when publishing
                           results obtained with NWChem:

                 M. Valiev, E.J. Bylaska, N. Govind, K. Kowalski,
              T.P. Straatsma, H.J.J. van Dam, D. Wang, J. Nieplocha,
                        E. Apra, T.L. Windus, W.A. de Jong
                 "NWChem: a comprehensive and scalable open-source
                  solution for large scale molecular simulations"
                      Comput. Phys. Commun. 181, 1477 (2010)
                           doi:10.1016/j.cpc.2010.04.018

                                      AUTHORS
                                      -------
          E. Apra, E. J. Bylaska, W. A. de Jong, N. Govind, K. Kowalski,
       T. P. Straatsma, M. Valiev, H. J. J. van Dam, D. Wang, T. L. Windus,
        J. Hammond, J. Autschbach, K. Bhaskaran-Nair, J. Brabec, K. Lopata,
       S. A. Fischer, S. Krishnamoorthy, W. Ma, M. Klemm, O. Villa, Y. Chen,
    V. Anisimov, F. Aquino, S. Hirata, M. T. Hackler, T. Risthaus, M. Malagoli,
       A. Marenich, A. Otero-de-la-Roza, J. Mullin, P. Nichols, R. Peverati,
     J. Pittner, Y. Zhao, P.-D. Fan, A. Fonari, M. Williamson, R. J. Harrison,
       J. R. Rehr, M. Dupuis, D. Silverstein, D. M. A. Smith, J. Nieplocha,
        V. Tipparaju, M. Krishnan, B. E. Van Kuiken, A. Vazquez-Mayagoitia,
        L. Jensen, M. Swart, Q. Wu, T. Van Voorhis, A. A. Auer, M. Nooijen,
      L. D. Crosby, E. Brown, G. Cisneros, G. I. Fann, H. Fruchtl, J. Garza,
        K. Hirao, R. A. Kendall, J. A. Nichols, K. Tsemekhman, K. Wolinski,
     J. Anchell, D. E. Bernholdt, P. Borowski, T. Clark, D. Clerc, H. Dachsel,
   M. J. O. Deegan, K. Dyall, D. Elwood, E. Glendening, M. Gutowski, A. C. Hess,
         J. Jaffe, B. G. Johnson, J. Ju, R. Kobayashi, R. Kutteh, Z. Lin,
   R. Littlefield, X. Long, B. Meng, T. Nakajima, S. Niu, L. Pollack, M. Rosing,
   K. Glaesemann, G. Sandrone, M. Stave, H. Taylor, G. Thomas, J. H. van Lenthe,
                               A. T. Wong, Z. Zhang.

 Total times  cpu:        1.0s     wall:        1.9s
