[1537784536.831287] [r8n4:12856:0]         sys.c:744  MXM  WARN  Conflicting CPU frequencies detected, using: 2499.99
[1537784536.831610] [r8n4:12858:0]         sys.c:744  MXM  WARN  Conflicting CPU frequencies detected, using: 2499.99
[1537784536.833355] [r8n4:12857:0]         sys.c:744  MXM  WARN  Conflicting CPU frequencies detected, using: 2499.99
[1537784536.833466] [r8n4:12855:0]         sys.c:744  MXM  WARN  Conflicting CPU frequencies detected, using: 2499.99
[1537784536.840411] [r8n4:12859:0]         sys.c:744  MXM  WARN  Conflicting CPU frequencies detected, using: 2499.99
[1537784536.840624] [r8n4:12861:0]         sys.c:744  MXM  WARN  Conflicting CPU frequencies detected, using: 2499.99
[1537784536.840862] [r8n4:12860:0]         sys.c:744  MXM  WARN  Conflicting CPU frequencies detected, using: 2499.99
[1537784536.851197] [r8n4:12863:0]         sys.c:744  MXM  WARN  Conflicting CPU frequencies detected, using: 2499.99
[1537784536.856952] [r8n4:12865:0]         sys.c:744  MXM  WARN  Conflicting CPU frequencies detected, using: 2499.99
[1537784536.858269] [r8n4:12867:0]         sys.c:744  MXM  WARN  Conflicting CPU frequencies detected, using: 2499.99
[1537784536.896101] [r8n4:12869:0]         sys.c:744  MXM  WARN  Conflicting CPU frequencies detected, using: 2499.99
[1537784536.907346] [r8n4:12881:0]         sys.c:744  MXM  WARN  Conflicting CPU frequencies detected, using: 2499.99
[1537784536.907391] [r8n4:12880:0]         sys.c:744  MXM  WARN  Conflicting CPU frequencies detected, using: 2499.99
[1537784536.907412] [r8n4:12878:0]         sys.c:744  MXM  WARN  Conflicting CPU frequencies detected, using: 2499.99
[1537784536.907484] [r8n4:12879:0]         sys.c:744  MXM  WARN  Conflicting CPU frequencies detected, using: 2499.99
[1537784536.907692] [r8n4:12877:0]         sys.c:744  MXM  WARN  Conflicting CPU frequencies detected, using: 2499.99
 argument  1 = /storage/home/bikashp/nwchem_run/rabeet/pa8/nwpa8/NH4+.xyz.nw
                                         
                                         


              Northwest Computational Chemistry Package (NWChem) 6.6
              ------------------------------------------------------


                    Environmental Molecular Sciences Laboratory
                       Pacific Northwest National Laboratory
                                Richland, WA 99352

                              Copyright (c) 1994-2015
                       Pacific Northwest National Laboratory
                            Battelle Memorial Institute

             NWChem is an open-source computational chemistry package
                        distributed under the terms of the
                      Educational Community License (ECL) 2.0
             A copy of the license is included with this distribution
                              in the LICENSE.TXT file

                                  ACKNOWLEDGMENT
                                  --------------

            This software and its documentation were developed at the
            EMSL at Pacific Northwest National Laboratory, a multiprogram
            national laboratory, operated for the U.S. Department of Energy
            by Battelle under Contract Number DE-AC05-76RL01830. Support
            for this work was provided by the Department of Energy Office
            of Biological and Environmental Research, Office of Basic
            Energy Sciences, and the Office of Advanced Scientific Computing.


           Job information
           ---------------

    hostname        = r8n4.niserhpc.org
    program         = /home/bikashp/Code/nwchem-6.6_tpssloc/bin/LINUX64/nwchem
    date            = Mon Sep 24 15:52:19 2018

    compiled        = Tue_Sep_18_16:24:59_2018
    source          = /home/bikashp/Code/nwchem-6.6_tpssloc
    nwchem branch   = 6.6
    nwchem revision = 27746
    ga revision     = 10594
    input           = /storage/home/bikashp/nwchem_run/rabeet/pa8/nwpa8/NH4+.xyz.nw
    prefix          = NH4+.xyz.
    data base       = ./NH4+.xyz.db
    status          = startup
    nproc           =       16
    time left       =     -1s



           Memory information
           ------------------

    heap     =   13107196 doubles =    100.0 Mbytes
    stack    =   13107201 doubles =    100.0 Mbytes
    global   =   26214400 doubles =    200.0 Mbytes (distinct from heap & stack)
    total    =   52428797 doubles =    400.0 Mbytes
    verify   = yes
    hardfail = no 


           Directory information
           ---------------------

  0 permanent = .
  0 scratch   = .




                                NWChem Input Module
                                -------------------



 Scaling coordinates for geometry "geometry" by  1.889725989
 (inverse scale =  0.529177249)

 TD  symmetry detected

          ------
          auto-z
          ------
  Looking for out-of-plane bends


                             Geometry "geometry" -> ""
                             -------------------------

 Output coordinates in angstroms (scale by  1.889725989 to convert to a.u.)

  No.       Tag          Charge          X              Y              Z
 ---- ---------------- ---------- -------------- -------------- --------------
    1 N                    7.0000     0.00000000     0.00000000     0.00000000
    2 H                    1.0000     0.59382114     0.59382114     0.59382114
    3 H                    1.0000    -0.59382114    -0.59382114     0.59382114
    4 H                    1.0000     0.59382114    -0.59382114    -0.59382114
    5 H                    1.0000    -0.59382114     0.59382114    -0.59382114

      Atomic Mass 
      ----------- 

      N                 14.003070
      H                  1.007825


 Effective nuclear repulsion energy (a.u.)      16.2963750822

            Nuclear Dipole moment (a.u.) 
            ----------------------------
        X                 Y               Z
 ---------------- ---------------- ----------------
     0.0000000000     0.0000000000     0.0000000000

      Symmetry information
      --------------------

 Group name              Td       
 Group number             42
 Group order              24
 No. of unique centers     2

      Symmetry unique atoms

     1    2



                                Z-matrix (autoz)
                                -------- 

 Units are Angstrom for bonds and degrees for angles

      Type          Name      I     J     K     L     M      Value
      ----------- --------  ----- ----- ----- ----- ----- ----------
    1 Stretch                  1     2                       1.02853
    2 Stretch                  1     3                       1.02853
    3 Stretch                  1     4                       1.02853
    4 Stretch                  1     5                       1.02853
    5 Bend                     2     1     3               109.47122
    6 Bend                     2     1     4               109.47122
    7 Bend                     2     1     5               109.47122
    8 Bend                     3     1     4               109.47122
    9 Bend                     3     1     5               109.47122
   10 Bend                     4     1     5               109.47122


            XYZ format geometry
            -------------------
     5
 geometry
 N                     0.00000000     0.00000000     0.00000000
 H                     0.59382114     0.59382114     0.59382114
 H                    -0.59382114    -0.59382114     0.59382114
 H                     0.59382114    -0.59382114    -0.59382114
 H                    -0.59382114     0.59382114    -0.59382114

 ==============================================================================
                                internuclear distances
 ------------------------------------------------------------------------------
       center one      |      center two      | atomic units |  angstroms
 ------------------------------------------------------------------------------
    2 H                |   1 N                |     1.94364  |     1.02853
    3 H                |   1 N                |     1.94364  |     1.02853
    4 H                |   1 N                |     1.94364  |     1.02853
    5 H                |   1 N                |     1.94364  |     1.02853
 ------------------------------------------------------------------------------
                         number of included internuclear distances:          4
 ==============================================================================



 ==============================================================================
                                 internuclear angles
 ------------------------------------------------------------------------------
        center 1       |       center 2       |       center 3       |  degrees
 ------------------------------------------------------------------------------
    2 H                |   1 N                |   3 H                |   109.47
    2 H                |   1 N                |   4 H                |   109.47
    2 H                |   1 N                |   5 H                |   109.47
    3 H                |   1 N                |   4 H                |   109.47
    3 H                |   1 N                |   5 H                |   109.47
    4 H                |   1 N                |   5 H                |   109.47
 ------------------------------------------------------------------------------
                            number of included internuclear angles:          6
 ==============================================================================





 Summary of "ao basis" -> "" (cartesian)
 ------------------------------------------------------------------------------
       Tag                 Description            Shells   Functions and Types
 ---------------- ------------------------------  ------  ---------------------
 *                     6-311++G(3df,3pd)              on all atoms 



                                 NWChem DFT Module
                                 -----------------


                      Basis "ao basis" -> "ao basis" (cartesian)
                      -----
  N (Nitrogen)
  ------------
            Exponent  Coefficients 
       -------------- ---------------------------------------------------------
  1 S  6.29348000E+03  0.001970
  1 S  9.49044000E+02  0.014961
  1 S  2.18776000E+02  0.073501
  1 S  6.36916000E+01  0.248937
  1 S  1.88282000E+01  0.602460
  1 S  2.72023000E+00  0.256202

  2 S  3.06331000E+01  0.111906
  2 S  7.02614000E+00  0.921666
  2 S  2.11205000E+00 -0.002569

  3 P  3.06331000E+01  0.038312
  3 P  7.02614000E+00  0.237403
  3 P  2.11205000E+00  0.817592

  4 S  6.84009000E-01  1.000000

  5 P  6.84009000E-01  1.000000

  6 S  2.00878000E-01  1.000000

  7 P  2.00878000E-01  1.000000

  8 S  6.39000000E-02  1.000000

  9 P  6.39000000E-02  1.000000

 10 D  3.65200000E+00  1.000000

 11 D  9.13000000E-01  1.000000

 12 D  2.28250000E-01  1.000000

 13 F  1.00000000E+00  1.000000

  H (Hydrogen)
  ------------
            Exponent  Coefficients 
       -------------- ---------------------------------------------------------
  1 S  3.38650000E+01  0.025494
  1 S  5.09479000E+00  0.190373
  1 S  1.15879000E+00  0.852161

  2 S  3.25840000E-01  1.000000

  3 S  1.02741000E-01  1.000000

  4 S  3.60000000E-02  1.000000

  5 P  3.00000000E+00  1.000000

  6 P  7.50000000E-01  1.000000

  7 P  1.87500000E-01  1.000000

  8 D  1.00000000E+00  1.000000



 Summary of "ao basis" -> "ao basis" (cartesian)
 ------------------------------------------------------------------------------
       Tag                 Description            Shells   Functions and Types
 ---------------- ------------------------------  ------  ---------------------
 N                     6-311++G(3df,3pd)            13       45   5s4p3d1f
 H                     6-311++G(3df,3pd)             8       19   4s3p1d




 Summary of "ao basis" -> "ao basis" (cartesian)
 ------------------------------------------------------------------------------
       Tag                 Description            Shells   Functions and Types
 ---------------- ------------------------------  ------  ---------------------
 N                     6-311++G(3df,3pd)            13       45   5s4p3d1f
 H                     6-311++G(3df,3pd)             8       19   4s3p1d


      Symmetry analysis of basis
      --------------------------

        a1         18
        a2          0
        e          16
        t1         18
        t2         69

  Caching 1-el integrals 

            General Information
            -------------------
          SCF calculation type: DFT
          Wavefunction type:  closed shell.
          No. of atoms     :     5
          No. of electrons :    10
           Alpha electrons :     5
            Beta electrons :     5
          Charge           :     1
          Spin multiplicity:     1
          Use of symmetry is: on ; symmetry adaption is: on 
          Maximum number of iterations: ***
          AO basis - number of functions:   121
                     number of shells:    45
          Convergence on energy requested: 1.00D-06
          Convergence on density requested: 1.00D-05
          Convergence on gradient requested: 5.00D-04

              XC Information
              --------------
                  TPSS metaGGA Exchange Functional  1.000          
             TPSS03 metaGGA Correlation Functional  1.000          

             Grid Information
             ----------------
          Grid used for XC integration:  medium    
          Radial quadrature: Mura-Knowles        
          Angular quadrature: Lebedev. 
          Tag              B.-S. Rad. Rad. Pts. Rad. Cut. Ang. Pts.
          ---              ---------- --------- --------- ---------
          N                   0.65       49           9.0       434
          H                   0.35       45          11.0       434
          Grid pruning is: on 
          Number of quadrature shells:    94
          Spatial weights used:  Erf1

          Convergence Information
          -----------------------
          Convergence aids based upon iterative change in 
          total energy or number of iterations. 
          Levelshifting, if invoked, occurs when the 
          HOMO/LUMO gap drops below (HL_TOL): 1.00D-02
          DIIS, if invoked, will attempt to extrapolate 
          using up to (NFOCK): 10 stored Fock matrices.

                    Damping( 0%)  Levelshifting(0.5)       DIIS
                  --------------- ------------------- ---------------
          dE  on:    start            ASAP                start   
          dE off:    2 iters        *** iters           *** iters 


      Screening Tolerance Information
      -------------------------------
          Density screening/tol_rho: 1.00D-10
          AO Gaussian exp screening on grid/accAOfunc:  14
          CD Gaussian exp screening on grid/accCDfunc:  20
          XC Gaussian exp screening on grid/accXCfunc:  20
          Schwarz screening/accCoul: 1.00D-08


      Superposition of Atomic Density Guess
      -------------------------------------

 Sum of atomic energies:         -56.30724068

 Renormalizing density from      11.00 to     10

      Non-variational initial energy
      ------------------------------

 Total energy =     -53.136373
 1-e energy   =     -97.360441
 2-e energy   =      27.927693
 HOMO         =      -1.185144
 LUMO         =      -0.294485


      Symmetry analysis of molecular orbitals - initial
      -------------------------------------------------

  Numbering of irreducible representations: 

     1 a1          2 a2          3 e           4 t1          5 t2      

  Orbital symmetries:

     1 a1          2 a1          3 t2          4 t2          5 t2      
     6 a1          7 t2          8 t2          9 t2         10 t2      
    11 t2         12 t2         13 a1         14 t2         15 t2      

   Time after variat. SCF:      0.4
   Time prior to 1st pass:      0.4

 Integral file          = ./NH4+.xyz.aoints.00
 Record size in doubles =    65536    No. of integs per rec  =    43688
 Max. records in memory =        4    Max. records in file   = 11667998
 No. of bits per label  =        8    No. of bits per value  =       64


 #quartets = 7.666D+04 #integrals = 4.210D+06 #direct =  0.0% #cached =100.0%


File balance: exchanges=     0  moved=     0  time=   0.0


 Grid_pts file          = ./NH4+.xyz.gridpts.00
 Record size in doubles =  12289        No. of grid_pts per rec  =   3070
 Max. records in memory =      2        Max. recs in file   =  62224262


           Memory utilization after 1st SCF pass: 
           Heap Space remaining (MW):       12.82            12816804
          Stack Space remaining (MW):       13.11            13106428

   convergence    iter        energy       DeltaE   RMS-Dens  Diis-err    time
 ---------------- ----- ----------------- --------- --------- ---------  ------
 d= 0,ls=0.0,diis     1    -56.7248559734 -7.30D+01  9.84D-03  3.07D+00     0.8
 d= 0,ls=0.0,diis     2    -56.4423328744  2.83D-01  7.35D-03  4.32D+00     0.9
 d= 0,ls=0.0,diis     3    -56.9157851001 -4.73D-01  1.32D-03  4.05D-02     1.0
 d= 0,ls=0.0,diis     4    -56.9124519437  3.33D-03  6.61D-04  9.69D-04     1.1
 d= 0,ls=0.0,diis     5    -56.9113852379  1.07D-03  7.68D-05  8.29D-05     1.3
  Resetting Diis
 d= 0,ls=0.0,diis     6    -56.9116692345 -2.84D-04  8.26D-06  4.96D-07     1.4
 d= 0,ls=0.0,diis     7    -56.9116595757  9.66D-06  3.83D-07  1.25D-09     1.5
 d= 0,ls=0.0,diis     8    -56.9116593097  2.66D-07  8.61D-08  3.41D-10     1.6


         Total DFT energy =      -56.911659309712
      One electron energy =     -104.622157437971
           Coulomb energy =       39.489564027672
          Exchange energy =       -7.754699405326
       Correlation energy =       -0.320741576315
 Nuclear repulsion energy =       16.296375082228

 Numeric. integr. density =       10.000004658996

     Total iterative time =      1.2s



                  Occupations of the irreducible representations
                  ----------------------------------------------

                     irrep           alpha         beta
                     --------     --------     --------
                     a1                2.0          2.0
                     a2                0.0          0.0
                     e                 0.0          0.0
                     t1                0.0          0.0
                     t2                3.0          3.0


                       DFT Final Molecular Orbital Analysis
                       ------------------------------------

 Vector    1  Occ=2.000000D+00  E=-1.453455D+01  Symmetry=a1
              MO Center= -4.3D-21,  1.0D-21, -2.4D-21, r^2= 2.0D-02
   Bfn.  Coefficient  Atom+Function         Bfn.  Coefficient  Atom+Function  
  ----- ------------  ---------------      ----- ------------  ---------------
     1      0.556602  1 N  s                  2      0.467380  1 N  s          

 Vector    2  Occ=2.000000D+00  E=-1.235375D+00  Symmetry=a1
              MO Center= -1.8D-18,  6.6D-18,  6.0D-18, r^2= 7.1D-01
   Bfn.  Coefficient  Atom+Function         Bfn.  Coefficient  Atom+Function  
  ----- ------------  ---------------      ----- ------------  ---------------
    10      0.611232  1 N  s                  6      0.466707  1 N  s          
     2     -0.200456  1 N  s          

 Vector    3  Occ=2.000000D+00  E=-8.318959D-01  Symmetry=t2
              MO Center= -1.7D-02,  1.2D-02, -1.7D-01, r^2= 9.0D-01
   Bfn.  Coefficient  Atom+Function         Bfn.  Coefficient  Atom+Function  
  ----- ------------  ---------------      ----- ------------  ---------------
    12      0.344986  1 N  py                 8      0.267160  1 N  py         
    11     -0.236819  1 N  px                 4      0.201464  1 N  py         
     7     -0.183394  1 N  px         

 Vector    4  Occ=2.000000D+00  E=-8.318959D-01  Symmetry=t2
              MO Center= -9.0D-02, -1.4D-01,  1.2D-01, r^2= 8.9D-01
   Bfn.  Coefficient  Atom+Function         Bfn.  Coefficient  Atom+Function  
  ----- ------------  ---------------      ----- ------------  ---------------
    11      0.300741  1 N  px                 7      0.232896  1 N  px         
    13     -0.220013  1 N  pz                12      0.191774  1 N  py         
     3      0.175625  1 N  px                 9     -0.170380  1 N  pz         
    65     -0.168895  3 H  s          

 Vector    5  Occ=2.000000D+00  E=-8.318959D-01  Symmetry=t2
              MO Center=  1.1D-01,  1.3D-01,  5.1D-02, r^2= 9.0D-01
   Bfn.  Coefficient  Atom+Function         Bfn.  Coefficient  Atom+Function  
  ----- ------------  ---------------      ----- ------------  ---------------
    13      0.355940  1 N  pz                 9      0.275643  1 N  pz         
     5      0.207860  1 N  pz                11      0.170586  1 N  px         
    46      0.158190  2 H  s          

 Vector    6  Occ=0.000000D+00  E=-2.737812D-01  Symmetry=a1
              MO Center= -4.3D-15,  7.8D-15, -7.2D-16, r^2= 4.0D+00
   Bfn.  Coefficient  Atom+Function         Bfn.  Coefficient  Atom+Function  
  ----- ------------  ---------------      ----- ------------  ---------------
    10      0.686682  1 N  s                  6      0.395735  1 N  s          
    48     -0.233218  2 H  s                 67     -0.233218  3 H  s          
    86     -0.233218  4 H  s                105     -0.233218  5 H  s          

 Vector    7  Occ=0.000000D+00  E=-2.061642D-01  Symmetry=t2
              MO Center= -4.5D-01, -1.1D-01,  2.5D-01, r^2= 3.1D+00
   Bfn.  Coefficient  Atom+Function         Bfn.  Coefficient  Atom+Function  
  ----- ------------  ---------------      ----- ------------  ---------------
    67      1.240601  3 H  s                105     -0.885773  5 H  s          
    68      0.602827  3 H  s                 48     -0.598109  2 H  s          
    16      0.548101  1 N  py                12      0.545203  1 N  py         
   106     -0.430411  5 H  s                 66      0.365514  3 H  s          
    49     -0.290631  2 H  s                104     -0.260972  5 H  s          

 Vector    8  Occ=0.000000D+00  E=-2.061642D-01  Symmetry=t2
              MO Center=  1.0D-01, -2.8D-01, -3.8D-01, r^2= 3.1D+00
   Bfn.  Coefficient  Atom+Function         Bfn.  Coefficient  Atom+Function  
  ----- ------------  ---------------      ----- ------------  ---------------
    86      1.221892  4 H  s                105     -0.828324  5 H  s          
    67     -0.688726  3 H  s                 87      0.593737  4 H  s          
    15     -0.560352  1 N  px                11     -0.557390  1 N  px         
   106     -0.402496  5 H  s                 85      0.360002  4 H  s          
    68     -0.334663  3 H  s                 48      0.295158  2 H  s          

 Vector    9  Occ=0.000000D+00  E=-2.061642D-01  Symmetry=t2
              MO Center=  3.5D-01,  3.9D-01,  1.3D-01, r^2= 3.1D+00
   Bfn.  Coefficient  Atom+Function         Bfn.  Coefficient  Atom+Function  
  ----- ------------  ---------------      ----- ------------  ---------------
    48      1.269094  2 H  s                105     -0.764682  5 H  s          
    86     -0.709399  4 H  s                 49      0.616673  2 H  s          
    17     -0.544480  1 N  pz                13     -0.541602  1 N  pz         
    47      0.373909  2 H  s                106     -0.371571  5 H  s          
    87     -0.344708  4 H  s                104     -0.225296  5 H  s          

 Vector   10  Occ=0.000000D+00  E=-1.331254D-01  Symmetry=t2
              MO Center= -1.6D-02,  5.1D-02,  3.0D-01, r^2= 6.7D+00
   Bfn.  Coefficient  Atom+Function         Bfn.  Coefficient  Atom+Function  
  ----- ------------  ---------------      ----- ------------  ---------------
    86     -1.410015  4 H  s                 15      1.308192  1 N  px         
   105      1.299494  5 H  s                 67      0.753319  3 H  s          
    48     -0.642797  2 H  s                 11      0.489387  1 N  px         
    87      0.489010  4 H  s                106     -0.450680  5 H  s          
    16     -0.418492  1 N  py                85     -0.309849  4 H  s          

 Vector   11  Occ=0.000000D+00  E=-1.331254D-01  Symmetry=t2
              MO Center= -8.2D-02, -2.7D-02, -3.0D-01, r^2= 6.7D+00
   Bfn.  Coefficient  Atom+Function         Bfn.  Coefficient  Atom+Function  
  ----- ------------  ---------------      ----- ------------  ---------------
    48      1.444112  2 H  s                 16     -1.303630  1 N  py         
    67     -1.265562  3 H  s                 86     -0.780092  4 H  s          
   105      0.601542  5 H  s                 49     -0.500835  2 H  s          
    12     -0.487680  1 N  py                68      0.438912  3 H  s          
    15     -0.423159  1 N  px                47      0.317342  2 H  s          

 Vector   12  Occ=0.000000D+00  E=-1.331254D-01  Symmetry=t2
              MO Center=  9.8D-02, -2.4D-02,  2.3D-03, r^2= 6.8D+00
   Bfn.  Coefficient  Atom+Function         Bfn.  Coefficient  Atom+Function  
  ----- ------------  ---------------      ----- ------------  ---------------
    17      1.368778  1 N  pz               105      1.201079  5 H  s          
    67     -1.150649  3 H  s                 48     -0.997236  2 H  s          
    86      0.946806  4 H  s                 13      0.512052  1 N  pz         
   106     -0.416548  5 H  s                 68      0.399059  3 H  s          
    49      0.345853  2 H  s                 87     -0.328364  4 H  s          

 Vector   13  Occ=0.000000D+00  E=-6.296339D-02  Symmetry=a1
              MO Center= -1.7D-13,  5.3D-14,  6.6D-15, r^2= 1.4D+01
   Bfn.  Coefficient  Atom+Function         Bfn.  Coefficient  Atom+Function  
  ----- ------------  ---------------      ----- ------------  ---------------
    14      5.992953  1 N  s                 48     -0.966017  2 H  s          
    67     -0.966017  3 H  s                 86     -0.966017  4 H  s          
   105     -0.966017  5 H  s                 49     -0.906423  2 H  s          
    68     -0.906423  3 H  s                 87     -0.906423  4 H  s          
   106     -0.906423  5 H  s                 10      0.625300  1 N  s          

 Vector   14  Occ=0.000000D+00  E=-4.304188D-02  Symmetry=e
              MO Center= -6.4D-15,  1.1D-15, -2.1D-15, r^2= 3.1D+00
   Bfn.  Coefficient  Atom+Function         Bfn.  Coefficient  Atom+Function  
  ----- ------------  ---------------      ----- ------------  ---------------
    56      0.423243  2 H  px                75     -0.423243  3 H  px         
    94      0.423243  4 H  px               113     -0.423243  5 H  px         
    57     -0.214237  2 H  py                76      0.214237  3 H  py         
    95      0.214237  4 H  py               114     -0.214237  5 H  py         
    58     -0.209005  2 H  pz                77     -0.209005  3 H  pz         

 Vector   15  Occ=0.000000D+00  E=-4.304188D-02  Symmetry=e
              MO Center=  1.4D-15, -5.1D-15, -7.0D-15, r^2= 3.1D+00
   Bfn.  Coefficient  Atom+Function         Bfn.  Coefficient  Atom+Function  
  ----- ------------  ---------------      ----- ------------  ---------------
    58     -0.368049  2 H  pz                77     -0.368049  3 H  pz         
    96      0.368049  4 H  pz               115      0.368049  5 H  pz         
    57      0.365028  2 H  py                76     -0.365028  3 H  py         
    95     -0.365028  4 H  py               114      0.365028  5 H  py         

 Vector   16  Occ=0.000000D+00  E=-2.117284D-02  Symmetry=t2
              MO Center= -7.1D-02, -2.0D-01,  6.6D-01, r^2= 1.4D+01
   Bfn.  Coefficient  Atom+Function         Bfn.  Coefficient  Atom+Function  
  ----- ------------  ---------------      ----- ------------  ---------------
    68      3.518387  3 H  s                 49     -3.001147  2 H  s          
    15      2.457210  1 N  px                87     -1.822926  4 H  s          
   106      1.305686  5 H  s                 16      0.863607  1 N  py         
    67      0.850327  3 H  s                 48     -0.725320  2 H  s          
    86     -0.440566  4 H  s                105      0.315559  5 H  s          

 Vector   17  Occ=0.000000D+00  E=-2.117284D-02  Symmetry=t2
              MO Center=  6.0D-01, -1.9D-01, -5.5D-01, r^2= 1.4D+01
   Bfn.  Coefficient  Atom+Function         Bfn.  Coefficient  Atom+Function  
  ----- ------------  ---------------      ----- ------------  ---------------
    87      3.863102  4 H  s                 49     -2.397845  2 H  s          
    16      2.372654  1 N  py               106     -2.260225  5 H  s          
    86      0.933637  4 H  s                 17      0.816448  1 N  pz         
    68      0.794969  3 H  s                 15     -0.746349  1 N  px         
    48     -0.579513  2 H  s                105     -0.546253  5 H  s          

 Vector   18  Occ=0.000000D+00  E=-2.117284D-02  Symmetry=t2
              MO Center= -5.3D-01,  3.9D-01, -1.1D-01, r^2= 1.4D+01
   Bfn.  Coefficient  Atom+Function         Bfn.  Coefficient  Atom+Function  
  ----- ------------  ---------------      ----- ------------  ---------------
   106      3.605125  5 H  s                 68     -2.607553  3 H  s          
    17      2.473279  1 N  pz                49     -2.248068  2 H  s          
    87      1.250496  4 H  s                105      0.871289  5 H  s          
    16     -0.691236  1 N  py                67     -0.630195  3 H  s          
    48     -0.543315  2 H  s                 15      0.508127  1 N  px         

 Vector   19  Occ=0.000000D+00  E= 6.215457D-02  Symmetry=a1
              MO Center=  2.8D-13, -4.3D-13, -9.6D-14, r^2= 9.6D+00
   Bfn.  Coefficient  Atom+Function         Bfn.  Coefficient  Atom+Function  
  ----- ------------  ---------------      ----- ------------  ---------------
    14     22.639855  1 N  s                 48     -6.662578  2 H  s          
    67     -6.662578  3 H  s                 86     -6.662578  4 H  s          
   105     -6.662578  5 H  s                 10      4.255699  1 N  s          
    49     -1.128847  2 H  s                 68     -1.128847  3 H  s          
    87     -1.128847  4 H  s                106     -1.128847  5 H  s          

 Vector   20  Occ=0.000000D+00  E= 1.173226D-01  Symmetry=t2
              MO Center= -1.5D-01, -4.0D-01, -1.3D-01, r^2= 7.4D+00
   Bfn.  Coefficient  Atom+Function         Bfn.  Coefficient  Atom+Function  
  ----- ------------  ---------------      ----- ------------  ---------------
    48      7.905623  2 H  s                105     -5.530116  5 H  s          
    17     -2.675037  1 N  pz                13     -2.348210  1 N  pz         
    15     -2.246799  1 N  px                11     -1.972293  1 N  px         
    86     -1.772259  4 H  s                 31     -1.302212  1 N  dxy        
    47      1.201623  2 H  s                 57     -1.106613  2 H  py         

 Vector   21  Occ=0.000000D+00  E= 1.173226D-01  Symmetry=t2
              MO Center=  3.5D-01,  1.7D-01, -2.3D-01, r^2= 7.4D+00
   Bfn.  Coefficient  Atom+Function         Bfn.  Coefficient  Atom+Function  
  ----- ------------  ---------------      ----- ------------  ---------------
    67      8.161961  3 H  s                105     -4.653625  5 H  s          
    48     -2.792872  2 H  s                 16      2.727832  1 N  py         
    12      2.394555  1 N  py                17     -1.966827  1 N  pz         
    13     -1.726527  1 N  pz                32      1.327913  1 N  dxz        
    15      1.285188  1 N  px                66      1.240586  3 H  s          

 Vector   22  Occ=0.000000D+00  E= 1.173226D-01  Symmetry=t2
              MO Center= -2.0D-01,  2.3D-01,  3.6D-01, r^2= 7.4D+00
   Bfn.  Coefficient  Atom+Function         Bfn.  Coefficient  Atom+Function  
  ----- ------------  ---------------      ----- ------------  ---------------
    86      8.293769  4 H  s                105     -4.494551  5 H  s          
    15     -2.502273  1 N  px                67     -2.336210  3 H  s          
    11     -2.196554  1 N  px                16      2.182398  1 N  py         
    12      1.915761  1 N  py                48     -1.463008  2 H  s          
    17      1.391745  1 N  pz                85      1.260620  4 H  s          

 Vector   23  Occ=0.000000D+00  E= 2.467369D-01  Symmetry=t1
              MO Center=  1.8D-01, -1.4D-01,  2.4D-01, r^2= 3.9D+00
   Bfn.  Coefficient  Atom+Function         Bfn.  Coefficient  Atom+Function  
  ----- ------------  ---------------      ----- ------------  ---------------
    58      0.910396  2 H  pz                77     -0.910396  3 H  pz         
    56     -0.805928  2 H  px                94      0.805928  4 H  px         
    76     -0.718326  3 H  py                95      0.718326  4 H  py         
    75     -0.192071  3 H  px               113      0.192071  5 H  px         

 Vector   24  Occ=0.000000D+00  E= 2.467369D-01  Symmetry=t1
              MO Center= -4.3D-02,  2.6D-01,  2.7D-02, r^2= 3.9D+00
   Bfn.  Coefficient  Atom+Function         Bfn.  Coefficient  Atom+Function  
  ----- ------------  ---------------      ----- ------------  ---------------
    57      0.981981  2 H  py               114     -0.981981  5 H  py         
    75      0.668444  3 H  px               113     -0.668444  5 H  px         
    56     -0.543291  2 H  px                94      0.543291  4 H  px         
    58     -0.438691  2 H  pz                77      0.438691  3 H  pz         
    96      0.313537  4 H  pz               115     -0.313537  5 H  pz         

 Vector   25  Occ=0.000000D+00  E= 2.467369D-01  Symmetry=t1
              MO Center= -1.3D-01, -1.2D-01, -2.6D-01, r^2= 3.9D+00
   Bfn.  Coefficient  Atom+Function         Bfn.  Coefficient  Atom+Function  
  ----- ------------  ---------------      ----- ------------  ---------------
    96      0.958606  4 H  pz               115     -0.958606  5 H  pz         
    75     -0.735661  3 H  px               113      0.735661  5 H  px         
    76      0.675372  3 H  py                95     -0.675372  4 H  py         
    56     -0.283234  2 H  px                94      0.283234  4 H  px         
    57      0.222945  2 H  py               114     -0.222945  5 H  py         

 Vector   26  Occ=0.000000D+00  E= 2.937679D-01  Symmetry=t2
              MO Center=  2.9D-01,  2.6D-01,  1.5D-01, r^2= 7.0D+00
   Bfn.  Coefficient  Atom+Function         Bfn.  Coefficient  Atom+Function  
  ----- ------------  ---------------      ----- ------------  ---------------
    49      3.077794  2 H  s                 17     -2.045790  1 N  pz         
    48     -1.825872  2 H  s                 87     -1.579259  4 H  s          
   106     -1.391943  5 H  s                 16     -1.160775  1 N  py         
    31      1.059233  1 N  dxy               15     -1.031801  1 N  px         
    77      0.970611  3 H  pz                86      0.936880  4 H  s          

 Vector   27  Occ=0.000000D+00  E= 2.937679D-01  Symmetry=t2
              MO Center= -3.6D-01, -6.8D-02,  1.0D-01, r^2= 7.1D+00
   Bfn.  Coefficient  Atom+Function         Bfn.  Coefficient  Atom+Function  
  ----- ------------  ---------------      ----- ------------  ---------------
    68      2.841197  3 H  s                106     -2.266602  5 H  s          
    16      2.116493  1 N  py                67     -1.685513  3 H  s          
    17     -1.400430  1 N  pz               105      1.344640  5 H  s          
    32     -1.095841  1 N  dxz               95     -0.981607  4 H  py         
    57     -0.943830  2 H  py               114     -0.847887  5 H  py         

 Vector   28  Occ=0.000000D+00  E= 2.937679D-01  Symmetry=t2
              MO Center=  7.2D-02, -1.9D-01, -2.5D-01, r^2= 7.1D+00
   Bfn.  Coefficient  Atom+Function         Bfn.  Coefficient  Atom+Function  
  ----- ------------  ---------------      ----- ------------  ---------------
    87      2.808665  4 H  s                 15     -2.318649  1 N  px         
   106     -1.833525  5 H  s                 86     -1.666214  4 H  s          
    68     -1.533963  3 H  s                 34      1.200509  1 N  dyz        
   105      1.087721  5 H  s                 56      1.055384  2 H  px         
    75      0.991274  3 H  px               113      0.971579  5 H  px         

 Vector   29  Occ=0.000000D+00  E= 3.118687D-01  Symmetry=a1
              MO Center= -1.2D-13,  2.1D-13, -1.7D-13, r^2= 6.4D+00
   Bfn.  Coefficient  Atom+Function         Bfn.  Coefficient  Atom+Function  
  ----- ------------  ---------------      ----- ------------  ---------------
    14      3.752460  1 N  s                 10     -2.633115  1 N  s          
    48     -2.598955  2 H  s                 67     -2.598955  3 H  s          
    86     -2.598955  4 H  s                105     -2.598955  5 H  s          
    30      1.806396  1 N  dxx               33      1.806396  1 N  dyy        
    35      1.806396  1 N  dzz               47      0.674308  2 H  s          

 Vector   30  Occ=0.000000D+00  E= 3.333116D-01  Symmetry=a1
              MO Center=  9.0D-13,  2.9D-13, -4.3D-13, r^2= 7.0D+00
   Bfn.  Coefficient  Atom+Function         Bfn.  Coefficient  Atom+Function  
  ----- ------------  ---------------      ----- ------------  ---------------
    14     27.501364  1 N  s                 10     12.209345  1 N  s          
    48    -10.377845  2 H  s                 67    -10.377845  3 H  s          
    86    -10.377845  4 H  s                105    -10.377845  5 H  s          
    30      1.434165  1 N  dxx               33      1.434165  1 N  dyy        
    35      1.434165  1 N  dzz               56      1.206324  2 H  px         

 Vector   31  Occ=0.000000D+00  E= 3.964154D-01  Symmetry=t2
              MO Center=  3.2D-02,  2.1D-01,  2.8D-02, r^2= 3.9D+00
   Bfn.  Coefficient  Atom+Function         Bfn.  Coefficient  Atom+Function  
  ----- ------------  ---------------      ----- ------------  ---------------
    48      4.591875  2 H  s                105     -3.978037  5 H  s          
    31      1.904800  1 N  dxy               34      1.684865  1 N  dyz        
    57     -1.558794  2 H  py                13     -1.521245  1 N  pz         
   114      1.432070  5 H  py                11     -1.345596  1 N  px         
    56     -1.315846  2 H  px                58     -1.278422  2 H  pz         

 Vector   32  Occ=0.000000D+00  E= 3.964154D-01  Symmetry=t2
              MO Center= -1.6D-02, -2.1D-01,  1.8D-02, r^2= 3.9D+00
   Bfn.  Coefficient  Atom+Function         Bfn.  Coefficient  Atom+Function  
  ----- ------------  ---------------      ----- ------------  ---------------
    67      4.476454  3 H  s                 86     -4.125839  4 H  s          
    34     -1.901478  1 N  dyz               31      1.701751  1 N  dxy        
    76      1.537274  3 H  py                11      1.518592  1 N  px         
    95     -1.464891  4 H  py                13     -1.359082  1 N  pz         
    77     -1.272692  3 H  pz                75      1.238706  3 H  px         

 Vector   33  Occ=0.000000D+00  E= 3.964154D-01  Symmetry=t2
              MO Center= -1.6D-02,  1.7D-03, -4.6D-02, r^2= 3.9D+00
   Bfn.  Coefficient  Atom+Function         Bfn.  Coefficient  Atom+Function  
  ----- ------------  ---------------      ----- ------------  ---------------
   105     -3.478289  5 H  s                 86      3.252757  4 H  s          
    67      2.808316  3 H  s                 48     -2.582784  2 H  s          
    32     -2.538792  1 N  dxz               12      2.027575  1 N  py         
   115     -1.197834  5 H  pz               113     -1.166156  5 H  px         
    96      1.151274  4 H  pz                94     -1.087447  4 H  px         

 Vector   34  Occ=0.000000D+00  E= 4.492128D-01  Symmetry=e
              MO Center= -2.5D-14, -2.2D-14, -7.2D-15, r^2= 3.6D+00
   Bfn.  Coefficient  Atom+Function         Bfn.  Coefficient  Atom+Function  
  ----- ------------  ---------------      ----- ------------  ---------------
    30      2.554558  1 N  dxx               33     -1.822920  1 N  dyy        
    56     -1.000808  2 H  px                75      1.000808  3 H  px         
    94     -1.000808  4 H  px               113      1.000808  5 H  px         
    35     -0.731638  1 N  dzz               57      0.714172  2 H  py         
    76     -0.714172  3 H  py                95     -0.714172  4 H  py         

 Vector   35  Occ=0.000000D+00  E= 4.492128D-01  Symmetry=e
              MO Center= -4.4D-16, -2.1D-14, -1.3D-14, r^2= 3.6D+00
   Bfn.  Coefficient  Atom+Function         Bfn.  Coefficient  Atom+Function  
  ----- ------------  ---------------      ----- ------------  ---------------
    35      2.527338  1 N  dzz               33     -1.897286  1 N  dyy        
    58     -0.990144  2 H  pz                77     -0.990144  3 H  pz         
    96      0.990144  4 H  pz               115      0.990144  5 H  pz         
    57      0.743306  2 H  py                76     -0.743306  3 H  py         
    95     -0.743306  4 H  py               114      0.743306  5 H  py         

 Vector   36  Occ=0.000000D+00  E= 6.117767D-01  Symmetry=t2
              MO Center= -7.0D-02,  2.3D-01, -4.0D-02, r^2= 4.4D+00
   Bfn.  Coefficient  Atom+Function         Bfn.  Coefficient  Atom+Function  
  ----- ------------  ---------------      ----- ------------  ---------------
   105      6.084647  5 H  s                 48     -4.859909  2 H  s          
   104      4.227067  5 H  s                 31      3.840146  1 N  dxy        
    47     -3.376229  2 H  s                 13      3.034892  1 N  pz         
   115      2.574673  5 H  pz                58      2.268124  2 H  pz         
    34      2.212027  1 N  dyz              113      2.128779  5 H  px         


 center of mass
 --------------
 x =   0.00000000 y =   0.00000000 z =   0.00000000

 moments of inertia (a.u.)
 ------------------
          10.152759392735           0.000000000000           0.000000000000
           0.000000000000          10.152759392735           0.000000000000
           0.000000000000           0.000000000000          10.152759392735

     Multipole analysis of the density
     ---------------------------------

     L   x y z        total         alpha         beta         nuclear
     -   - - -        -----         -----         ----         -------
     0   0 0 0      1.000000     -5.000000     -5.000000     11.000000

     1   1 0 0      0.000000      0.000000      0.000000      0.000000
     1   0 1 0      0.000000      0.000000      0.000000      0.000000
     1   0 0 1      0.000000      0.000000      0.000000      0.000000

     2   2 0 0     -3.352888     -4.194927     -4.194927      5.036965
     2   1 1 0      0.000000      0.000000      0.000000      0.000000
     2   1 0 1     -0.000000     -0.000000     -0.000000      0.000000
     2   0 2 0     -3.352888     -4.194927     -4.194927      5.036965
     2   0 1 1      0.000000      0.000000      0.000000      0.000000
     2   0 0 2     -3.352888     -4.194927     -4.194927      5.036965


------------------------------------------------------------
EAF file 0: "./NH4+.xyz.aoints.00" size=1572864 bytes
------------------------------------------------------------
               write      read    awrite     aread      wait
               -----      ----    ------     -----      ----
     calls:        3         7         0        14        14
   data(b): 1.57e+06  3.67e+06  0.00e+00  7.34e+06
   time(s): 0.00e+00  0.00e+00  0.00e+00  0.00e+00  0.00e+00
rate(mb/s): 0.00e+00  0.00e+00
------------------------------------------------------------


 Parallel integral file used     105 records with       0 large values


 Task  times  cpu:        1.5s     wall:        2.1s


                                NWChem Input Module
                                -------------------


 Summary of allocated global arrays
-----------------------------------
  No active global arrays



                         GA Statistics for process    0
                         ------------------------------

       create   destroy   get      put      acc     scatter   gather  read&inc
calls:  246      246     2429     1286     1177        0        0      135     
number of processes/call 2.46e+00 1.68e+00 2.34e+00 0.00e+00 0.00e+00
bytes total:             3.61e+07 5.07e+06 1.97e+07 0.00e+00 0.00e+00 1.08e+03
bytes remote:            3.08e+07 2.66e+06 1.76e+07 0.00e+00 0.00e+00 0.00e+00
Max memory consumed for GA by this process: 583200 bytes

MA_summarize_allocated_blocks: starting scan ...
MA_summarize_allocated_blocks: scan completed: 0 heap blocks, 0 stack blocks
MA usage statistics:

	allocation statistics:
					      heap	     stack
					      ----	     -----
	current number of blocks	         0	         0
	maximum number of blocks	        24	        55
	current total bytes		         0	         0
	maximum total bytes		   2323000	  24004328
	maximum total K-bytes		      2323	     24005
	maximum total M-bytes		         3	        25


                                     CITATION
                                     --------
                Please cite the following reference when publishing
                           results obtained with NWChem:

                 M. Valiev, E.J. Bylaska, N. Govind, K. Kowalski,
              T.P. Straatsma, H.J.J. van Dam, D. Wang, J. Nieplocha,
                        E. Apra, T.L. Windus, W.A. de Jong
                 "NWChem: a comprehensive and scalable open-source
                  solution for large scale molecular simulations"
                      Comput. Phys. Commun. 181, 1477 (2010)
                           doi:10.1016/j.cpc.2010.04.018

                                      AUTHORS
                                      -------
          E. Apra, E. J. Bylaska, W. A. de Jong, N. Govind, K. Kowalski,
       T. P. Straatsma, M. Valiev, H. J. J. van Dam, D. Wang, T. L. Windus,
        J. Hammond, J. Autschbach, K. Bhaskaran-Nair, J. Brabec, K. Lopata,
       S. A. Fischer, S. Krishnamoorthy, W. Ma, M. Klemm, O. Villa, Y. Chen,
    V. Anisimov, F. Aquino, S. Hirata, M. T. Hackler, T. Risthaus, M. Malagoli,
       A. Marenich, A. Otero-de-la-Roza, J. Mullin, P. Nichols, R. Peverati,
     J. Pittner, Y. Zhao, P.-D. Fan, A. Fonari, M. Williamson, R. J. Harrison,
       J. R. Rehr, M. Dupuis, D. Silverstein, D. M. A. Smith, J. Nieplocha,
        V. Tipparaju, M. Krishnan, B. E. Van Kuiken, A. Vazquez-Mayagoitia,
        L. Jensen, M. Swart, Q. Wu, T. Van Voorhis, A. A. Auer, M. Nooijen,
      L. D. Crosby, E. Brown, G. Cisneros, G. I. Fann, H. Fruchtl, J. Garza,
        K. Hirao, R. A. Kendall, J. A. Nichols, K. Tsemekhman, K. Wolinski,
     J. Anchell, D. E. Bernholdt, P. Borowski, T. Clark, D. Clerc, H. Dachsel,
   M. J. O. Deegan, K. Dyall, D. Elwood, E. Glendening, M. Gutowski, A. C. Hess,
         J. Jaffe, B. G. Johnson, J. Ju, R. Kobayashi, R. Kutteh, Z. Lin,
   R. Littlefield, X. Long, B. Meng, T. Nakajima, S. Niu, L. Pollack, M. Rosing,
   K. Glaesemann, G. Sandrone, M. Stave, H. Taylor, G. Thomas, J. H. van Lenthe,
                               A. T. Wong, Z. Zhang.

 Total times  cpu:        1.6s     wall:        2.3s
