[1537784530.394283] [r8n4:12689:0]         sys.c:744  MXM  WARN  Conflicting CPU frequencies detected, using: 2499.99
[1537784530.396045] [r8n4:12690:0]         sys.c:744  MXM  WARN  Conflicting CPU frequencies detected, using: 2499.99
[1537784530.405796] [r8n4:12695:0]         sys.c:744  MXM  WARN  Conflicting CPU frequencies detected, using: 2499.99
[1537784530.407045] [r8n4:12691:0]         sys.c:744  MXM  WARN  Conflicting CPU frequencies detected, using: 2499.99
[1537784530.407145] [r8n4:12693:0]         sys.c:744  MXM  WARN  Conflicting CPU frequencies detected, using: 2499.99
[1537784530.407222] [r8n4:12692:0]         sys.c:744  MXM  WARN  Conflicting CPU frequencies detected, using: 2499.99
[1537784530.407328] [r8n4:12694:0]         sys.c:744  MXM  WARN  Conflicting CPU frequencies detected, using: 2499.99
[1537784530.424418] [r8n4:12698:0]         sys.c:744  MXM  WARN  Conflicting CPU frequencies detected, using: 2499.99
[1537784530.424688] [r8n4:12696:0]         sys.c:744  MXM  WARN  Conflicting CPU frequencies detected, using: 2499.99
[1537784530.452647] [r8n4:12710:0]         sys.c:744  MXM  WARN  Conflicting CPU frequencies detected, using: 2499.99
[1537784530.452719] [r8n4:12702:0]         sys.c:744  MXM  WARN  Conflicting CPU frequencies detected, using: 2499.99
[1537784530.452723] [r8n4:12706:0]         sys.c:744  MXM  WARN  Conflicting CPU frequencies detected, using: 2499.99
[1537784530.452725] [r8n4:12708:0]         sys.c:744  MXM  WARN  Conflicting CPU frequencies detected, using: 2499.99
[1537784530.453005] [r8n4:12700:0]         sys.c:744  MXM  WARN  Conflicting CPU frequencies detected, using: 2499.99
[1537784530.453103] [r8n4:12704:0]         sys.c:744  MXM  WARN  Conflicting CPU frequencies detected, using: 2499.99
[1537784530.453217] [r8n4:12713:0]         sys.c:744  MXM  WARN  Conflicting CPU frequencies detected, using: 2499.99
 argument  1 = /storage/home/bikashp/nwchem_run/rabeet/pa8/nwpa8/NH3.xyz.nw
                                         
                                         


              Northwest Computational Chemistry Package (NWChem) 6.6
              ------------------------------------------------------


                    Environmental Molecular Sciences Laboratory
                       Pacific Northwest National Laboratory
                                Richland, WA 99352

                              Copyright (c) 1994-2015
                       Pacific Northwest National Laboratory
                            Battelle Memorial Institute

             NWChem is an open-source computational chemistry package
                        distributed under the terms of the
                      Educational Community License (ECL) 2.0
             A copy of the license is included with this distribution
                              in the LICENSE.TXT file

                                  ACKNOWLEDGMENT
                                  --------------

            This software and its documentation were developed at the
            EMSL at Pacific Northwest National Laboratory, a multiprogram
            national laboratory, operated for the U.S. Department of Energy
            by Battelle under Contract Number DE-AC05-76RL01830. Support
            for this work was provided by the Department of Energy Office
            of Biological and Environmental Research, Office of Basic
            Energy Sciences, and the Office of Advanced Scientific Computing.


           Job information
           ---------------

    hostname        = r8n4.niserhpc.org
    program         = /home/bikashp/Code/nwchem-6.6_tpssloc/bin/LINUX64/nwchem
    date            = Mon Sep 24 15:52:13 2018

    compiled        = Tue_Sep_18_16:24:59_2018
    source          = /home/bikashp/Code/nwchem-6.6_tpssloc
    nwchem branch   = 6.6
    nwchem revision = 27746
    ga revision     = 10594
    input           = /storage/home/bikashp/nwchem_run/rabeet/pa8/nwpa8/NH3.xyz.nw
    prefix          = NH3.xyz.
    data base       = ./NH3.xyz.db
    status          = startup
    nproc           =       16
    time left       =     -1s



           Memory information
           ------------------

    heap     =   13107196 doubles =    100.0 Mbytes
    stack    =   13107201 doubles =    100.0 Mbytes
    global   =   26214400 doubles =    200.0 Mbytes (distinct from heap & stack)
    total    =   52428797 doubles =    400.0 Mbytes
    verify   = yes
    hardfail = no 


           Directory information
           ---------------------

  0 permanent = .
  0 scratch   = .




                                NWChem Input Module
                                -------------------



 Scaling coordinates for geometry "geometry" by  1.889725989
 (inverse scale =  0.529177249)

 C3V symmetry detected

          ------
          auto-z
          ------
  Looking for out-of-plane bends


                             Geometry "geometry" -> ""
                             -------------------------

 Output coordinates in angstroms (scale by  1.889725989 to convert to a.u.)

  No.       Tag          Charge          X              Y              Z
 ---- ---------------- ---------- -------------- -------------- --------------
    1 N                    7.0000     0.00000000     0.00000000     0.11649000
    2 H                    1.0000    -0.66448826    -0.66448826    -0.27181000
    3 H                    1.0000    -0.24321958     0.90770784    -0.27181000
    4 H                    1.0000     0.90770784    -0.24321958    -0.27181000

      Atomic Mass 
      ----------- 

      N                 14.003070
      H                  1.007825


 Effective nuclear repulsion energy (a.u.)      11.9045457950

            Nuclear Dipole moment (a.u.) 
            ----------------------------
        X                 Y               Z
 ---------------- ---------------- ----------------
    -0.0000000000     0.0000000000     0.0000000000

      Symmetry information
      --------------------

 Group name             C3v       
 Group number             17
 Group order               6
 No. of unique centers     2

      Symmetry unique atoms

     1    2



                                Z-matrix (autoz)
                                -------- 

 Units are Angstrom for bonds and degrees for angles

      Type          Name      I     J     K     L     M      Value
      ----------- --------  ----- ----- ----- ----- ----- ----------
    1 Stretch                  1     2                       1.01679
    2 Stretch                  1     3                       1.01679
    3 Stretch                  1     4                       1.01679
    4 Bend                     2     1     3               106.33441
    5 Bend                     2     1     4               106.33441
    6 Bend                     3     1     4               106.33441
    7 Torsion                  2     1     3     4        -113.03486
    8 Torsion                  2     1     4     3         113.03486
    9 Torsion                  3     1     2     4         113.03486
   10 Torsion                  2     4     1     3        -113.03486
   11 Torsion                  3     2     1     4        -113.03486
   12 Torsion                  2     3     1     4         113.03486


            XYZ format geometry
            -------------------
     4
 geometry
 N                     0.00000000     0.00000000     0.11649000
 H                    -0.66448826    -0.66448826    -0.27181000
 H                    -0.24321958     0.90770784    -0.27181000
 H                     0.90770784    -0.24321958    -0.27181000

 ==============================================================================
                                internuclear distances
 ------------------------------------------------------------------------------
       center one      |      center two      | atomic units |  angstroms
 ------------------------------------------------------------------------------
    2 H                |   1 N                |     1.92146  |     1.01679
    3 H                |   1 N                |     1.92146  |     1.01679
    4 H                |   1 N                |     1.92146  |     1.01679
 ------------------------------------------------------------------------------
                         number of included internuclear distances:          3
 ==============================================================================



 ==============================================================================
                                 internuclear angles
 ------------------------------------------------------------------------------
        center 1       |       center 2       |       center 3       |  degrees
 ------------------------------------------------------------------------------
    2 H                |   1 N                |   3 H                |   106.33
    2 H                |   1 N                |   4 H                |   106.33
    3 H                |   1 N                |   4 H                |   106.33
 ------------------------------------------------------------------------------
                            number of included internuclear angles:          3
 ==============================================================================





 Summary of "ao basis" -> "" (cartesian)
 ------------------------------------------------------------------------------
       Tag                 Description            Shells   Functions and Types
 ---------------- ------------------------------  ------  ---------------------
 *                     6-311++G(3df,3pd)              on all atoms 



                                 NWChem DFT Module
                                 -----------------


                      Basis "ao basis" -> "ao basis" (cartesian)
                      -----
  N (Nitrogen)
  ------------
            Exponent  Coefficients 
       -------------- ---------------------------------------------------------
  1 S  6.29348000E+03  0.001970
  1 S  9.49044000E+02  0.014961
  1 S  2.18776000E+02  0.073501
  1 S  6.36916000E+01  0.248937
  1 S  1.88282000E+01  0.602460
  1 S  2.72023000E+00  0.256202

  2 S  3.06331000E+01  0.111906
  2 S  7.02614000E+00  0.921666
  2 S  2.11205000E+00 -0.002569

  3 P  3.06331000E+01  0.038312
  3 P  7.02614000E+00  0.237403
  3 P  2.11205000E+00  0.817592

  4 S  6.84009000E-01  1.000000

  5 P  6.84009000E-01  1.000000

  6 S  2.00878000E-01  1.000000

  7 P  2.00878000E-01  1.000000

  8 S  6.39000000E-02  1.000000

  9 P  6.39000000E-02  1.000000

 10 D  3.65200000E+00  1.000000

 11 D  9.13000000E-01  1.000000

 12 D  2.28250000E-01  1.000000

 13 F  1.00000000E+00  1.000000

  H (Hydrogen)
  ------------
            Exponent  Coefficients 
       -------------- ---------------------------------------------------------
  1 S  3.38650000E+01  0.025494
  1 S  5.09479000E+00  0.190373
  1 S  1.15879000E+00  0.852161

  2 S  3.25840000E-01  1.000000

  3 S  1.02741000E-01  1.000000

  4 S  3.60000000E-02  1.000000

  5 P  3.00000000E+00  1.000000

  6 P  7.50000000E-01  1.000000

  7 P  1.87500000E-01  1.000000

  8 D  1.00000000E+00  1.000000



 Summary of "ao basis" -> "ao basis" (cartesian)
 ------------------------------------------------------------------------------
       Tag                 Description            Shells   Functions and Types
 ---------------- ------------------------------  ------  ---------------------
 N                     6-311++G(3df,3pd)            13       45   5s4p3d1f
 H                     6-311++G(3df,3pd)             8       19   4s3p1d




 Summary of "ao basis" -> "ao basis" (cartesian)
 ------------------------------------------------------------------------------
       Tag                 Description            Shells   Functions and Types
 ---------------- ------------------------------  ------  ---------------------
 N                     6-311++G(3df,3pd)            13       45   5s4p3d1f
 H                     6-311++G(3df,3pd)             8       19   4s3p1d


      Symmetry analysis of basis
      --------------------------

        a1         32
        a2          6
        e          64

  Caching 1-el integrals 
  Rotation of axis 

            General Information
            -------------------
          SCF calculation type: DFT
          Wavefunction type:  closed shell.
          No. of atoms     :     4
          No. of electrons :    10
           Alpha electrons :     5
            Beta electrons :     5
          Charge           :     0
          Spin multiplicity:     1
          Use of symmetry is: on ; symmetry adaption is: on 
          Maximum number of iterations: ***
          AO basis - number of functions:   102
                     number of shells:    37
          Convergence on energy requested: 1.00D-06
          Convergence on density requested: 1.00D-05
          Convergence on gradient requested: 5.00D-04

              XC Information
              --------------
                  TPSS metaGGA Exchange Functional  1.000          
             TPSS03 metaGGA Correlation Functional  1.000          

             Grid Information
             ----------------
          Grid used for XC integration:  medium    
          Radial quadrature: Mura-Knowles        
          Angular quadrature: Lebedev. 
          Tag              B.-S. Rad. Rad. Pts. Rad. Cut. Ang. Pts.
          ---              ---------- --------- --------- ---------
          N                   0.65       49           9.0       434
          H                   0.35       45          11.0       434
          Grid pruning is: on 
          Number of quadrature shells:    94
          Spatial weights used:  Erf1

          Convergence Information
          -----------------------
          Convergence aids based upon iterative change in 
          total energy or number of iterations. 
          Levelshifting, if invoked, occurs when the 
          HOMO/LUMO gap drops below (HL_TOL): 1.00D-02
          DIIS, if invoked, will attempt to extrapolate 
          using up to (NFOCK): 10 stored Fock matrices.

                    Damping( 0%)  Levelshifting(0.5)       DIIS
                  --------------- ------------------- ---------------
          dE  on:    start            ASAP                start   
          dE off:    2 iters        *** iters           *** iters 


      Screening Tolerance Information
      -------------------------------
          Density screening/tol_rho: 1.00D-10
          AO Gaussian exp screening on grid/accAOfunc:  14
          CD Gaussian exp screening on grid/accCDfunc:  20
          XC Gaussian exp screening on grid/accXCfunc:  20
          Schwarz screening/accCoul: 1.00D-08


      Superposition of Atomic Density Guess
      -------------------------------------

 Sum of atomic energies:         -55.80742251

      Non-variational initial energy
      ------------------------------

 Total energy =     -56.206331
 1-e energy   =     -98.094595
 2-e energy   =      29.983718
 HOMO         =      -0.385451
 LUMO         =       0.016895


      Symmetry analysis of molecular orbitals - initial
      -------------------------------------------------

  Numbering of irreducible representations: 

     1 a1          2 a2          3 e       

  Orbital symmetries:

     1 a1          2 a1          3 e           4 e           5 a1      
     6 a1          7 e           8 e           9 a1         10 a1      
    11 e          12 e          13 e          14 e          15 a1      

   Time after variat. SCF:      0.5
   Time prior to 1st pass:      0.5

 Integral file          = ./NH3.xyz.aoints.00
 Record size in doubles =    65536    No. of integs per rec  =    43688
 Max. records in memory =        7    Max. records in file   = 11667842
 No. of bits per label  =        8    No. of bits per value  =       64


 #quartets = 7.257D+04 #integrals = 4.010D+06 #direct =  0.0% #cached =100.0%


File balance: exchanges=     0  moved=     0  time=   0.0


 Grid_pts file          = ./NH3.xyz.gridpts.00
 Record size in doubles =  12289        No. of grid_pts per rec  =   3070
 Max. records in memory =      2        Max. recs in file   =  62223431


           Memory utilization after 1st SCF pass: 
           Heap Space remaining (MW):       12.62            12620604
          Stack Space remaining (MW):       13.11            13106524

   convergence    iter        energy       DeltaE   RMS-Dens  Diis-err    time
 ---------------- ----- ----------------- --------- --------- ---------  ------
 d= 0,ls=0.0,diis     1    -56.5588211228 -6.85D+01  1.16D-02  5.17D-01     0.9
 d= 0,ls=0.0,diis     2    -56.4784190036  8.04D-02  6.31D-03  7.47D-01     1.0
 d= 0,ls=0.0,diis     3    -56.5740972699 -9.57D-02  1.00D-03  4.75D-02     1.1
 d= 0,ls=0.0,diis     4    -56.5709796113  3.12D-03  2.98D-04  6.71D-04     1.2
 d= 0,ls=0.0,diis     5    -56.5707824287  1.97D-04  1.49D-04  1.11D-04     1.3
  Resetting Diis
 d= 0,ls=0.0,diis     6    -56.5707354637  4.70D-05  2.26D-05  6.13D-06     1.4
 d= 0,ls=0.0,diis     7    -56.5708261192 -9.07D-05  3.30D-06  7.31D-09     1.5
 d= 0,ls=0.0,diis     8    -56.5708288081 -2.69D-06  5.94D-07  5.98D-09     1.6
 d= 0,ls=0.0,diis     9    -56.5708260348  2.77D-06  1.98D-07  1.28D-09     1.7
 d= 0,ls=0.0,diis    10    -56.5708270371 -1.00D-06  1.24D-07  3.00D-11     1.8
 d= 0,ls=0.0,diis    11    -56.5708269265  1.11D-07  1.49D-08  5.49D-13     1.9


         Total DFT energy =      -56.570826926486
      One electron energy =      -99.253221276012
           Coulomb energy =       38.733545629137
          Exchange energy =       -7.639067173133
       Correlation energy =       -0.316629901511
 Nuclear repulsion energy =       11.904545795034

 Numeric. integr. density =        9.999998860235

     Total iterative time =      1.4s



                  Occupations of the irreducible representations
                  ----------------------------------------------

                     irrep           alpha         beta
                     --------     --------     --------
                     a1                3.0          3.0
                     a2                0.0          0.0
                     e                 2.0          2.0


                       DFT Final Molecular Orbital Analysis
                       ------------------------------------

 Vector    1  Occ=2.000000D+00  E=-1.415738D+01  Symmetry=a1
              MO Center=  6.1D-21, -6.0D-21,  1.2D-01, r^2= 2.0D-02
   Bfn.  Coefficient  Atom+Function         Bfn.  Coefficient  Atom+Function  
  ----- ------------  ---------------      ----- ------------  ---------------
     1      0.556660  1 N  s                  2      0.467417  1 N  s          

 Vector    2  Occ=2.000000D+00  E=-8.491332D-01  Symmetry=a1
              MO Center= -8.8D-16, -2.7D-15, -8.5D-02, r^2= 7.1D-01
   Bfn.  Coefficient  Atom+Function         Bfn.  Coefficient  Atom+Function  
  ----- ------------  ---------------      ----- ------------  ---------------
    10      0.586648  1 N  s                  6      0.482216  1 N  s          
     2     -0.195342  1 N  s          

 Vector    3  Occ=2.000000D+00  E=-4.770927D-01  Symmetry=e
              MO Center=  1.5D-01,  7.5D-02, -5.1D-02, r^2= 9.9D-01
   Bfn.  Coefficient  Atom+Function         Bfn.  Coefficient  Atom+Function  
  ----- ------------  ---------------      ----- ------------  ---------------
    11      0.327856  1 N  px                 7      0.247223  1 N  px         
    12     -0.236289  1 N  py                 3      0.184891  1 N  px         
     8     -0.178176  1 N  py                84      0.151524  4 H  s          

 Vector    4  Occ=2.000000D+00  E=-4.770927D-01  Symmetry=e
              MO Center= -1.5D-01, -7.5D-02, -5.1D-02, r^2= 9.9D-01
   Bfn.  Coefficient  Atom+Function         Bfn.  Coefficient  Atom+Function  
  ----- ------------  ---------------      ----- ------------  ---------------
    12      0.327856  1 N  py                 8      0.247223  1 N  py         
    11      0.236289  1 N  px                 4      0.184891  1 N  py         
     7      0.178176  1 N  px                46     -0.159974  2 H  s          

 Vector    5  Occ=2.000000D+00  E=-3.008510D-01  Symmetry=a1
              MO Center=  1.1D-18, -1.1D-17,  2.3D-01, r^2= 1.0D+00
   Bfn.  Coefficient  Atom+Function         Bfn.  Coefficient  Atom+Function  
  ----- ------------  ---------------      ----- ------------  ---------------
    13      0.486630  1 N  pz                 9      0.325352  1 N  pz         
    10      0.259486  1 N  s                  5      0.256733  1 N  pz         
    14     -0.172627  1 N  s          

 Vector    6  Occ=0.000000D+00  E=-3.740821D-02  Symmetry=a1
              MO Center=  6.7D-17,  2.5D-16, -5.4D-01, r^2= 6.5D+00
   Bfn.  Coefficient  Atom+Function         Bfn.  Coefficient  Atom+Function  
  ----- ------------  ---------------      ----- ------------  ---------------
    14      0.910308  1 N  s                 49     -0.441184  2 H  s          
    68     -0.441184  3 H  s                 87     -0.441184  4 H  s          
    10      0.430470  1 N  s                 48     -0.245536  2 H  s          
    67     -0.245536  3 H  s                 86     -0.245536  4 H  s          
     6      0.231036  1 N  s          

 Vector    7  Occ=0.000000D+00  E= 2.594263D-02  Symmetry=e
              MO Center= -7.0D-01, -1.6D-01, -5.2D-01, r^2= 9.8D+00
   Bfn.  Coefficient  Atom+Function         Bfn.  Coefficient  Atom+Function  
  ----- ------------  ---------------      ----- ------------  ---------------
    49      2.434537  2 H  s                 68     -1.823058  3 H  s          
    87     -0.611480  4 H  s                 16      0.522060  1 N  py         
    15      0.289017  1 N  px                48      0.279709  2 H  s          
    67     -0.209455  3 H  s          

 Vector    8  Occ=0.000000D+00  E= 2.594263D-02  Symmetry=e
              MO Center=  7.0D-01,  1.6D-01, -5.2D-01, r^2= 9.8D+00
   Bfn.  Coefficient  Atom+Function         Bfn.  Coefficient  Atom+Function  
  ----- ------------  ---------------      ----- ------------  ---------------
    87      2.458124  4 H  s                 68     -1.758619  3 H  s          
    49     -0.699505  2 H  s                 15     -0.522060  1 N  px         
    16      0.289017  1 N  py                86      0.282419  4 H  s          
    67     -0.202051  3 H  s          

 Vector    9  Occ=0.000000D+00  E= 8.282042D-02  Symmetry=a1
              MO Center=  1.2D-12,  3.4D-13,  4.6D-02, r^2= 8.4D+00
   Bfn.  Coefficient  Atom+Function         Bfn.  Coefficient  Atom+Function  
  ----- ------------  ---------------      ----- ------------  ---------------
    14      7.270827  1 N  s                 48     -2.747797  2 H  s          
    67     -2.747797  3 H  s                 86     -2.747797  4 H  s          
    17     -2.436275  1 N  pz                10      1.826004  1 N  s          
    49     -0.747459  2 H  s                 68     -0.747459  3 H  s          
    87     -0.747459  4 H  s                 76      0.372108  3 H  py         

 Vector   10  Occ=0.000000D+00  E= 9.315247D-02  Symmetry=e
              MO Center= -9.5D-02, -2.9D-01,  2.7D-01, r^2= 5.5D+00
   Bfn.  Coefficient  Atom+Function         Bfn.  Coefficient  Atom+Function  
  ----- ------------  ---------------      ----- ------------  ---------------
    67      3.661094  3 H  s                 86     -2.772154  4 H  s          
    16     -1.677778  1 N  py                12     -1.134345  1 N  py         
    15      1.029771  1 N  px                48     -0.888940  2 H  s          
    66      0.761435  3 H  s                 11      0.696228  1 N  px         
    85     -0.576553  4 H  s                 76     -0.506093  3 H  py         

 Vector   11  Occ=0.000000D+00  E= 9.315247D-02  Symmetry=e
              MO Center=  9.5D-02,  2.9D-01,  2.7D-01, r^2= 5.5D+00
   Bfn.  Coefficient  Atom+Function         Bfn.  Coefficient  Atom+Function  
  ----- ------------  ---------------      ----- ------------  ---------------
    48      3.714237  2 H  s                 86     -2.626963  4 H  s          
    15      1.677778  1 N  px                11      1.134345  1 N  px         
    67     -1.087274  3 H  s                 16      1.029771  1 N  py         
    47      0.772488  2 H  s                 12      0.696228  1 N  py         
    85     -0.546357  4 H  s                 56      0.400281  2 H  px         

 Vector   12  Occ=0.000000D+00  E= 1.089248D-01  Symmetry=a1
              MO Center= -5.2D-14, -1.3D-14, -7.7D-01, r^2= 1.0D+01
   Bfn.  Coefficient  Atom+Function         Bfn.  Coefficient  Atom+Function  
  ----- ------------  ---------------      ----- ------------  ---------------
    14      2.901346  1 N  s                 49     -0.971547  2 H  s          
    68     -0.971547  3 H  s                 87     -0.971547  4 H  s          
    10     -0.538648  1 N  s                 48      0.495314  2 H  s          
    67      0.495314  3 H  s                 86      0.495314  4 H  s          
    35     -0.453702  1 N  dzz                6     -0.426024  1 N  s          

 Vector   13  Occ=0.000000D+00  E= 1.625724D-01  Symmetry=e
              MO Center=  2.8D-01, -3.2D-01, -2.5D-01, r^2= 1.0D+01
   Bfn.  Coefficient  Atom+Function         Bfn.  Coefficient  Atom+Function  
  ----- ------------  ---------------      ----- ------------  ---------------
    87      3.629460  4 H  s                 49     -2.768680  2 H  s          
    15     -2.655181  1 N  px                68     -0.860781  3 H  s          
    86      0.644130  4 H  s                 48     -0.491365  2 H  s          
    32      0.222207  1 N  dxz                7      0.216272  1 N  px         
     3      0.165562  1 N  px                96      0.154676  4 H  pz         

 Vector   14  Occ=0.000000D+00  E= 1.625724D-01  Symmetry=e
              MO Center= -2.8D-01,  3.2D-01, -2.5D-01, r^2= 1.0D+01
   Bfn.  Coefficient  Atom+Function         Bfn.  Coefficient  Atom+Function  
  ----- ------------  ---------------      ----- ------------  ---------------
    68      3.693968  3 H  s                 16     -2.655181  1 N  py         
    49     -2.592442  2 H  s                 87     -1.101526  4 H  s          
    67      0.655578  3 H  s                 48     -0.460087  2 H  s          
    34      0.222207  1 N  dyz                8      0.216272  1 N  py         
    86     -0.195491  4 H  s                  4      0.165562  1 N  py         

 Vector   15  Occ=0.000000D+00  E= 1.716650D-01  Symmetry=a1
              MO Center= -5.3D-14, -2.5D-14,  5.5D-01, r^2= 5.8D+00
   Bfn.  Coefficient  Atom+Function         Bfn.  Coefficient  Atom+Function  
  ----- ------------  ---------------      ----- ------------  ---------------
    14     11.753020  1 N  s                 48     -4.728686  2 H  s          
    67     -4.728686  3 H  s                 86     -4.728686  4 H  s          
    10      3.374867  1 N  s                 17     -1.670894  1 N  pz         
    13     -1.018839  1 N  pz                49     -0.750386  2 H  s          
    68     -0.750386  3 H  s                 87     -0.750386  4 H  s          

 Vector   16  Occ=0.000000D+00  E= 2.291579D-01  Symmetry=e
              MO Center=  6.1D-02,  3.8D-02, -2.0D-01, r^2= 3.6D+00
   Bfn.  Coefficient  Atom+Function         Bfn.  Coefficient  Atom+Function  
  ----- ------------  ---------------      ----- ------------  ---------------
    48      1.836053  2 H  s                 67     -1.104101  3 H  s          
    16      1.000339  1 N  py                12      0.856423  1 N  py         
    15      0.790742  1 N  px                95     -0.787182  4 H  py         
    86     -0.731952  4 H  s                 75     -0.725845  3 H  px         
    11      0.676980  1 N  px                56      0.480697  2 H  px         

 Vector   17  Occ=0.000000D+00  E= 2.291579D-01  Symmetry=e
              MO Center= -6.1D-02, -3.8D-02, -2.0D-01, r^2= 3.6D+00
   Bfn.  Coefficient  Atom+Function         Bfn.  Coefficient  Atom+Function  
  ----- ------------  ---------------      ----- ------------  ---------------
    86      1.697499  4 H  s                 67     -1.482639  3 H  s          
    15     -1.000339  1 N  px                11     -0.856423  1 N  px         
    16      0.790742  1 N  py                12      0.676980  1 N  py         
    57     -0.623906  2 H  py                94     -0.606013  4 H  px         
    76      0.582636  3 H  py                56      0.527165  2 H  px         

 Vector   18  Occ=0.000000D+00  E= 3.420464D-01  Symmetry=e
              MO Center=  2.1D-02,  2.2D-02,  2.9D-01, r^2= 6.5D+00
   Bfn.  Coefficient  Atom+Function         Bfn.  Coefficient  Atom+Function  
  ----- ------------  ---------------      ----- ------------  ---------------
    67      7.291128  3 H  s                 86     -7.199767  4 H  s          
    12     -2.513472  1 N  py                11      2.459170  1 N  px         
    16     -2.044017  1 N  py                15      1.999857  1 N  px         
    76     -1.676922  3 H  py                94      1.656455  4 H  px         
    66      1.358556  3 H  s                 85     -1.341533  4 H  s          

 Vector   19  Occ=0.000000D+00  E= 3.420464D-01  Symmetry=e
              MO Center= -2.1D-02, -2.2D-02,  2.9D-01, r^2= 6.5D+00
   Bfn.  Coefficient  Atom+Function         Bfn.  Coefficient  Atom+Function  
  ----- ------------  ---------------      ----- ------------  ---------------
    48      8.366322  2 H  s                 86     -4.262282  4 H  s          
    67     -4.104040  3 H  s                 11      2.513472  1 N  px         
    12      2.459170  1 N  py                15      2.044017  1 N  px         
    16      1.999857  1 N  py                31     -1.633445  1 N  dxy        
    47      1.558897  2 H  s                 56      1.399005  2 H  px         

 Vector   20  Occ=0.000000D+00  E= 3.601094D-01  Symmetry=a1
              MO Center=  5.4D-13, -5.3D-13, -7.7D-01, r^2= 5.4D+00
   Bfn.  Coefficient  Atom+Function         Bfn.  Coefficient  Atom+Function  
  ----- ------------  ---------------      ----- ------------  ---------------
    14     12.372573  1 N  s                 48     -4.962407  2 H  s          
    67     -4.962407  3 H  s                 86     -4.962407  4 H  s          
    10      3.082623  1 N  s                 17     -3.089035  1 N  pz         
    13     -1.817456  1 N  pz                49     -0.808809  2 H  s          
    68     -0.808809  3 H  s                 87     -0.808809  4 H  s          

 Vector   21  Occ=0.000000D+00  E= 4.638206D-01  Symmetry=a1
              MO Center= -6.3D-14,  1.6D-13, -3.0D-01, r^2= 5.4D+00
   Bfn.  Coefficient  Atom+Function         Bfn.  Coefficient  Atom+Function  
  ----- ------------  ---------------      ----- ------------  ---------------
    14     10.743639  1 N  s                 10      8.624371  1 N  s          
    48     -7.501483  2 H  s                 67     -7.501483  3 H  s          
    86     -7.501483  4 H  s                 17     -2.054136  1 N  pz         
    30      1.965650  1 N  dxx               33      1.965650  1 N  dyy        
    76      1.738741  3 H  py                94      1.738741  4 H  px         

 Vector   22  Occ=0.000000D+00  E= 4.852095D-01  Symmetry=a2
              MO Center=  5.4D-14,  2.7D-14, -2.7D-01, r^2= 3.9D+00
   Bfn.  Coefficient  Atom+Function         Bfn.  Coefficient  Atom+Function  
  ----- ------------  ---------------      ----- ------------  ---------------
    75      1.202502  3 H  px                95     -1.202502  4 H  py         
    56     -0.880293  2 H  px                57      0.880293  2 H  py         
    76      0.322209  3 H  py                94     -0.322209  4 H  px         

 Vector   23  Occ=0.000000D+00  E= 5.066034D-01  Symmetry=e
              MO Center=  2.2D-01, -8.4D-02, -4.2D-01, r^2= 4.7D+00
   Bfn.  Coefficient  Atom+Function         Bfn.  Coefficient  Atom+Function  
  ----- ------------  ---------------      ----- ------------  ---------------
    86      1.944681  4 H  s                 87     -1.787449  4 H  s          
    15      1.361135  1 N  px                94     -1.305645  4 H  px         
    56     -1.233387  2 H  px                75     -1.199909  3 H  px         
    48     -1.061906  2 H  s                 49      0.976049  2 H  s          
    96     -0.923164  4 H  pz                67     -0.882775  3 H  s          


 center of mass
 --------------
 x =   0.00000000 y =   0.00000000 z =   0.08983368

 moments of inertia (a.u.)
 ------------------
           6.106229171605          -0.000000000000          -0.000000000000
          -0.000000000000           6.106229171605           0.000000000000
          -0.000000000000           0.000000000000           9.534735894723

     Multipole analysis of the density
     ---------------------------------

     L   x y z        total         alpha         beta         nuclear
     -   - - -        -----         -----         ----         -------
     0   0 0 0     -0.000000     -5.000000     -5.000000     10.000000

     1   1 0 0     -0.000000     -0.000000     -0.000000     -0.000000
     1   0 1 0     -0.000000     -0.000000     -0.000000      0.000000
     1   0 0 1     -0.599514     -0.299757     -0.299757      0.000000

     2   2 0 0     -4.853088     -4.791721     -4.791721      4.730353
     2   1 1 0      0.000000     -0.000000     -0.000000      0.000000
     2   1 0 1      0.000000     -0.000000     -0.000000      0.000000
     2   0 2 0     -4.853088     -4.791721     -4.791721      4.730353
     2   0 1 1     -0.000000     -0.000000     -0.000000     -0.000000
     2   0 0 2     -7.244165     -4.187438     -4.187438      1.130711


 Parallel integral file used     102 records with       0 large values


 Task  times  cpu:        1.6s     wall:        2.1s


                                NWChem Input Module
                                -------------------


 Summary of allocated global arrays
-----------------------------------
  No active global arrays



                         GA Statistics for process    0
                         ------------------------------

       create   destroy   get      put      acc     scatter   gather  read&inc
calls:  303      303     2285     1323      512        0        0      126     
number of processes/call 3.49e+00 1.96e+00 5.42e+00 0.00e+00 0.00e+00
bytes total:             3.04e+07 5.51e+06 1.44e+07 0.00e+00 0.00e+00 1.01e+03
bytes remote:            2.40e+07 2.42e+06 1.22e+07 0.00e+00 0.00e+00 0.00e+00
Max memory consumed for GA by this process: 583200 bytes

MA_summarize_allocated_blocks: starting scan ...
MA_summarize_allocated_blocks: scan completed: 0 heap blocks, 0 stack blocks
MA usage statistics:

	allocation statistics:
					      heap	     stack
					      ----	     -----
	current number of blocks	         0	         0
	maximum number of blocks	        24	        55
	current total bytes		         0	         0
	maximum total bytes		   3892344	  23654568
	maximum total K-bytes		      3893	     23655
	maximum total M-bytes		         4	        24


                                     CITATION
                                     --------
                Please cite the following reference when publishing
                           results obtained with NWChem:

                 M. Valiev, E.J. Bylaska, N. Govind, K. Kowalski,
              T.P. Straatsma, H.J.J. van Dam, D. Wang, J. Nieplocha,
                        E. Apra, T.L. Windus, W.A. de Jong
                 "NWChem: a comprehensive and scalable open-source
                  solution for large scale molecular simulations"
                      Comput. Phys. Commun. 181, 1477 (2010)
                           doi:10.1016/j.cpc.2010.04.018

                                      AUTHORS
                                      -------
          E. Apra, E. J. Bylaska, W. A. de Jong, N. Govind, K. Kowalski,
       T. P. Straatsma, M. Valiev, H. J. J. van Dam, D. Wang, T. L. Windus,
        J. Hammond, J. Autschbach, K. Bhaskaran-Nair, J. Brabec, K. Lopata,
       S. A. Fischer, S. Krishnamoorthy, W. Ma, M. Klemm, O. Villa, Y. Chen,
    V. Anisimov, F. Aquino, S. Hirata, M. T. Hackler, T. Risthaus, M. Malagoli,
       A. Marenich, A. Otero-de-la-Roza, J. Mullin, P. Nichols, R. Peverati,
     J. Pittner, Y. Zhao, P.-D. Fan, A. Fonari, M. Williamson, R. J. Harrison,
       J. R. Rehr, M. Dupuis, D. Silverstein, D. M. A. Smith, J. Nieplocha,
        V. Tipparaju, M. Krishnan, B. E. Van Kuiken, A. Vazquez-Mayagoitia,
        L. Jensen, M. Swart, Q. Wu, T. Van Voorhis, A. A. Auer, M. Nooijen,
      L. D. Crosby, E. Brown, G. Cisneros, G. I. Fann, H. Fruchtl, J. Garza,
        K. Hirao, R. A. Kendall, J. A. Nichols, K. Tsemekhman, K. Wolinski,
     J. Anchell, D. E. Bernholdt, P. Borowski, T. Clark, D. Clerc, H. Dachsel,
   M. J. O. Deegan, K. Dyall, D. Elwood, E. Glendening, M. Gutowski, A. C. Hess,
         J. Jaffe, B. G. Johnson, J. Ju, R. Kobayashi, R. Kutteh, Z. Lin,
   R. Littlefield, X. Long, B. Meng, T. Nakajima, S. Niu, L. Pollack, M. Rosing,
   K. Glaesemann, G. Sandrone, M. Stave, H. Taylor, G. Thomas, J. H. van Lenthe,
                               A. T. Wong, Z. Zhang.

 Total times  cpu:        1.6s     wall:        2.3s
