[1537784550.528164] [r8n4:13190:0]         sys.c:744  MXM  WARN  Conflicting CPU frequencies detected, using: 2499.99
[1537784550.530738] [r8n4:13193:0]         sys.c:744  MXM  WARN  Conflicting CPU frequencies detected, using: 2499.99
[1537784550.530873] [r8n4:13191:0]         sys.c:744  MXM  WARN  Conflicting CPU frequencies detected, using: 2499.99
[1537784550.531138] [r8n4:13194:0]         sys.c:744  MXM  WARN  Conflicting CPU frequencies detected, using: 2499.99
[1537784550.532094] [r8n4:13192:0]         sys.c:744  MXM  WARN  Conflicting CPU frequencies detected, using: 2499.99
[1537784550.542577] [r8n4:13196:0]         sys.c:744  MXM  WARN  Conflicting CPU frequencies detected, using: 2499.99
[1537784550.543458] [r8n4:13195:0]         sys.c:744  MXM  WARN  Conflicting CPU frequencies detected, using: 2499.99
[1537784550.552451] [r8n4:13197:0]         sys.c:744  MXM  WARN  Conflicting CPU frequencies detected, using: 2499.99
[1537784550.552749] [r8n4:13199:0]         sys.c:744  MXM  WARN  Conflicting CPU frequencies detected, using: 2499.99
[1537784550.594185] [r8n4:13205:0]         sys.c:744  MXM  WARN  Conflicting CPU frequencies detected, using: 2499.99
[1537784550.594255] [r8n4:13207:0]         sys.c:744  MXM  WARN  Conflicting CPU frequencies detected, using: 2499.99
[1537784550.594257] [r8n4:13209:0]         sys.c:744  MXM  WARN  Conflicting CPU frequencies detected, using: 2499.99
[1537784550.594295] [r8n4:13213:0]         sys.c:744  MXM  WARN  Conflicting CPU frequencies detected, using: 2499.99
[1537784550.594483] [r8n4:13201:0]         sys.c:744  MXM  WARN  Conflicting CPU frequencies detected, using: 2499.99
[1537784550.594564] [r8n4:13211:0]         sys.c:744  MXM  WARN  Conflicting CPU frequencies detected, using: 2499.99
[1537784550.595024] [r8n4:13203:0]         sys.c:744  MXM  WARN  Conflicting CPU frequencies detected, using: 2499.99
 argument  1 = /storage/home/bikashp/nwchem_run/rabeet/pa8/nwpa8/PH4+.xyz.nw
                                         
                                         


              Northwest Computational Chemistry Package (NWChem) 6.6
              ------------------------------------------------------


                    Environmental Molecular Sciences Laboratory
                       Pacific Northwest National Laboratory
                                Richland, WA 99352

                              Copyright (c) 1994-2015
                       Pacific Northwest National Laboratory
                            Battelle Memorial Institute

             NWChem is an open-source computational chemistry package
                        distributed under the terms of the
                      Educational Community License (ECL) 2.0
             A copy of the license is included with this distribution
                              in the LICENSE.TXT file

                                  ACKNOWLEDGMENT
                                  --------------

            This software and its documentation were developed at the
            EMSL at Pacific Northwest National Laboratory, a multiprogram
            national laboratory, operated for the U.S. Department of Energy
            by Battelle under Contract Number DE-AC05-76RL01830. Support
            for this work was provided by the Department of Energy Office
            of Biological and Environmental Research, Office of Basic
            Energy Sciences, and the Office of Advanced Scientific Computing.


           Job information
           ---------------

    hostname        = r8n4.niserhpc.org
    program         = /home/bikashp/Code/nwchem-6.6_tpssloc/bin/LINUX64/nwchem
    date            = Mon Sep 24 15:52:33 2018

    compiled        = Tue_Sep_18_16:24:59_2018
    source          = /home/bikashp/Code/nwchem-6.6_tpssloc
    nwchem branch   = 6.6
    nwchem revision = 27746
    ga revision     = 10594
    input           = /storage/home/bikashp/nwchem_run/rabeet/pa8/nwpa8/PH4+.xyz.nw
    prefix          = PH4+.xyz.
    data base       = ./PH4+.xyz.db
    status          = startup
    nproc           =       16
    time left       =     -1s



           Memory information
           ------------------

    heap     =   13107196 doubles =    100.0 Mbytes
    stack    =   13107201 doubles =    100.0 Mbytes
    global   =   26214400 doubles =    200.0 Mbytes (distinct from heap & stack)
    total    =   52428797 doubles =    400.0 Mbytes
    verify   = yes
    hardfail = no 


           Directory information
           ---------------------

  0 permanent = .
  0 scratch   = .




                                NWChem Input Module
                                -------------------



 Scaling coordinates for geometry "geometry" by  1.889725989
 (inverse scale =  0.529177249)

 C3V symmetry detected

          ------
          auto-z
          ------
  Looking for out-of-plane bends


                             Geometry "geometry" -> ""
                             -------------------------

 Output coordinates in angstroms (scale by  1.889725989 to convert to a.u.)

  No.       Tag          Charge          X              Y              Z
 ---- ---------------- ---------- -------------- -------------- --------------
    1 P                   15.0000    -0.00000000    -0.00000000     0.00000053
    2 H                    1.0000    -0.00000000    -0.00000000     1.39292053
    3 H                    1.0000     0.92861239     0.92861239    -0.46430947
    4 H                    1.0000     0.33989572    -1.26850811    -0.46430947
    5 H                    1.0000    -1.26850811     0.33989572    -0.46430947

      Atomic Mass 
      ----------- 

      P                 30.973760
      H                  1.007825


 Effective nuclear repulsion energy (a.u.)      24.1901609506

            Nuclear Dipole moment (a.u.) 
            ----------------------------
        X                 Y               Z
 ---------------- ---------------- ----------------
     0.0000000000     0.0000000000    -0.0000000000

      Symmetry information
      --------------------

 Group name             C3v       
 Group number             17
 Group order               6
 No. of unique centers     3

      Symmetry unique atoms

     1    2    3



                                Z-matrix (autoz)
                                -------- 

 Units are Angstrom for bonds and degrees for angles

      Type          Name      I     J     K     L     M      Value
      ----------- --------  ----- ----- ----- ----- ----- ----------
    1 Stretch                  1     2                       1.39292
    2 Stretch                  1     3                       1.39292
    3 Stretch                  1     4                       1.39292
    4 Stretch                  1     5                       1.39292
    5 Bend                     2     1     3               109.47137
    6 Bend                     2     1     4               109.47137
    7 Bend                     2     1     5               109.47137
    8 Bend                     3     1     4               109.47107
    9 Bend                     3     1     5               109.47107
   10 Bend                     4     1     5               109.47107


            XYZ format geometry
            -------------------
     5
 geometry
 P                    -0.00000000    -0.00000000     0.00000053
 H                    -0.00000000    -0.00000000     1.39292053
 H                     0.92861239     0.92861239    -0.46430947
 H                     0.33989572    -1.26850811    -0.46430947
 H                    -1.26850811     0.33989572    -0.46430947

 ==============================================================================
                                internuclear distances
 ------------------------------------------------------------------------------
       center one      |      center two      | atomic units |  angstroms
 ------------------------------------------------------------------------------
    2 H                |   1 P                |     2.63224  |     1.39292
    3 H                |   1 P                |     2.63224  |     1.39292
    4 H                |   1 P                |     2.63224  |     1.39292
    5 H                |   1 P                |     2.63224  |     1.39292
 ------------------------------------------------------------------------------
                         number of included internuclear distances:          4
 ==============================================================================



 ==============================================================================
                                 internuclear angles
 ------------------------------------------------------------------------------
        center 1       |       center 2       |       center 3       |  degrees
 ------------------------------------------------------------------------------
    2 H                |   1 P                |   3 H                |   109.47
    2 H                |   1 P                |   4 H                |   109.47
    2 H                |   1 P                |   5 H                |   109.47
    3 H                |   1 P                |   4 H                |   109.47
    3 H                |   1 P                |   5 H                |   109.47
    4 H                |   1 P                |   5 H                |   109.47
 ------------------------------------------------------------------------------
                            number of included internuclear angles:          6
 ==============================================================================





 Summary of "ao basis" -> "" (cartesian)
 ------------------------------------------------------------------------------
       Tag                 Description            Shells   Functions and Types
 ---------------- ------------------------------  ------  ---------------------
 *                     6-311++G(3df,3pd)              on all atoms 



                                 NWChem DFT Module
                                 -----------------


                      Basis "ao basis" -> "ao basis" (cartesian)
                      -----
  P (Phosphorous)
  ---------------
            Exponent  Coefficients 
       -------------- ---------------------------------------------------------
  1 S  7.74924000E+04  0.000781
  1 S  1.16058000E+04  0.006068
  1 S  2.64596000E+03  0.031160
  1 S  7.54976000E+02  0.123431
  1 S  2.48755000E+02  0.378209
  1 S  9.11565000E+01  0.563262

  2 S  9.11565000E+01  0.160255
  2 S  3.62257000E+01  0.627647
  2 S  1.52113000E+01  0.263849

  3 S  4.79417000E+00  1.000000

  4 S  1.80793000E+00  1.000000

  5 S  3.56816000E-01  1.000000

  6 S  1.14783000E-01  1.000000

  7 P  3.84843000E+02  0.009206
  7 P  9.05521000E+01  0.069874
  7 P  2.91339000E+01  0.292470
  7 P  1.08862000E+01  0.728103

  8 P  4.35259000E+00  0.628349
  8 P  1.77706000E+00  0.428044

  9 P  6.97005000E-01  1.000000

 10 P  2.53532000E-01  1.000000

 11 P  6.84930000E-02  1.000000

 12 S  3.48000000E-02  1.000000

 13 P  3.48000000E-02  1.000000

 14 D  2.20000000E+00  1.000000

 15 D  5.50000000E-01  1.000000

 16 D  1.37500000E-01  1.000000

 17 F  4.50000000E-01  1.000000

  H (Hydrogen)
  ------------
            Exponent  Coefficients 
       -------------- ---------------------------------------------------------
  1 S  3.38650000E+01  0.025494
  1 S  5.09479000E+00  0.190373
  1 S  1.15879000E+00  0.852161

  2 S  3.25840000E-01  1.000000

  3 S  1.02741000E-01  1.000000

  4 S  3.60000000E-02  1.000000

  5 P  3.00000000E+00  1.000000

  6 P  7.50000000E-01  1.000000

  7 P  1.87500000E-01  1.000000

  8 D  1.00000000E+00  1.000000



 Summary of "ao basis" -> "ao basis" (cartesian)
 ------------------------------------------------------------------------------
       Tag                 Description            Shells   Functions and Types
 ---------------- ------------------------------  ------  ---------------------
 P                     6-311++G(3df,3pd)            17       53   7s6p3d1f
 H                     6-311++G(3df,3pd)             8       19   4s3p1d




 Summary of "ao basis" -> "ao basis" (cartesian)
 ------------------------------------------------------------------------------
       Tag                 Description            Shells   Functions and Types
 ---------------- ------------------------------  ------  ---------------------
 P                     6-311++G(3df,3pd)            17       53   7s6p3d1f
 H                     6-311++G(3df,3pd)             8       19   4s3p1d


      Symmetry analysis of basis
      --------------------------

        a1         45
        a2          6
        e          78

  Caching 1-el integrals 
  Rotation of axis 

            General Information
            -------------------
          SCF calculation type: DFT
          Wavefunction type:  closed shell.
          No. of atoms     :     5
          No. of electrons :    18
           Alpha electrons :     9
            Beta electrons :     9
          Charge           :     1
          Spin multiplicity:     1
          Use of symmetry is: on ; symmetry adaption is: on 
          Maximum number of iterations: ***
          AO basis - number of functions:   129
                     number of shells:    49
          Convergence on energy requested: 1.00D-06
          Convergence on density requested: 1.00D-05
          Convergence on gradient requested: 5.00D-04

              XC Information
              --------------
                  TPSS metaGGA Exchange Functional  1.000          
             TPSS03 metaGGA Correlation Functional  1.000          

             Grid Information
             ----------------
          Grid used for XC integration:  medium    
          Radial quadrature: Mura-Knowles        
          Angular quadrature: Lebedev. 
          Tag              B.-S. Rad. Rad. Pts. Rad. Cut. Ang. Pts.
          ---              ---------- --------- --------- ---------
          P                   1.00       88          11.0       590
          H                   0.35       45          12.0       434
          Grid pruning is: on 
          Number of quadrature shells:   178
          Spatial weights used:  Erf1

          Convergence Information
          -----------------------
          Convergence aids based upon iterative change in 
          total energy or number of iterations. 
          Levelshifting, if invoked, occurs when the 
          HOMO/LUMO gap drops below (HL_TOL): 1.00D-02
          DIIS, if invoked, will attempt to extrapolate 
          using up to (NFOCK): 10 stored Fock matrices.

                    Damping( 0%)  Levelshifting(0.5)       DIIS
                  --------------- ------------------- ---------------
          dE  on:    start            ASAP                start   
          dE off:    2 iters        *** iters           *** iters 


      Screening Tolerance Information
      -------------------------------
          Density screening/tol_rho: 1.00D-10
          AO Gaussian exp screening on grid/accAOfunc:  14
          CD Gaussian exp screening on grid/accCDfunc:  20
          XC Gaussian exp screening on grid/accXCfunc:  20
          Schwarz screening/accCoul: 1.00D-08


      Superposition of Atomic Density Guess
      -------------------------------------

 Sum of atomic energies:        -342.64974827

 Renormalizing density from      19.00 to     18

      Non-variational initial energy
      ------------------------------

 Total energy =    -331.400305
 1-e energy   =    -493.420749
 2-e energy   =     137.830282
 HOMO         =      -0.941380
 LUMO         =      -0.272302


      Symmetry analysis of molecular orbitals - initial
      -------------------------------------------------

  Numbering of irreducible representations: 

     1 a1          2 a2          3 e       

  Orbital symmetries:

     1 a1          2 a1          3 a1          4 e           5 e       
     6 a1          7 a1          8 e           9 e          10 e       
    11 e          12 a1         13 a1         14 e          15 e       
    16 a1         17 e          18 e          19 a1      

   Time after variat. SCF:      0.4
   Time prior to 1st pass:      0.4

 Integral file          = ./PH4+.xyz.aoints.00
 Record size in doubles =    65536    No. of integs per rec  =    43688
 Max. records in memory =       16    Max. records in file   = 11667948
 No. of bits per label  =        8    No. of bits per value  =       64


 #quartets = 2.519D+05 #integrals = 1.003D+07 #direct =  0.0% #cached =100.0%


File balance: exchanges=     7  moved=    11  time=   0.0


 Grid_pts file          = ./PH4+.xyz.gridpts.00
 Record size in doubles =  12289        No. of grid_pts per rec  =   3070
 Max. records in memory =      4        Max. recs in file   =  62223999


           Memory utilization after 1st SCF pass: 
           Heap Space remaining (MW):       12.00            12004908
          Stack Space remaining (MW):       13.11            13106388

   convergence    iter        energy       DeltaE   RMS-Dens  Diis-err    time
 ---------------- ----- ----------------- --------- --------- ---------  ------
 d= 0,ls=0.0,diis     1   -343.3392248340 -3.68D+02  1.62D-02  6.70D+00     0.9
 d= 0,ls=0.0,diis     2   -343.3593566386 -2.01D-02  8.61D-03  2.83D+00     1.1
 d= 0,ls=0.0,diis     3   -343.5061144305 -1.47D-01  1.92D-03  3.52D-02     1.3
 d= 0,ls=0.0,diis     4   -343.5079417621 -1.83D-03  9.87D-04  4.05D-03     1.5
 d= 0,ls=0.0,diis     5   -343.5076990469  2.43D-04  1.26D-04  1.15D-05     1.7
  Resetting Diis
 d= 0,ls=0.0,diis     6   -343.5075517212  1.47D-04  1.58D-05  3.55D-07     1.9
 d= 0,ls=0.0,diis     7   -343.5075626563 -1.09D-05  1.35D-06  1.16D-08     2.1
 d= 0,ls=0.0,diis     8   -343.5075556946  6.96D-06  5.04D-07  7.88D-09     2.3
 d= 0,ls=0.0,diis     9   -343.5075563019 -6.07D-07  2.18D-07  3.67D-10     2.5


         Total DFT energy =     -343.507556301905
      One electron energy =     -515.937606810744
           Coulomb energy =      172.664190713245
          Exchange energy =      -23.740745460658
       Correlation energy =       -0.683555694368
 Nuclear repulsion energy =       24.190160950619

 Numeric. integr. density =       17.999992896676

     Total iterative time =      2.1s



                  Occupations of the irreducible representations
                  ----------------------------------------------

                     irrep           alpha         beta
                     --------     --------     --------
                     a1                5.0          5.0
                     a2                0.0          0.0
                     e                 4.0          4.0


                       DFT Final Molecular Orbital Analysis
                       ------------------------------------

 Vector    1  Occ=2.000000D+00  E=-7.696689D+01  Symmetry=a1
              MO Center=  1.2D-18,  1.1D-18,  5.3D-07, r^2= 4.1D-03
   Bfn.  Coefficient  Atom+Function         Bfn.  Coefficient  Atom+Function  
  ----- ------------  ---------------      ----- ------------  ---------------
     2      0.645157  1 P  s                  1      0.419482  1 P  s          

 Vector    2  Occ=2.000000D+00  E=-6.764214D+00  Symmetry=a1
              MO Center=  4.2D-16, -2.3D-16,  2.8D-06, r^2= 9.1D-02
   Bfn.  Coefficient  Atom+Function         Bfn.  Coefficient  Atom+Function  
  ----- ------------  ---------------      ----- ------------  ---------------
     4      0.608444  1 P  s                  3      0.492210  1 P  s          
     2     -0.310278  1 P  s          

 Vector    3  Occ=2.000000D+00  E=-4.943496D+00  Symmetry=a1
              MO Center= -4.9D-16,  3.6D-16,  5.7D-05, r^2= 8.3D-02
   Bfn.  Coefficient  Atom+Function         Bfn.  Coefficient  Atom+Function  
  ----- ------------  ---------------      ----- ------------  ---------------
    12      0.681300  1 P  pz                 9      0.405717  1 P  pz         

 Vector    4  Occ=2.000000D+00  E=-4.943487D+00  Symmetry=e
              MO Center= -3.3D-05, -2.5D-05, -2.8D-05, r^2= 8.3D-02
   Bfn.  Coefficient  Atom+Function         Bfn.  Coefficient  Atom+Function  
  ----- ------------  ---------------      ----- ------------  ---------------
    10      0.513118  1 P  px                11     -0.448193  1 P  py         
     7      0.305566  1 P  px                 8     -0.266902  1 P  py         

 Vector    5  Occ=2.000000D+00  E=-4.943487D+00  Symmetry=e
              MO Center=  3.3D-05,  2.5D-05, -2.8D-05, r^2= 8.3D-02
   Bfn.  Coefficient  Atom+Function         Bfn.  Coefficient  Atom+Function  
  ----- ------------  ---------------      ----- ------------  ---------------
    11      0.513118  1 P  py                10      0.448193  1 P  px         
     8      0.305566  1 P  py                 7      0.266902  1 P  px         

 Vector    6  Occ=2.000000D+00  E=-9.655023D-01  Symmetry=a1
              MO Center=  5.7D-17,  6.2D-17, -5.1D-05, r^2= 1.4D+00
   Bfn.  Coefficient  Atom+Function         Bfn.  Coefficient  Atom+Function  
  ----- ------------  ---------------      ----- ------------  ---------------
     6      0.703087  1 P  s                  5      0.535238  1 P  s          
     4     -0.352484  1 P  s                  3     -0.199492  1 P  s          

 Vector    7  Occ=2.000000D+00  E=-7.087478D-01  Symmetry=e
              MO Center=  3.4D-01,  5.6D-02, -2.4D-01, r^2= 1.7D+00
   Bfn.  Coefficient  Atom+Function         Bfn.  Coefficient  Atom+Function  
  ----- ------------  ---------------      ----- ------------  ---------------
    17      0.610573  1 P  py                16      0.314088  1 P  px         
    74      0.212754  3 H  s                 93     -0.165456  4 H  s          

 Vector    8  Occ=2.000000D+00  E=-7.087478D-01  Symmetry=e
              MO Center= -3.4D-01, -5.6D-02, -2.4D-01, r^2= 1.7D+00
   Bfn.  Coefficient  Atom+Function         Bfn.  Coefficient  Atom+Function  
  ----- ------------  ---------------      ----- ------------  ---------------
    16      0.610573  1 P  px                17     -0.314088  1 P  py         
   112     -0.218360  5 H  s                 93      0.150142  4 H  s          

 Vector    9  Occ=2.000000D+00  E=-7.087366D-01  Symmetry=a1
              MO Center= -7.1D-12,  3.7D-12,  4.9D-01, r^2= 1.6D+00
   Bfn.  Coefficient  Atom+Function         Bfn.  Coefficient  Atom+Function  
  ----- ------------  ---------------      ----- ------------  ---------------
    18      0.686606  1 P  pz                55      0.237011  2 H  s          
    54      0.155589  2 H  s          

 Vector   10  Occ=0.000000D+00  E=-3.194320D-01  Symmetry=a1
              MO Center= -1.6D-16,  6.6D-17, -1.2D-01, r^2= 2.7D+00
   Bfn.  Coefficient  Atom+Function         Bfn.  Coefficient  Atom+Function  
  ----- ------------  ---------------      ----- ------------  ---------------
    18      1.152849  1 P  pz                56     -0.451092  2 H  s          
    55     -0.375137  2 H  s                 21      0.335260  1 P  pz         
    43     -0.274019  1 P  dzz               46     -0.261426  1 P  fxxz       
    51     -0.261426  1 P  fyyz              53     -0.255444  1 P  fzzz       
    57     -0.242972  2 H  s                 37     -0.173319  1 P  dzz        

 Vector   11  Occ=0.000000D+00  E=-3.194305D-01  Symmetry=e
              MO Center= -8.0D-02,  3.0D-02,  6.0D-02, r^2= 2.7D+00
   Bfn.  Coefficient  Atom+Function         Bfn.  Coefficient  Atom+Function  
  ----- ------------  ---------------      ----- ------------  ---------------
    17      1.126624  1 P  py                94      0.378140  4 H  s          
    75     -0.357677  3 H  s                 20      0.327639  1 P  py         
    39     -0.325888  1 P  dxy               93      0.314460  4 H  s          
    74     -0.297443  3 H  s                 42      0.267763  1 P  dyz        
    52     -0.255479  1 P  fyzz              45     -0.251086  1 P  fxxy       

 Vector   12  Occ=0.000000D+00  E=-3.194305D-01  Symmetry=e
              MO Center=  8.0D-02, -3.0D-02,  6.0D-02, r^2= 2.7D+00
   Bfn.  Coefficient  Atom+Function         Bfn.  Coefficient  Atom+Function  
  ----- ------------  ---------------      ----- ------------  ---------------
    16      1.126624  1 P  px               113      0.424824  5 H  s          
   112      0.353282  5 H  s                 19      0.327639  1 P  px         
    40      0.267763  1 P  dxz               49     -0.255479  1 P  fxzz       
    44     -0.251086  1 P  fxxx              47     -0.251086  1 P  fxyy       
    17     -0.244456  1 P  py                75     -0.230133  3 H  s          

 Vector   13  Occ=0.000000D+00  E=-2.652694D-01  Symmetry=a1
              MO Center=  5.3D-16, -9.9D-17, -1.0D-04, r^2= 4.6D+00
   Bfn.  Coefficient  Atom+Function         Bfn.  Coefficient  Atom+Function  
  ----- ------------  ---------------      ----- ------------  ---------------
     6      1.246274  1 P  s                 22      0.525539  1 P  s          
     5      0.504474  1 P  s                 56     -0.375188  2 H  s          
    75     -0.375193  3 H  s                 94     -0.375193  4 H  s          
   113     -0.375193  5 H  s                  4     -0.289385  1 P  s          
    55     -0.211692  2 H  s                 57     -0.212293  2 H  s          

 Vector   14  Occ=0.000000D+00  E=-2.012243D-01  Symmetry=e
              MO Center=  6.5D-06,  1.6D-05,  2.1D-05, r^2= 3.0D+00
   Bfn.  Coefficient  Atom+Function         Bfn.  Coefficient  Atom+Function  
  ----- ------------  ---------------      ----- ------------  ---------------
    40      0.841918  1 P  dxz               39      0.699311  1 P  dxy        
    42      0.556707  1 P  dyz               34      0.255035  1 P  dxz        
    33      0.211840  1 P  dxy               36      0.168638  1 P  dyz        

 Vector   15  Occ=0.000000D+00  E=-2.012243D-01  Symmetry=e
              MO Center= -6.5D-06, -1.6D-05,  2.1D-05, r^2= 3.0D+00
   Bfn.  Coefficient  Atom+Function         Bfn.  Coefficient  Atom+Function  
  ----- ------------  ---------------      ----- ------------  ---------------
    42      0.841918  1 P  dyz               40     -0.556707  1 P  dxz        
    38      0.349656  1 P  dxx               41     -0.349656  1 P  dyy        
    36      0.255035  1 P  dyz               34     -0.168638  1 P  dxz        

 Vector   16  Occ=0.000000D+00  E=-1.328395D-01  Symmetry=e
              MO Center= -1.7D-01, -7.0D-02, -1.3D-01, r^2= 9.8D+00
   Bfn.  Coefficient  Atom+Function         Bfn.  Coefficient  Atom+Function  
  ----- ------------  ---------------      ----- ------------  ---------------
    23      0.656422  1 P  px                24     -0.434782  1 P  py         
   114     -0.287967  5 H  s                 95      0.227517  4 H  s          
    16     -0.210159  1 P  px         

 Vector   17  Occ=0.000000D+00  E=-1.328395D-01  Symmetry=e
              MO Center=  1.7D-01,  7.0D-02, -1.3D-01, r^2= 9.8D+00
   Bfn.  Coefficient  Atom+Function         Bfn.  Coefficient  Atom+Function  
  ----- ------------  ---------------      ----- ------------  ---------------
    24      0.656422  1 P  py                23      0.434782  1 P  px         
    76      0.297614  3 H  s                 17     -0.210159  1 P  py         
    95     -0.201158  4 H  s          

 Vector   18  Occ=0.000000D+00  E=-1.328341D-01  Symmetry=a1
              MO Center=  2.4D-12, -1.6D-12,  2.6D-01, r^2= 9.7D+00
   Bfn.  Coefficient  Atom+Function         Bfn.  Coefficient  Atom+Function  
  ----- ------------  ---------------      ----- ------------  ---------------
    25      0.787297  1 P  pz                57      0.322326  2 H  s          
    18     -0.252032  1 P  pz                15     -0.163446  1 P  pz         

 Vector   19  Occ=0.000000D+00  E=-9.408456D-02  Symmetry=a1
              MO Center=  2.3D-14,  1.2D-14, -1.3D-04, r^2= 1.1D+01
   Bfn.  Coefficient  Atom+Function         Bfn.  Coefficient  Atom+Function  
  ----- ------------  ---------------      ----- ------------  ---------------
     6      2.035736  1 P  s                 56     -1.157491  2 H  s          
    75     -1.157611  3 H  s                 94     -1.157611  4 H  s          
   113     -1.157611  5 H  s                 57      0.537616  2 H  s          
    76      0.537873  3 H  s                 95      0.537873  4 H  s          
   114      0.537873  5 H  s                 55     -0.306357  2 H  s          

 Vector   20  Occ=0.000000D+00  E=-4.460065D-02  Symmetry=e
              MO Center= -1.1D-01, -1.6D-01, -1.4D-01, r^2= 1.6D+01
   Bfn.  Coefficient  Atom+Function         Bfn.  Coefficient  Atom+Function  
  ----- ------------  ---------------      ----- ------------  ---------------
    95      5.914717  4 H  s                114     -5.328763  5 H  s          
    24      3.535815  1 P  py                23     -2.950337  1 P  px         
    94     -1.200210  4 H  s                 20     -1.110550  1 P  py         
   113      1.081309  5 H  s                 19      0.926660  1 P  px         
    17     -0.815282  1 P  py                16      0.680283  1 P  px         

 Vector   21  Occ=0.000000D+00  E=-4.460065D-02  Symmetry=e
              MO Center=  1.1D-01,  1.6D-01, -1.4D-01, r^2= 1.6D+01
   Bfn.  Coefficient  Atom+Function         Bfn.  Coefficient  Atom+Function  
  ----- ------------  ---------------      ----- ------------  ---------------
    76      6.491426  3 H  s                114     -3.753164  5 H  s          
    23     -3.535815  1 P  px                24     -2.950337  1 P  py         
    95     -2.738262  4 H  s                 75     -1.317236  3 H  s          
    19      1.110550  1 P  px                20      0.926660  1 P  py         
    16      0.815282  1 P  px               113      0.761589  5 H  s          

 Vector   22  Occ=0.000000D+00  E=-4.460012D-02  Symmetry=a1
              MO Center= -1.3D-14, -1.6D-14,  2.8D-01, r^2= 1.6D+01
   Bfn.  Coefficient  Atom+Function         Bfn.  Coefficient  Atom+Function  
  ----- ------------  ---------------      ----- ------------  ---------------
    57      6.912821  2 H  s                 25     -4.604963  1 P  pz         
    76     -2.304726  3 H  s                 95     -2.304726  4 H  s          
   114     -2.304726  5 H  s                 21      1.446233  1 P  pz         
    56     -1.402802  2 H  s                 18      1.061841  1 P  pz         
    75      0.467533  3 H  s                 94      0.467533  4 H  s          

 Vector   23  Occ=0.000000D+00  E=-2.832307D-02  Symmetry=a1
              MO Center= -2.3D-14, -6.8D-14,  1.7D-05, r^2= 1.6D+01
   Bfn.  Coefficient  Atom+Function         Bfn.  Coefficient  Atom+Function  
  ----- ------------  ---------------      ----- ------------  ---------------
    22     20.716815  1 P  s                 57     -5.204774  2 H  s          
    76     -5.204314  3 H  s                 95     -5.204314  4 H  s          
   114     -5.204314  5 H  s                 56     -0.761475  2 H  s          
    75     -0.761475  3 H  s                 94     -0.761475  4 H  s          
   113     -0.761475  5 H  s                  6      0.413434  1 P  s          

 Vector   24  Occ=0.000000D+00  E= 3.427248D-02  Symmetry=e
              MO Center= -3.1D-02, -2.6D-02, -2.9D-02, r^2= 1.3D+01
   Bfn.  Coefficient  Atom+Function         Bfn.  Coefficient  Atom+Function  
  ----- ------------  ---------------      ----- ------------  ---------------
    19      2.060989  1 P  px                20     -1.888603  1 P  py         
    23     -1.600188  1 P  px                24      1.466344  1 P  py         
    16     -0.651418  1 P  px                17      0.596932  1 P  py         
   113      0.271726  5 H  s                 94     -0.258368  4 H  s          
   121      0.256613  5 H  px               103     -0.245693  4 H  py         

 Vector   25  Occ=0.000000D+00  E= 3.427248D-02  Symmetry=e
              MO Center=  3.1D-02,  2.6D-02, -2.9D-02, r^2= 1.3D+01
   Bfn.  Coefficient  Atom+Function         Bfn.  Coefficient  Atom+Function  
  ----- ------------  ---------------      ----- ------------  ---------------
    20      2.060989  1 P  py                19      1.888603  1 P  px         
    24     -1.600188  1 P  py                23     -1.466344  1 P  px         
    17     -0.651418  1 P  py                16     -0.596932  1 P  px         
    75     -0.306050  3 H  s                 83      0.207068  3 H  px         
    84      0.202956  3 H  py                94      0.164593  4 H  s          

 Vector   26  Occ=0.000000D+00  E= 3.428272D-02  Symmetry=a1
              MO Center=  1.9D-16,  4.4D-17,  5.7D-02, r^2= 1.3D+01
   Bfn.  Coefficient  Atom+Function         Bfn.  Coefficient  Atom+Function  
  ----- ------------  ---------------      ----- ------------  ---------------
    21      2.795526  1 P  pz                25     -2.170598  1 P  pz         
    18     -0.883630  1 P  pz                66      0.334818  2 H  pz         
    56     -0.324842  2 H  s                 53      0.212407  1 P  fzzz       
    46      0.187575  1 P  fxxz              51      0.187575  1 P  fyyz       
    55     -0.162927  2 H  s          

 Vector   27  Occ=0.000000D+00  E= 1.038957D-01  Symmetry=e
              MO Center= -1.1D-02, -2.3D-02, -1.8D-02, r^2= 8.5D+00
   Bfn.  Coefficient  Atom+Function         Bfn.  Coefficient  Atom+Function  
  ----- ------------  ---------------      ----- ------------  ---------------
    94      6.257940  4 H  s                 20      5.119939  1 P  py         
   113     -5.126203  5 H  s                 95     -4.599795  4 H  s          
   114      3.767931  5 H  s                 19     -3.615749  1 P  px         
    24     -3.499535  1 P  py                23      2.471405  1 P  px         
    42     -2.057740  1 P  dyz               17      1.833223  1 P  py         

 Vector   28  Occ=0.000000D+00  E= 1.038957D-01  Symmetry=e
              MO Center=  1.1D-02,  2.3D-02, -1.8D-02, r^2= 8.5D+00
   Bfn.  Coefficient  Atom+Function         Bfn.  Coefficient  Atom+Function  
  ----- ------------  ---------------      ----- ------------  ---------------
    75      6.572638  3 H  s                 19     -5.119939  1 P  px         
    76     -4.831109  3 H  s                113     -4.266432  5 H  s          
    20     -3.615749  1 P  py                23      3.499535  1 P  px         
    39     -3.510925  1 P  dxy              114      3.135970  5 H  s          
    24      2.471405  1 P  py                94     -2.306206  4 H  s          

 Vector   29  Occ=0.000000D+00  E= 1.038963D-01  Symmetry=a1
              MO Center= -3.8D-10,  5.4D-10,  3.6D-02, r^2= 8.5D+00
   Bfn.  Coefficient  Atom+Function         Bfn.  Coefficient  Atom+Function  
  ----- ------------  ---------------      ----- ------------  ---------------
    56      7.073870  2 H  s                 21     -6.267882  1 P  pz         
    57     -5.199778  2 H  s                 25      4.284213  1 P  pz         
    43     -2.519190  1 P  dzz               75     -2.358014  3 H  s          
    94     -2.358014  4 H  s                113     -2.358014  5 H  s          
    18     -2.244366  1 P  pz                76      1.733010  3 H  s          

 Vector   30  Occ=0.000000D+00  E= 1.118558D-01  Symmetry=e
              MO Center=  1.3D-01,  2.9D-01,  2.2D-01, r^2= 4.3D+00
   Bfn.  Coefficient  Atom+Function         Bfn.  Coefficient  Atom+Function  
  ----- ------------  ---------------      ----- ------------  ---------------
    85      0.766328  3 H  pz                64     -0.683935  2 H  px         
   123     -0.509246  5 H  pz                65     -0.465555  2 H  py         
   104     -0.257082  4 H  pz                83      0.227937  3 H  px         
   102      0.227958  4 H  px               121      0.227939  5 H  px         
    84      0.155151  3 H  py               103      0.155161  4 H  py         

 Vector   31  Occ=0.000000D+00  E= 1.118558D-01  Symmetry=e
              MO Center= -1.3D-01, -2.9D-01,  2.2D-01, r^2= 4.3D+00
   Bfn.  Coefficient  Atom+Function         Bfn.  Coefficient  Atom+Function  
  ----- ------------  ---------------      ----- ------------  ---------------
   104      0.736453  4 H  pz                65      0.683935  2 H  py         
   123     -0.590866  5 H  pz                64     -0.465555  2 H  px         
    84     -0.227952  3 H  py               103     -0.227931  4 H  py         
   122     -0.227950  5 H  py                83      0.155173  3 H  px         
   102      0.155163  4 H  px               121      0.155150  5 H  px         

 Vector   32  Occ=0.000000D+00  E= 1.118567D-01  Symmetry=a2
              MO Center= -3.2D-11,  5.3D-11, -4.5D-01, r^2= 4.2D+00
   Bfn.  Coefficient  Atom+Function         Bfn.  Coefficient  Atom+Function  
  ----- ------------  ---------------      ----- ------------  ---------------
   102      0.753441  4 H  px               122     -0.753441  5 H  py         
    83     -0.551557  3 H  px                84      0.551557  3 H  py         
   103      0.201884  4 H  py               121     -0.201884  5 H  px         

 Vector   33  Occ=0.000000D+00  E= 1.497109D-01  Symmetry=a1
              MO Center= -1.3D-12, -5.4D-14, -2.0D-05, r^2= 9.9D+00
   Bfn.  Coefficient  Atom+Function         Bfn.  Coefficient  Atom+Function  
  ----- ------------  ---------------      ----- ------------  ---------------
    22     17.108262  1 P  s                  6      8.674297  1 P  s          
    56     -4.274651  2 H  s                 75     -4.274627  3 H  s          
    94     -4.274627  4 H  s                113     -4.274627  5 H  s          
    57     -3.316688  2 H  s                 76     -3.316745  3 H  s          
    95     -3.316745  4 H  s                114     -3.316745  5 H  s          

 Vector   34  Occ=0.000000D+00  E= 1.952698D-01  Symmetry=a1
              MO Center= -7.3D-14,  6.6D-13, -2.2D-04, r^2= 1.1D+01
   Bfn.  Coefficient  Atom+Function         Bfn.  Coefficient  Atom+Function  
  ----- ------------  ---------------      ----- ------------  ---------------
    22     14.755506  1 P  s                 57     -3.891256  2 H  s          
    76     -3.892251  3 H  s                 95     -3.892251  4 H  s          
   114     -3.892251  5 H  s                  6     -3.422640  1 P  s          
    56      2.560338  2 H  s                 75      2.561489  3 H  s          
    94      2.561489  4 H  s                113      2.561489  5 H  s          

 Vector   35  Occ=0.000000D+00  E= 2.064790D-01  Symmetry=a1
              MO Center= -6.8D-15,  3.7D-15,  2.0D-02, r^2= 8.1D+00
   Bfn.  Coefficient  Atom+Function         Bfn.  Coefficient  Atom+Function  
  ----- ------------  ---------------      ----- ------------  ---------------
    56      5.548374  2 H  s                 57     -5.145244  2 H  s          
    21     -4.364076  1 P  pz                25      3.635103  1 P  pz         
    75     -1.848973  3 H  s                 94     -1.848973  4 H  s          
   113     -1.848973  5 H  s                 76      1.714496  3 H  s          
    95      1.714496  4 H  s                114      1.714496  5 H  s          

 Vector   36  Occ=0.000000D+00  E= 2.064797D-01  Symmetry=e
              MO Center= -1.1D-02, -8.4D-03, -9.7D-03, r^2= 8.1D+00
   Bfn.  Coefficient  Atom+Function         Bfn.  Coefficient  Atom+Function  
  ----- ------------  ---------------      ----- ------------  ---------------
   113     -4.692700  5 H  s                 94      4.347413  4 H  s          
   114      4.351617  5 H  s                 95     -4.031427  4 H  s          
    19     -3.282827  1 P  px                20      2.875424  1 P  py         
    23      2.734444  1 P  px                24     -2.395096  1 P  py         
   112      1.423032  5 H  s                 93     -1.318325  4 H  s          

 Vector   37  Occ=0.000000D+00  E= 2.064797D-01  Symmetry=e
              MO Center=  1.1D-02,  8.4D-03, -9.7D-03, r^2= 8.1D+00
   Bfn.  Coefficient  Atom+Function         Bfn.  Coefficient  Atom+Function  
  ----- ------------  ---------------      ----- ------------  ---------------
    75      5.219312  3 H  s                 76     -4.839952  3 H  s          
    20     -3.282827  1 P  py                94     -2.908683  4 H  s          
    19     -2.875424  1 P  px                24      2.734444  1 P  py         
    95      2.697269  4 H  s                 23      2.395096  1 P  px         
   113     -2.310629  5 H  s                114      2.142683  5 H  s          

 Vector   38  Occ=0.000000D+00  E= 3.124610D-01  Symmetry=e
              MO Center=  2.9D-02,  4.0D-02, -3.5D-02, r^2= 6.1D+00
   Bfn.  Coefficient  Atom+Function         Bfn.  Coefficient  Atom+Function  
  ----- ------------  ---------------      ----- ------------  ---------------
    19      1.845778  1 P  px                20      1.565015  1 P  py         
    75      1.104740  3 H  s                102     -0.870194  4 H  px         
    64     -0.852408  2 H  px               121     -0.764052  5 H  px         
   122     -0.746440  5 H  py                83     -0.739184  3 H  px         
    16     -0.731325  1 P  px                65     -0.722747  2 H  py         

 Vector   39  Occ=0.000000D+00  E= 3.124610D-01  Symmetry=e
              MO Center= -2.9D-02, -4.0D-02, -3.5D-02, r^2= 6.1D+00
   Bfn.  Coefficient  Atom+Function         Bfn.  Coefficient  Atom+Function  
  ----- ------------  ---------------      ----- ------------  ---------------
    20      1.845778  1 P  py                19     -1.565015  1 P  px         
    94     -1.002201  4 H  s                113      0.911264  5 H  s          
    65     -0.852408  2 H  py                84     -0.843103  3 H  py         
   122     -0.818234  5 H  py                17     -0.731325  1 P  py         
    83      0.732082  3 H  px                64      0.722747  2 H  px         

 Vector   40  Occ=0.000000D+00  E= 3.124628D-01  Symmetry=a1
              MO Center=  5.8D-12, -6.8D-12,  6.9D-02, r^2= 6.1D+00
   Bfn.  Coefficient  Atom+Function         Bfn.  Coefficient  Atom+Function  
  ----- ------------  ---------------      ----- ------------  ---------------
    21      2.420036  1 P  pz                56      1.175662  2 H  s          
    85     -1.097504  3 H  pz               104     -1.097504  4 H  pz         
   123     -1.097504  5 H  pz                18     -0.958577  1 P  pz         
    66     -0.936861  2 H  pz                55     -0.735054  2 H  s          
    25     -0.701071  1 P  pz                57     -0.532974  2 H  s          

 Vector   41  Occ=0.000000D+00  E= 3.889232D-01  Symmetry=e
              MO Center= -4.7D-06, -3.0D-06,  7.5D-06, r^2= 4.1D+00
   Bfn.  Coefficient  Atom+Function         Bfn.  Coefficient  Atom+Function  
  ----- ------------  ---------------      ----- ------------  ---------------
    40      2.939459  1 P  dxz               42     -2.339743  1 P  dyz        
    38     -1.319683  1 P  dxx               41      1.319683  1 P  dyy        
   123      1.302027  5 H  pz                64     -1.178427  2 H  px         
   104     -1.141748  4 H  pz                84     -1.098289  3 H  py         
    83      1.018131  3 H  px                65      0.938002  2 H  py         

 Vector   42  Occ=0.000000D+00  E= 3.889232D-01  Symmetry=e
              MO Center=  4.7D-06,  3.0D-06,  7.5D-06, r^2= 4.1D+00
   Bfn.  Coefficient  Atom+Function         Bfn.  Coefficient  Atom+Function  
  ----- ------------  ---------------      ----- ------------  ---------------
    42      2.939459  1 P  dyz               39      2.639366  1 P  dxy        
    40      2.339743  1 P  dxz               85     -1.410914  3 H  pz         
   122      1.385846  5 H  py               102      1.247042  4 H  px         
    65     -1.178427  2 H  py                64     -0.938002  2 H  px         
   104      0.844263  4 H  pz                36      0.579469  1 P  dyz        

 Vector   43  Occ=0.000000D+00  E= 5.000353D-01  Symmetry=a1
              MO Center=  7.5D-15, -1.3D-14, -1.0D-01, r^2= 7.3D+00
   Bfn.  Coefficient  Atom+Function         Bfn.  Coefficient  Atom+Function  
  ----- ------------  ---------------      ----- ------------  ---------------
    56     12.587590  2 H  s                 21     -9.052351  1 P  pz         
    18     -7.983518  1 P  pz                57     -4.362996  2 H  s          
    75     -4.195930  3 H  s                 94     -4.195930  4 H  s          
   113     -4.195930  5 H  s                 25      3.943672  1 P  pz         
    66     -3.784208  2 H  pz                43     -3.264239  1 P  dzz        


 center of mass
 --------------
 x =   0.00000000 y =   0.00000000 z =   0.00000045

 moments of inertia (a.u.)
 ------------------
          18.621052184145           0.000000000000           0.000000000000
           0.000000000000          18.621052184145           0.000000000000
           0.000000000000           0.000000000000          18.620999826072

     Multipole analysis of the density
     ---------------------------------

     L   x y z        total         alpha         beta         nuclear
     -   - - -        -----         -----         ----         -------
     0   0 0 0      1.000000     -9.000000     -9.000000     19.000000

     1   1 0 0     -0.000000     -0.000000     -0.000000      0.000000
     1   0 1 0      0.000000      0.000000      0.000000      0.000000
     1   0 0 1     -0.000068     -0.000034     -0.000034     -0.000000

     2   2 0 0     -8.205599     -8.721905     -8.721905      9.238211
     2   1 1 0      0.000000      0.000000      0.000000      0.000000
     2   1 0 1     -0.000000     -0.000000     -0.000000      0.000000
     2   0 2 0     -8.205599     -8.721905     -8.721905      9.238211
     2   0 1 1     -0.000000     -0.000000     -0.000000     -0.000000
     2   0 0 2     -8.205883     -8.722073     -8.722073      9.238263


 Parallel integral file used     238 records with       0 large values


 Task  times  cpu:        2.4s     wall:        2.9s


                                NWChem Input Module
                                -------------------


 Summary of allocated global arrays
-----------------------------------
  No active global arrays



                         GA Statistics for process    0
                         ------------------------------

       create   destroy   get      put      acc     scatter   gather  read&inc
calls:  265      265     3215     1520     1080        0        0      168     
number of processes/call 2.03e+00 1.59e+00 2.34e+00 0.00e+00 0.00e+00
bytes total:             4.60e+07 6.79e+06 2.22e+07 0.00e+00 0.00e+00 1.34e+03
bytes remote:            3.63e+07 3.14e+06 1.84e+07 0.00e+00 0.00e+00 0.00e+00
Max memory consumed for GA by this process: 860472 bytes

MA_summarize_allocated_blocks: starting scan ...
MA_summarize_allocated_blocks: scan completed: 0 heap blocks, 0 stack blocks
MA usage statistics:

	allocation statistics:
					      heap	     stack
					      ----	     -----
	current number of blocks	         0	         0
	maximum number of blocks	        24	        55
	current total bytes		         0	         0
	maximum total bytes		   8817632	  24114280
	maximum total K-bytes		      8818	     24115
	maximum total M-bytes		         9	        25


                                     CITATION
                                     --------
                Please cite the following reference when publishing
                           results obtained with NWChem:

                 M. Valiev, E.J. Bylaska, N. Govind, K. Kowalski,
              T.P. Straatsma, H.J.J. van Dam, D. Wang, J. Nieplocha,
                        E. Apra, T.L. Windus, W.A. de Jong
                 "NWChem: a comprehensive and scalable open-source
                  solution for large scale molecular simulations"
                      Comput. Phys. Commun. 181, 1477 (2010)
                           doi:10.1016/j.cpc.2010.04.018

                                      AUTHORS
                                      -------
          E. Apra, E. J. Bylaska, W. A. de Jong, N. Govind, K. Kowalski,
       T. P. Straatsma, M. Valiev, H. J. J. van Dam, D. Wang, T. L. Windus,
        J. Hammond, J. Autschbach, K. Bhaskaran-Nair, J. Brabec, K. Lopata,
       S. A. Fischer, S. Krishnamoorthy, W. Ma, M. Klemm, O. Villa, Y. Chen,
    V. Anisimov, F. Aquino, S. Hirata, M. T. Hackler, T. Risthaus, M. Malagoli,
       A. Marenich, A. Otero-de-la-Roza, J. Mullin, P. Nichols, R. Peverati,
     J. Pittner, Y. Zhao, P.-D. Fan, A. Fonari, M. Williamson, R. J. Harrison,
       J. R. Rehr, M. Dupuis, D. Silverstein, D. M. A. Smith, J. Nieplocha,
        V. Tipparaju, M. Krishnan, B. E. Van Kuiken, A. Vazquez-Mayagoitia,
        L. Jensen, M. Swart, Q. Wu, T. Van Voorhis, A. A. Auer, M. Nooijen,
      L. D. Crosby, E. Brown, G. Cisneros, G. I. Fann, H. Fruchtl, J. Garza,
        K. Hirao, R. A. Kendall, J. A. Nichols, K. Tsemekhman, K. Wolinski,
     J. Anchell, D. E. Bernholdt, P. Borowski, T. Clark, D. Clerc, H. Dachsel,
   M. J. O. Deegan, K. Dyall, D. Elwood, E. Glendening, M. Gutowski, A. C. Hess,
         J. Jaffe, B. G. Johnson, J. Ju, R. Kobayashi, R. Kutteh, Z. Lin,
   R. Littlefield, X. Long, B. Meng, T. Nakajima, S. Niu, L. Pollack, M. Rosing,
   K. Glaesemann, G. Sandrone, M. Stave, H. Taylor, G. Thomas, J. H. van Lenthe,
                               A. T. Wong, Z. Zhang.

 Total times  cpu:        2.4s     wall:        3.1s
