[1537784543.666951] [r8n4:13023:0]         sys.c:744  MXM  WARN  Conflicting CPU frequencies detected, using: 2527.66
[1537784543.677507] [r8n4:13025:0]         sys.c:744  MXM  WARN  Conflicting CPU frequencies detected, using: 2606.37
[1537784543.677681] [r8n4:13024:0]         sys.c:744  MXM  WARN  Conflicting CPU frequencies detected, using: 2606.37
[1537784543.677740] [r8n4:13029:0]         sys.c:744  MXM  WARN  Conflicting CPU frequencies detected, using: 2606.37
[1537784543.677875] [r8n4:13026:0]         sys.c:744  MXM  WARN  Conflicting CPU frequencies detected, using: 2606.37
[1537784543.677944] [r8n4:13028:0]         sys.c:744  MXM  WARN  Conflicting CPU frequencies detected, using: 2606.37
[1537784543.678052] [r8n4:13027:0]         sys.c:744  MXM  WARN  Conflicting CPU frequencies detected, using: 2606.37
[1537784543.694481] [r8n4:13032:0]         sys.c:744  MXM  WARN  Conflicting CPU frequencies detected, using: 2499.99
[1537784543.694798] [r8n4:13030:0]         sys.c:744  MXM  WARN  Conflicting CPU frequencies detected, using: 2499.99
[1537784543.721273] [r8n4:13046:0]         sys.c:744  MXM  WARN  Conflicting CPU frequencies detected, using: 2799.98
[1537784543.723007] [r8n4:13038:0]         sys.c:744  MXM  WARN  Conflicting CPU frequencies detected, using: 2799.98
[1537784543.723063] [r8n4:13044:0]         sys.c:744  MXM  WARN  Conflicting CPU frequencies detected, using: 2799.98
[1537784543.723108] [r8n4:13034:0]         sys.c:744  MXM  WARN  Conflicting CPU frequencies detected, using: 2799.98
[1537784543.723790] [r8n4:13036:0]         sys.c:744  MXM  WARN  Conflicting CPU frequencies detected, using: 2799.98
[1537784543.723941] [r8n4:13040:0]         sys.c:744  MXM  WARN  Conflicting CPU frequencies detected, using: 2799.98
[1537784543.724110] [r8n4:13042:0]         sys.c:744  MXM  WARN  Conflicting CPU frequencies detected, using: 2799.98
 argument  1 = /storage/home/bikashp/nwchem_run/rabeet/pa8/nwpa8/PH3.xyz.nw
                                         
                                         


              Northwest Computational Chemistry Package (NWChem) 6.6
              ------------------------------------------------------


                    Environmental Molecular Sciences Laboratory
                       Pacific Northwest National Laboratory
                                Richland, WA 99352

                              Copyright (c) 1994-2015
                       Pacific Northwest National Laboratory
                            Battelle Memorial Institute

             NWChem is an open-source computational chemistry package
                        distributed under the terms of the
                      Educational Community License (ECL) 2.0
             A copy of the license is included with this distribution
                              in the LICENSE.TXT file

                                  ACKNOWLEDGMENT
                                  --------------

            This software and its documentation were developed at the
            EMSL at Pacific Northwest National Laboratory, a multiprogram
            national laboratory, operated for the U.S. Department of Energy
            by Battelle under Contract Number DE-AC05-76RL01830. Support
            for this work was provided by the Department of Energy Office
            of Biological and Environmental Research, Office of Basic
            Energy Sciences, and the Office of Advanced Scientific Computing.


           Job information
           ---------------

    hostname        = r8n4.niserhpc.org
    program         = /home/bikashp/Code/nwchem-6.6_tpssloc/bin/LINUX64/nwchem
    date            = Mon Sep 24 15:52:26 2018

    compiled        = Tue_Sep_18_16:24:59_2018
    source          = /home/bikashp/Code/nwchem-6.6_tpssloc
    nwchem branch   = 6.6
    nwchem revision = 27746
    ga revision     = 10594
    input           = /storage/home/bikashp/nwchem_run/rabeet/pa8/nwpa8/PH3.xyz.nw
    prefix          = PH3.xyz.
    data base       = ./PH3.xyz.db
    status          = startup
    nproc           =       16
    time left       =     -1s



           Memory information
           ------------------

    heap     =   13107196 doubles =    100.0 Mbytes
    stack    =   13107201 doubles =    100.0 Mbytes
    global   =   26214400 doubles =    200.0 Mbytes (distinct from heap & stack)
    total    =   52428797 doubles =    400.0 Mbytes
    verify   = yes
    hardfail = no 


           Directory information
           ---------------------

  0 permanent = .
  0 scratch   = .




                                NWChem Input Module
                                -------------------



 Scaling coordinates for geometry "geometry" by  1.889725989
 (inverse scale =  0.529177249)

 C3V symmetry detected

          ------
          auto-z
          ------
  Looking for out-of-plane bends


                             Geometry "geometry" -> ""
                             -------------------------

 Output coordinates in angstroms (scale by  1.889725989 to convert to a.u.)

  No.       Tag          Charge          X              Y              Z
 ---- ---------------- ---------- -------------- -------------- --------------
    1 P                   15.0000     0.00000000     0.00000000     0.12461833
    2 H                    1.0000    -0.84898519    -0.84898519    -0.62309167
    3 H                    1.0000    -0.31075015     1.15973534    -0.62309167
    4 H                    1.0000     1.15973534    -0.31075015    -0.62309167

      Atomic Mass 
      ----------- 

      P                 30.973760
      H                  1.007825


 Effective nuclear repulsion energy (a.u.)      17.5990897957

            Nuclear Dipole moment (a.u.) 
            ----------------------------
        X                 Y               Z
 ---------------- ---------------- ----------------
    -0.0000000000    -0.0000000000     0.0000000000

      Symmetry information
      --------------------

 Group name             C3v       
 Group number             17
 Group order               6
 No. of unique centers     2

      Symmetry unique atoms

     1    2



                                Z-matrix (autoz)
                                -------- 

 Units are Angstrom for bonds and degrees for angles

      Type          Name      I     J     K     L     M      Value
      ----------- --------  ----- ----- ----- ----- ----- ----------
    1 Stretch                  1     2                       1.41443
    2 Stretch                  1     3                       1.41443
    3 Stretch                  1     4                       1.41443
    4 Bend                     2     1     3                94.63614
    5 Bend                     2     1     4                94.63614
    6 Bend                     3     1     4                94.63614
    7 Torsion                  2     1     3     4         -95.04484
    8 Torsion                  2     1     4     3          95.04484
    9 Torsion                  3     1     2     4          95.04484
   10 Torsion                  2     4     1     3         -95.04484
   11 Torsion                  3     2     1     4         -95.04484
   12 Torsion                  2     3     1     4          95.04484


            XYZ format geometry
            -------------------
     4
 geometry
 P                     0.00000000     0.00000000     0.12461833
 H                    -0.84898519    -0.84898519    -0.62309167
 H                    -0.31075015     1.15973534    -0.62309167
 H                     1.15973534    -0.31075015    -0.62309167

 ==============================================================================
                                internuclear distances
 ------------------------------------------------------------------------------
       center one      |      center two      | atomic units |  angstroms
 ------------------------------------------------------------------------------
    2 H                |   1 P                |     2.67289  |     1.41443
    3 H                |   1 P                |     2.67289  |     1.41443
    4 H                |   1 P                |     2.67289  |     1.41443
 ------------------------------------------------------------------------------
                         number of included internuclear distances:          3
 ==============================================================================



 ==============================================================================
                                 internuclear angles
 ------------------------------------------------------------------------------
        center 1       |       center 2       |       center 3       |  degrees
 ------------------------------------------------------------------------------
    2 H                |   1 P                |   3 H                |    94.64
    2 H                |   1 P                |   4 H                |    94.64
    3 H                |   1 P                |   4 H                |    94.64
 ------------------------------------------------------------------------------
                            number of included internuclear angles:          3
 ==============================================================================





 Summary of "ao basis" -> "" (cartesian)
 ------------------------------------------------------------------------------
       Tag                 Description            Shells   Functions and Types
 ---------------- ------------------------------  ------  ---------------------
 *                     6-311++G(3df,3pd)              on all atoms 



                                 NWChem DFT Module
                                 -----------------


                      Basis "ao basis" -> "ao basis" (cartesian)
                      -----
  P (Phosphorous)
  ---------------
            Exponent  Coefficients 
       -------------- ---------------------------------------------------------
  1 S  7.74924000E+04  0.000781
  1 S  1.16058000E+04  0.006068
  1 S  2.64596000E+03  0.031160
  1 S  7.54976000E+02  0.123431
  1 S  2.48755000E+02  0.378209
  1 S  9.11565000E+01  0.563262

  2 S  9.11565000E+01  0.160255
  2 S  3.62257000E+01  0.627647
  2 S  1.52113000E+01  0.263849

  3 S  4.79417000E+00  1.000000

  4 S  1.80793000E+00  1.000000

  5 S  3.56816000E-01  1.000000

  6 S  1.14783000E-01  1.000000

  7 P  3.84843000E+02  0.009206
  7 P  9.05521000E+01  0.069874
  7 P  2.91339000E+01  0.292470
  7 P  1.08862000E+01  0.728103

  8 P  4.35259000E+00  0.628349
  8 P  1.77706000E+00  0.428044

  9 P  6.97005000E-01  1.000000

 10 P  2.53532000E-01  1.000000

 11 P  6.84930000E-02  1.000000

 12 S  3.48000000E-02  1.000000

 13 P  3.48000000E-02  1.000000

 14 D  2.20000000E+00  1.000000

 15 D  5.50000000E-01  1.000000

 16 D  1.37500000E-01  1.000000

 17 F  4.50000000E-01  1.000000

  H (Hydrogen)
  ------------
            Exponent  Coefficients 
       -------------- ---------------------------------------------------------
  1 S  3.38650000E+01  0.025494
  1 S  5.09479000E+00  0.190373
  1 S  1.15879000E+00  0.852161

  2 S  3.25840000E-01  1.000000

  3 S  1.02741000E-01  1.000000

  4 S  3.60000000E-02  1.000000

  5 P  3.00000000E+00  1.000000

  6 P  7.50000000E-01  1.000000

  7 P  1.87500000E-01  1.000000

  8 D  1.00000000E+00  1.000000



 Summary of "ao basis" -> "ao basis" (cartesian)
 ------------------------------------------------------------------------------
       Tag                 Description            Shells   Functions and Types
 ---------------- ------------------------------  ------  ---------------------
 P                     6-311++G(3df,3pd)            17       53   7s6p3d1f
 H                     6-311++G(3df,3pd)             8       19   4s3p1d




 Summary of "ao basis" -> "ao basis" (cartesian)
 ------------------------------------------------------------------------------
       Tag                 Description            Shells   Functions and Types
 ---------------- ------------------------------  ------  ---------------------
 P                     6-311++G(3df,3pd)            17       53   7s6p3d1f
 H                     6-311++G(3df,3pd)             8       19   4s3p1d


      Symmetry analysis of basis
      --------------------------

        a1         36
        a2          6
        e          68

  Caching 1-el integrals 
  Rotation of axis 

            General Information
            -------------------
          SCF calculation type: DFT
          Wavefunction type:  closed shell.
          No. of atoms     :     4
          No. of electrons :    18
           Alpha electrons :     9
            Beta electrons :     9
          Charge           :     0
          Spin multiplicity:     1
          Use of symmetry is: on ; symmetry adaption is: on 
          Maximum number of iterations: ***
          AO basis - number of functions:   110
                     number of shells:    41
          Convergence on energy requested: 1.00D-06
          Convergence on density requested: 1.00D-05
          Convergence on gradient requested: 5.00D-04

              XC Information
              --------------
                  TPSS metaGGA Exchange Functional  1.000          
             TPSS03 metaGGA Correlation Functional  1.000          

             Grid Information
             ----------------
          Grid used for XC integration:  medium    
          Radial quadrature: Mura-Knowles        
          Angular quadrature: Lebedev. 
          Tag              B.-S. Rad. Rad. Pts. Rad. Cut. Ang. Pts.
          ---              ---------- --------- --------- ---------
          P                   1.00       88          11.0       590
          H                   0.35       45          11.0       434
          Grid pruning is: on 
          Number of quadrature shells:   133
          Spatial weights used:  Erf1

          Convergence Information
          -----------------------
          Convergence aids based upon iterative change in 
          total energy or number of iterations. 
          Levelshifting, if invoked, occurs when the 
          HOMO/LUMO gap drops below (HL_TOL): 1.00D-02
          DIIS, if invoked, will attempt to extrapolate 
          using up to (NFOCK): 10 stored Fock matrices.

                    Damping( 0%)  Levelshifting(0.5)       DIIS
                  --------------- ------------------- ---------------
          dE  on:    start            ASAP                start   
          dE off:    2 iters        *** iters           *** iters 


      Screening Tolerance Information
      -------------------------------
          Density screening/tol_rho: 1.00D-10
          AO Gaussian exp screening on grid/accAOfunc:  14
          CD Gaussian exp screening on grid/accCDfunc:  20
          XC Gaussian exp screening on grid/accXCfunc:  20
          Schwarz screening/accCoul: 1.00D-08


      Superposition of Atomic Density Guess
      -------------------------------------

 Sum of atomic energies:        -342.14993010

      Non-variational initial energy
      ------------------------------

 Total energy =    -342.362576
 1-e energy   =    -507.413032
 2-e energy   =     147.451366
 HOMO         =      -0.313574
 LUMO         =       0.029013


      Symmetry analysis of molecular orbitals - initial
      -------------------------------------------------

  Numbering of irreducible representations: 

     1 a1          2 a2          3 e       

  Orbital symmetries:

     1 a1          2 a1          3 e           4 e           5 a1      
     6 a1          7 e           8 e           9 a1         10 a1      
    11 e          12 e          13 e          14 e          15 a1      
    16 e          17 e          18 a1         19 a1      

   Time after variat. SCF:      0.3
   Time prior to 1st pass:      0.3

 Integral file          = ./PH3.xyz.aoints.00
 Record size in doubles =    65536    No. of integs per rec  =    43688
 Max. records in memory =        9    Max. records in file   = 11668017
 No. of bits per label  =        8    No. of bits per value  =       64


 #quartets = 1.153D+05 #integrals = 5.368D+06 #direct =  0.0% #cached =100.0%


File balance: exchanges=     8  moved=     4  time=   0.0


 Grid_pts file          = ./PH3.xyz.gridpts.00
 Record size in doubles =  12289        No. of grid_pts per rec  =   3070
 Max. records in memory =      3        Max. recs in file   =  62224364


           Memory utilization after 1st SCF pass: 
           Heap Space remaining (MW):       12.48            12476540
          Stack Space remaining (MW):       13.11            13106484

   convergence    iter        energy       DeltaE   RMS-Dens  Diis-err    time
 ---------------- ----- ----------------- --------- --------- ---------  ------
 d= 0,ls=0.0,diis     1   -343.2030147967 -3.61D+02  2.32D-02  6.92D-01     0.7
 d= 0,ls=0.0,diis     2   -343.1963835868  6.63D-03  4.34D-03  2.60D-02     0.8
 d= 0,ls=0.0,diis     3   -343.1985219184 -2.14D-03  1.59D-03  2.10D-02     1.0
 d= 0,ls=0.0,diis     4   -343.1992824164 -7.60D-04  2.87D-04  4.26D-04     1.1
 d= 0,ls=0.0,diis     5   -343.1993351889 -5.28D-05  6.02D-05  5.15D-06     1.3
  Resetting Diis
 d= 0,ls=0.0,diis     6   -343.1993160553  1.91D-05  8.54D-06  5.38D-08     1.4
 d= 0,ls=0.0,diis     7   -343.1993207995 -4.74D-06  1.25D-06  2.93D-09     1.5
 d= 0,ls=0.0,diis     8   -343.1993180165  2.78D-06  6.66D-07  1.98D-09     1.6
 d= 0,ls=0.0,diis     9   -343.1993190762 -1.06D-06  1.46D-07  2.81D-11     1.8
 d= 0,ls=0.0,diis    10   -343.1993191087 -3.25D-08  2.99D-08  4.35D-12     1.9


         Total DFT energy =     -343.199319108728
      One electron energy =     -508.061569375178
           Coulomb energy =      171.555511062622
          Exchange energy =      -23.606583250447
       Correlation energy =       -0.685767341378
 Nuclear repulsion energy =       17.599089795652

 Numeric. integr. density =       18.000006402327

     Total iterative time =      1.6s



                  Occupations of the irreducible representations
                  ----------------------------------------------

                     irrep           alpha         beta
                     --------     --------     --------
                     a1                5.0          5.0
                     a2                0.0          0.0
                     e                 4.0          4.0


                       DFT Final Molecular Orbital Analysis
                       ------------------------------------

 Vector    1  Occ=2.000000D+00  E=-7.665065D+01  Symmetry=a1
              MO Center= -1.6D-22,  5.9D-24,  1.2D-01, r^2= 4.1D-03
   Bfn.  Coefficient  Atom+Function         Bfn.  Coefficient  Atom+Function  
  ----- ------------  ---------------      ----- ------------  ---------------
     2      0.645163  1 P  s                  1      0.419479  1 P  s          

 Vector    2  Occ=2.000000D+00  E=-6.446183D+00  Symmetry=a1
              MO Center= -5.1D-20, -3.5D-20,  1.2D-01, r^2= 9.1D-02
   Bfn.  Coefficient  Atom+Function         Bfn.  Coefficient  Atom+Function  
  ----- ------------  ---------------      ----- ------------  ---------------
     4      0.608219  1 P  s                  3      0.492078  1 P  s          
     2     -0.310305  1 P  s          

 Vector    3  Occ=2.000000D+00  E=-4.626879D+00  Symmetry=e
              MO Center=  6.9D-06,  2.9D-05,  1.2D-01, r^2= 8.3D-02
   Bfn.  Coefficient  Atom+Function         Bfn.  Coefficient  Atom+Function  
  ----- ------------  ---------------      ----- ------------  ---------------
    11      0.594358  1 P  py                 8      0.354021  1 P  py         
    10     -0.332856  1 P  px                 7     -0.198261  1 P  px         

 Vector    4  Occ=2.000000D+00  E=-4.626879D+00  Symmetry=e
              MO Center= -6.9D-06, -2.9D-05,  1.2D-01, r^2= 8.3D-02
   Bfn.  Coefficient  Atom+Function         Bfn.  Coefficient  Atom+Function  
  ----- ------------  ---------------      ----- ------------  ---------------
    10      0.594358  1 P  px                 7      0.354021  1 P  px         
    11      0.332856  1 P  py                 8      0.198261  1 P  py         

 Vector    5  Occ=2.000000D+00  E=-4.623129D+00  Symmetry=a1
              MO Center= -1.2D-17,  2.3D-18,  1.3D-01, r^2= 8.3D-02
   Bfn.  Coefficient  Atom+Function         Bfn.  Coefficient  Atom+Function  
  ----- ------------  ---------------      ----- ------------  ---------------
    12      0.681176  1 P  pz                 9      0.405922  1 P  pz         

 Vector    6  Occ=2.000000D+00  E=-6.493952D-01  Symmetry=a1
              MO Center= -6.1D-17, -4.4D-17, -2.3D-01, r^2= 1.3D+00
   Bfn.  Coefficient  Atom+Function         Bfn.  Coefficient  Atom+Function  
  ----- ------------  ---------------      ----- ------------  ---------------
     6      0.613158  1 P  s                  5      0.561328  1 P  s          
     4     -0.333383  1 P  s                  3     -0.191733  1 P  s          

 Vector    7  Occ=2.000000D+00  E=-4.056107D-01  Symmetry=e
              MO Center= -1.0D-01, -3.1D-01, -3.1D-01, r^2= 1.8D+00
   Bfn.  Coefficient  Atom+Function         Bfn.  Coefficient  Atom+Function  
  ----- ------------  ---------------      ----- ------------  ---------------
    16      0.594435  1 P  px                17      0.365878  1 P  py         
    55     -0.243119  2 H  s                 93      0.171671  4 H  s          

 Vector    8  Occ=2.000000D+00  E=-4.056107D-01  Symmetry=e
              MO Center=  1.0D-01,  3.1D-01, -3.1D-01, r^2= 1.8D+00
   Bfn.  Coefficient  Atom+Function         Bfn.  Coefficient  Atom+Function  
  ----- ------------  ---------------      ----- ------------  ---------------
    17      0.594435  1 P  py                16     -0.365878  1 P  px         
    74      0.239479  3 H  s                 93     -0.181616  4 H  s          

 Vector    9  Occ=2.000000D+00  E=-3.021960D-01  Symmetry=a1
              MO Center=  1.7D-16, -2.9D-16,  3.0D-01, r^2= 1.9D+00
   Bfn.  Coefficient  Atom+Function         Bfn.  Coefficient  Atom+Function  
  ----- ------------  ---------------      ----- ------------  ---------------
    18      0.870806  1 P  pz                 6      0.558301  1 P  s          
     5      0.255398  1 P  s                 22      0.244234  1 P  s          
    21      0.218066  1 P  pz                53     -0.212928  1 P  fzzz       
    46     -0.193472  1 P  fxxz              51     -0.193472  1 P  fyyz       
     4     -0.161690  1 P  s                 12     -0.153470  1 P  pz         

 Vector   10  Occ=0.000000D+00  E=-6.239247D-02  Symmetry=e
              MO Center=  1.9D-02, -5.9D-02,  5.6D-02, r^2= 3.5D+00
   Bfn.  Coefficient  Atom+Function         Bfn.  Coefficient  Atom+Function  
  ----- ------------  ---------------      ----- ------------  ---------------
    17      1.034238  1 P  py                76     -0.754051  3 H  s          
    75     -0.530367  3 H  s                 20      0.427589  1 P  py         
    24      0.416521  1 P  py                57      0.391644  2 H  s          
    95      0.362407  4 H  s                 52     -0.293612  1 P  fyzz       
    74     -0.292148  3 H  s                 56      0.275466  2 H  s          

 Vector   11  Occ=0.000000D+00  E=-6.239247D-02  Symmetry=e
              MO Center= -1.9D-02,  5.9D-02,  5.6D-02, r^2= 3.5D+00
   Bfn.  Coefficient  Atom+Function         Bfn.  Coefficient  Atom+Function  
  ----- ------------  ---------------      ----- ------------  ---------------
    16      1.034238  1 P  px                95     -0.661467  4 H  s          
    57      0.644587  2 H  s                 94     -0.465248  4 H  s          
    56      0.453375  2 H  s                 19      0.427589  1 P  px         
    23      0.416521  1 P  px                49     -0.293612  1 P  fxzz       
    39      0.280244  1 P  dxy               44     -0.255741  1 P  fxxx       

 Vector   12  Occ=0.000000D+00  E=-4.136241D-02  Symmetry=a1
              MO Center=  3.4D-14,  6.8D-15, -4.7D-01, r^2= 7.9D+00
   Bfn.  Coefficient  Atom+Function         Bfn.  Coefficient  Atom+Function  
  ----- ------------  ---------------      ----- ------------  ---------------
    22      2.238332  1 P  s                 57     -1.115523  2 H  s          
    76     -1.115523  3 H  s                 95     -1.115523  4 H  s          
    25     -0.672965  1 P  pz                 6      0.553008  1 P  s          
     5      0.297069  1 P  s                 18     -0.295026  1 P  pz         
     4     -0.189751  1 P  s          

 Vector   13  Occ=0.000000D+00  E= 2.980508D-02  Symmetry=e
              MO Center=  7.8D-02,  2.8D-01, -3.6D-01, r^2= 1.3D+01
   Bfn.  Coefficient  Atom+Function         Bfn.  Coefficient  Atom+Function  
  ----- ------------  ---------------      ----- ------------  ---------------
    76      0.879349  3 H  s                 24      0.791865  1 P  py         
    95     -0.647665  4 H  s                 20     -0.581297  1 P  py         
    23     -0.462284  1 P  px                19      0.339356  1 P  px         
    57     -0.231684  2 H  s          

 Vector   14  Occ=0.000000D+00  E= 2.980508D-02  Symmetry=e
              MO Center= -7.8D-02, -2.8D-01, -3.6D-01, r^2= 1.3D+01
   Bfn.  Coefficient  Atom+Function         Bfn.  Coefficient  Atom+Function  
  ----- ------------  ---------------      ----- ------------  ---------------
    57      0.881622  2 H  s                 23     -0.791865  1 P  px         
    95     -0.641455  4 H  s                 19      0.581297  1 P  px         
    24     -0.462284  1 P  py                20      0.339356  1 P  py         
    76     -0.240167  3 H  s          

 Vector   15  Occ=0.000000D+00  E= 3.824413D-02  Symmetry=a1
              MO Center= -8.4D-15,  8.1D-14,  4.9D-01, r^2= 1.3D+01
   Bfn.  Coefficient  Atom+Function         Bfn.  Coefficient  Atom+Function  
  ----- ------------  ---------------      ----- ------------  ---------------
    25      1.936904  1 P  pz                22     -1.282014  1 P  s          
    21     -0.957228  1 P  pz                57      0.524448  2 H  s          
    76      0.524448  3 H  s                 95      0.524448  4 H  s          

 Vector   16  Occ=0.000000D+00  E= 5.164864D-02  Symmetry=a1
              MO Center= -3.1D-16, -1.3D-15,  1.1D-01, r^2= 5.2D+00
   Bfn.  Coefficient  Atom+Function         Bfn.  Coefficient  Atom+Function  
  ----- ------------  ---------------      ----- ------------  ---------------
    22      4.442736  1 P  s                  6      1.358696  1 P  s          
    21     -1.312081  1 P  pz                56     -1.267931  2 H  s          
    75     -1.267931  3 H  s                 94     -1.267931  4 H  s          
    57     -1.051236  2 H  s                 76     -1.051236  3 H  s          
    95     -1.051236  4 H  s                 43      0.721209  1 P  dzz        

 Vector   17  Occ=0.000000D+00  E= 5.692026D-02  Symmetry=e
              MO Center= -6.7D-04,  1.2D-02,  2.4D-02, r^2= 3.6D+00
   Bfn.  Coefficient  Atom+Function         Bfn.  Coefficient  Atom+Function  
  ----- ------------  ---------------      ----- ------------  ---------------
    42      0.769851  1 P  dyz               76     -0.677274  3 H  s          
    24      0.598245  1 P  py                95      0.399505  4 H  s          
    38     -0.342686  1 P  dxx               41      0.342686  1 P  dyy        
    39     -0.306228  1 P  dxy               40     -0.294357  1 P  dxz        
    57      0.277769  2 H  s                 23     -0.228743  1 P  px         

 Vector   18  Occ=0.000000D+00  E= 5.692026D-02  Symmetry=e
              MO Center=  6.7D-04, -1.2D-02,  2.4D-02, r^2= 3.6D+00
   Bfn.  Coefficient  Atom+Function         Bfn.  Coefficient  Atom+Function  
  ----- ------------  ---------------      ----- ------------  ---------------
    40      0.769851  1 P  dxz               39     -0.685372  1 P  dxy        
    57      0.621678  2 H  s                 23      0.598245  1 P  px         
    95     -0.551394  4 H  s                 42      0.294357  1 P  dyz        
    24      0.228743  1 P  py                19     -0.200647  1 P  px         
    33     -0.179836  1 P  dxy               34      0.164696  1 P  dxz        

 Vector   19  Occ=0.000000D+00  E= 8.382615D-02  Symmetry=a1
              MO Center= -4.5D-14,  1.1D-14, -8.0D-01, r^2= 1.7D+01
   Bfn.  Coefficient  Atom+Function         Bfn.  Coefficient  Atom+Function  
  ----- ------------  ---------------      ----- ------------  ---------------
    22     15.873369  1 P  s                 57     -5.770635  2 H  s          
    76     -5.770635  3 H  s                 95     -5.770635  4 H  s          
    25     -4.178995  1 P  pz                 6     -1.508374  1 P  s          
    21      0.749510  1 P  pz                56      0.713117  2 H  s          
    75      0.713117  3 H  s                 94      0.713117  4 H  s          

 Vector   20  Occ=0.000000D+00  E= 9.100479D-02  Symmetry=e
              MO Center= -7.4D-02,  2.3D-02,  4.5D-02, r^2= 1.8D+01
   Bfn.  Coefficient  Atom+Function         Bfn.  Coefficient  Atom+Function  
  ----- ------------  ---------------      ----- ------------  ---------------
    76     -5.948541  3 H  s                 57      5.808249  2 H  s          
    24      4.553495  1 P  py                20     -2.364567  1 P  py         
    75      2.216134  3 H  s                 56     -2.163868  2 H  s          
    17     -1.281279  1 P  py                23      1.119791  1 P  px         
    19     -0.581492  1 P  px                42      0.464391  1 P  dyz        

 Vector   21  Occ=0.000000D+00  E= 9.100479D-02  Symmetry=e
              MO Center=  7.4D-02, -2.3D-02,  4.5D-02, r^2= 1.8D+01
   Bfn.  Coefficient  Atom+Function         Bfn.  Coefficient  Atom+Function  
  ----- ------------  ---------------      ----- ------------  ---------------
    95      6.787786  4 H  s                 23     -4.553495  1 P  px         
    57     -3.515390  2 H  s                 76     -3.272396  3 H  s          
    94     -2.528796  4 H  s                 19      2.364567  1 P  px         
    56      1.309661  2 H  s                 16      1.281279  1 P  px         
    75      1.219134  3 H  s                 24      1.119791  1 P  py         

 Vector   22  Occ=0.000000D+00  E= 1.662272D-01  Symmetry=a1
              MO Center= -7.1D-14, -2.1D-13, -5.3D-01, r^2= 9.0D+00
   Bfn.  Coefficient  Atom+Function         Bfn.  Coefficient  Atom+Function  
  ----- ------------  ---------------      ----- ------------  ---------------
    22     17.762417  1 P  s                 57     -5.052045  2 H  s          
    76     -5.052045  3 H  s                 95     -5.052045  4 H  s          
    25     -3.588258  1 P  pz                 6      3.558708  1 P  s          
    56     -3.256156  2 H  s                 75     -3.256156  3 H  s          
    94     -3.256156  4 H  s                 21     -2.790277  1 P  pz         

 Vector   23  Occ=0.000000D+00  E= 2.148793D-01  Symmetry=e
              MO Center= -9.6D-02,  4.2D-02,  1.2D-02, r^2= 1.0D+01
   Bfn.  Coefficient  Atom+Function         Bfn.  Coefficient  Atom+Function  
  ----- ------------  ---------------      ----- ------------  ---------------
    20      3.059647  1 P  py                24     -1.883807  1 P  py         
    17     -1.317727  1 P  py                19      0.577328  1 P  px         
    52      0.377307  1 P  fyzz              75     -0.368953  3 H  s          
    45      0.361462  1 P  fxxy              50      0.361462  1 P  fyyy       
    74     -0.357857  3 H  s                 23     -0.355458  1 P  px         

 Vector   24  Occ=0.000000D+00  E= 2.148793D-01  Symmetry=e
              MO Center=  9.6D-02, -4.2D-02,  1.2D-02, r^2= 1.0D+01
   Bfn.  Coefficient  Atom+Function         Bfn.  Coefficient  Atom+Function  
  ----- ------------  ---------------      ----- ------------  ---------------
    19      3.059647  1 P  px                23     -1.883807  1 P  px         
    16     -1.317727  1 P  px                20     -0.577328  1 P  py         
    94     -0.408247  4 H  s                 93     -0.395970  4 H  s          
    49      0.377307  1 P  fxzz              44      0.361462  1 P  fxxx       
    47      0.361462  1 P  fxyy              24      0.355458  1 P  py         

 Vector   25  Occ=0.000000D+00  E= 2.270043D-01  Symmetry=a1
              MO Center= -8.0D-16, -5.1D-14,  9.6D-01, r^2= 9.6D+00
   Bfn.  Coefficient  Atom+Function         Bfn.  Coefficient  Atom+Function  
  ----- ------------  ---------------      ----- ------------  ---------------
    21      4.377070  1 P  pz                 6     -3.197656  1 P  s          
    25     -2.846883  1 P  pz                22      2.617137  1 P  s          
    56      1.657603  2 H  s                 75      1.657603  3 H  s          
    94      1.657603  4 H  s                 57     -1.138443  2 H  s          
    76     -1.138443  3 H  s                 95     -1.138443  4 H  s          

 Vector   26  Occ=0.000000D+00  E= 2.923989D-01  Symmetry=e
              MO Center= -6.1D-02,  2.0D-01, -2.1D-01, r^2= 7.8D+00
   Bfn.  Coefficient  Atom+Function         Bfn.  Coefficient  Atom+Function  
  ----- ------------  ---------------      ----- ------------  ---------------
    75      6.706824  3 H  s                 20     -5.312167  1 P  py         
    76     -4.049885  3 H  s                 56     -3.472047  2 H  s          
    94     -3.234777  4 H  s                 24      3.137464  1 P  py         
    42      2.995988  1 P  dyz               57      2.096580  2 H  s          
    17     -1.979279  1 P  py                95      1.953305  4 H  s          

 Vector   27  Occ=0.000000D+00  E= 2.923989D-01  Symmetry=e
              MO Center=  6.1D-02, -2.0D-01, -2.1D-01, r^2= 7.8D+00
   Bfn.  Coefficient  Atom+Function         Bfn.  Coefficient  Atom+Function  
  ----- ------------  ---------------      ----- ------------  ---------------
    94      5.876774  4 H  s                 56     -5.739786  2 H  s          
    19     -5.312167  1 P  px                95     -3.548663  4 H  s          
    57      3.465944  2 H  s                 23      3.137464  1 P  px         
    40      2.995988  1 P  dxz               39      2.280587  1 P  dxy        
    16     -1.979279  1 P  px                20     -1.307732  1 P  py         

 Vector   28  Occ=0.000000D+00  E= 3.507983D-01  Symmetry=a2
              MO Center= -1.6D-14, -6.9D-15, -6.1D-01, r^2= 4.2D+00
   Bfn.  Coefficient  Atom+Function         Bfn.  Coefficient  Atom+Function  
  ----- ------------  ---------------      ----- ------------  ---------------
    83      0.865932  3 H  px               103     -0.865932  4 H  py         
    64     -0.633906  2 H  px                65      0.633906  2 H  py         
    84      0.232026  3 H  py               102     -0.232026  4 H  px         

 Vector   29  Occ=0.000000D+00  E= 3.629094D-01  Symmetry=a1
              MO Center= -1.8D-13, -1.3D-13, -5.8D-01, r^2= 7.3D+00
   Bfn.  Coefficient  Atom+Function         Bfn.  Coefficient  Atom+Function  
  ----- ------------  ---------------      ----- ------------  ---------------
    22     17.586085  1 P  s                 57     -5.175804  2 H  s          
    76     -5.175804  3 H  s                 95     -5.175804  4 H  s          
     6      4.749049  1 P  s                 25     -4.086957  1 P  pz         
    38     -2.171164  1 P  dxx               41     -2.171164  1 P  dyy        
    18     -2.054150  1 P  pz                56     -1.711333  2 H  s          

 Vector   30  Occ=0.000000D+00  E= 3.674137D-01  Symmetry=e
              MO Center=  1.3D-02,  3.0D-01,  9.8D-02, r^2= 6.9D+00
   Bfn.  Coefficient  Atom+Function         Bfn.  Coefficient  Atom+Function  
  ----- ------------  ---------------      ----- ------------  ---------------
    75      5.015426  3 H  s                 20     -3.703141  1 P  py         
    76     -3.579637  3 H  s                 94     -3.174446  4 H  s          
    24      2.448839  1 P  py                95      2.265682  4 H  s          
    56     -1.840980  2 H  s                 17     -1.794588  1 P  py         
    19      1.627638  1 P  px                57      1.313954  2 H  s          

 Vector   31  Occ=0.000000D+00  E= 3.674137D-01  Symmetry=e
              MO Center= -1.3D-02, -3.0D-01,  9.8D-02, r^2= 6.9D+00
   Bfn.  Coefficient  Atom+Function         Bfn.  Coefficient  Atom+Function  
  ----- ------------  ---------------      ----- ------------  ---------------
    56      4.728425  2 H  s                 94     -3.958548  4 H  s          
    19      3.703141  1 P  px                57     -3.374796  2 H  s          
    95      2.825316  4 H  s                 23     -2.448839  1 P  px         
    16      1.794588  1 P  px                20      1.627638  1 P  py         
    66      1.170907  2 H  pz                24     -1.076336  1 P  py         

 Vector   32  Occ=0.000000D+00  E= 3.742475D-01  Symmetry=e
              MO Center= -4.2D-02, -3.7D-02, -3.5D-01, r^2= 5.0D+00
   Bfn.  Coefficient  Atom+Function         Bfn.  Coefficient  Atom+Function  
  ----- ------------  ---------------      ----- ------------  ---------------
    56      2.888831  2 H  s                 39      2.138317  1 P  dxy        
    57     -1.988509  2 H  s                 75     -1.523299  3 H  s          
    20      1.451493  1 P  py                42     -1.382550  1 P  dyz        
    19      1.362758  1 P  px                94     -1.365532  4 H  s          
    40     -1.298030  1 P  dxz               76      1.048553  3 H  s          

 Vector   33  Occ=0.000000D+00  E= 3.742475D-01  Symmetry=e
              MO Center=  4.2D-02,  3.7D-02, -3.5D-01, r^2= 5.0D+00
   Bfn.  Coefficient  Atom+Function         Bfn.  Coefficient  Atom+Function  
  ----- ------------  ---------------      ----- ------------  ---------------
    94     -2.547344  4 H  s                 75      2.456258  3 H  s          
    95      1.753449  4 H  s                 76     -1.690750  3 H  s          
    19      1.451493  1 P  px                40     -1.382550  1 P  dxz        
    20     -1.362758  1 P  py                42      1.298030  1 P  dyz        
    38     -1.069159  1 P  dxx               41      1.069159  1 P  dyy        

 Vector   34  Occ=0.000000D+00  E= 3.902438D-01  Symmetry=a1
              MO Center=  2.7D-14,  3.8D-14, -4.4D-01, r^2= 8.8D+00
   Bfn.  Coefficient  Atom+Function         Bfn.  Coefficient  Atom+Function  
  ----- ------------  ---------------      ----- ------------  ---------------
     6      6.986092  1 P  s                 56     -5.898199  2 H  s          
    75     -5.898199  3 H  s                 94     -5.898199  4 H  s          
    21     -4.314703  1 P  pz                18     -3.698498  1 P  pz         
    43      2.139389  1 P  dzz               38      1.878155  1 P  dxx        
    41      1.878155  1 P  dyy               53      1.173223  1 P  fzzz       

 Vector   35  Occ=0.000000D+00  E= 5.528253D-01  Symmetry=a1
              MO Center= -3.5D-15,  2.3D-14, -3.2D-01, r^2= 5.7D+00
   Bfn.  Coefficient  Atom+Function         Bfn.  Coefficient  Atom+Function  
  ----- ------------  ---------------      ----- ------------  ---------------
    21      3.598956  1 P  pz                43     -3.295372  1 P  dzz        
     6      2.041314  1 P  s                 66     -1.602331  2 H  pz         
    85     -1.602331  3 H  pz               104     -1.602331  4 H  pz         
    25     -0.996307  1 P  pz                56      0.671771  2 H  s          
    75      0.671771  3 H  s                 94      0.671771  4 H  s          


 center of mass
 --------------
 x =  -0.00000000 y =  -0.00000000 z =   0.10983515

 moments of inertia (a.u.)
 ------------------
          13.281703001218          -0.000000000000          -0.000000000000
          -0.000000000000          13.281703001218          -0.000000000000
          -0.000000000000          -0.000000000000          15.564467881867

     Multipole analysis of the density
     ---------------------------------

     L   x y z        total         alpha         beta         nuclear
     -   - - -        -----         -----         ----         -------
     0   0 0 0     -0.000000     -9.000000     -9.000000     18.000000

     1   1 0 0     -0.000000      0.000000      0.000000     -0.000000
     1   0 1 0     -0.000000      0.000000      0.000000     -0.000000
     1   0 0 1     -0.267765     -0.133882     -0.133882      0.000000

     2   2 0 0    -11.350943     -9.536377     -9.536377      7.721811
     2   1 1 0      0.000000     -0.000000     -0.000000      0.000000
     2   1 0 1     -0.000000     -0.000000     -0.000000      0.000000
     2   0 2 0    -11.350943     -9.536377     -9.536377      7.721811
     2   0 1 1     -0.000000     -0.000000     -0.000000      0.000000
     2   0 0 2    -13.047219     -9.019204     -9.019204      4.991189


 Parallel integral file used     132 records with       0 large values


 Task  times  cpu:        1.8s     wall:        2.7s


                                NWChem Input Module
                                -------------------


 Summary of allocated global arrays
-----------------------------------
  No active global arrays



                         GA Statistics for process    0
                         ------------------------------

       create   destroy   get      put      acc     scatter   gather  read&inc
calls:  284      284     2062     1538      383        0        0      126     
number of processes/call 3.59e+00 1.82e+00 6.44e+00 0.00e+00 0.00e+00
bytes total:             3.17e+07 6.38e+06 1.49e+07 0.00e+00 0.00e+00 1.01e+03
bytes remote:            2.42e+07 2.54e+06 1.26e+07 0.00e+00 0.00e+00 0.00e+00
Max memory consumed for GA by this process: 808992 bytes

MA_summarize_allocated_blocks: starting scan ...
MA_summarize_allocated_blocks: scan completed: 0 heap blocks, 0 stack blocks
MA usage statistics:

	allocation statistics:
					      heap	     stack
					      ----	     -----
	current number of blocks	         0	         0
	maximum number of blocks	        24	        55
	current total bytes		         0	         0
	maximum total bytes		   5044992	  23750696
	maximum total K-bytes		      5045	     23751
	maximum total M-bytes		         6	        24


                                     CITATION
                                     --------
                Please cite the following reference when publishing
                           results obtained with NWChem:

                 M. Valiev, E.J. Bylaska, N. Govind, K. Kowalski,
              T.P. Straatsma, H.J.J. van Dam, D. Wang, J. Nieplocha,
                        E. Apra, T.L. Windus, W.A. de Jong
                 "NWChem: a comprehensive and scalable open-source
                  solution for large scale molecular simulations"
                      Comput. Phys. Commun. 181, 1477 (2010)
                           doi:10.1016/j.cpc.2010.04.018

                                      AUTHORS
                                      -------
          E. Apra, E. J. Bylaska, W. A. de Jong, N. Govind, K. Kowalski,
       T. P. Straatsma, M. Valiev, H. J. J. van Dam, D. Wang, T. L. Windus,
        J. Hammond, J. Autschbach, K. Bhaskaran-Nair, J. Brabec, K. Lopata,
       S. A. Fischer, S. Krishnamoorthy, W. Ma, M. Klemm, O. Villa, Y. Chen,
    V. Anisimov, F. Aquino, S. Hirata, M. T. Hackler, T. Risthaus, M. Malagoli,
       A. Marenich, A. Otero-de-la-Roza, J. Mullin, P. Nichols, R. Peverati,
     J. Pittner, Y. Zhao, P.-D. Fan, A. Fonari, M. Williamson, R. J. Harrison,
       J. R. Rehr, M. Dupuis, D. Silverstein, D. M. A. Smith, J. Nieplocha,
        V. Tipparaju, M. Krishnan, B. E. Van Kuiken, A. Vazquez-Mayagoitia,
        L. Jensen, M. Swart, Q. Wu, T. Van Voorhis, A. A. Auer, M. Nooijen,
      L. D. Crosby, E. Brown, G. Cisneros, G. I. Fann, H. Fruchtl, J. Garza,
        K. Hirao, R. A. Kendall, J. A. Nichols, K. Tsemekhman, K. Wolinski,
     J. Anchell, D. E. Bernholdt, P. Borowski, T. Clark, D. Clerc, H. Dachsel,
   M. J. O. Deegan, K. Dyall, D. Elwood, E. Glendening, M. Gutowski, A. C. Hess,
         J. Jaffe, B. G. Johnson, J. Ju, R. Kobayashi, R. Kutteh, Z. Lin,
   R. Littlefield, X. Long, B. Meng, T. Nakajima, S. Niu, L. Pollack, M. Rosing,
   K. Glaesemann, G. Sandrone, M. Stave, H. Taylor, G. Thomas, J. H. van Lenthe,
                               A. T. Wong, Z. Zhang.

 Total times  cpu:        1.8s     wall:        2.9s
