[1537784564.729366] [r8n4:13582:0]         sys.c:744  MXM  WARN  Conflicting CPU frequencies detected, using: 2549.59
[1537784564.730399] [r8n4:13583:0]         sys.c:744  MXM  WARN  Conflicting CPU frequencies detected, using: 2545.81
[1537784564.731642] [r8n4:13585:0]         sys.c:744  MXM  WARN  Conflicting CPU frequencies detected, using: 2545.81
[1537784564.731703] [r8n4:13586:0]         sys.c:744  MXM  WARN  Conflicting CPU frequencies detected, using: 2545.81
[1537784564.732044] [r8n4:13584:0]         sys.c:744  MXM  WARN  Conflicting CPU frequencies detected, using: 2545.81
[1537784564.740860] [r8n4:13588:0]         sys.c:744  MXM  WARN  Conflicting CPU frequencies detected, using: 2499.99
[1537784564.741603] [r8n4:13587:0]         sys.c:744  MXM  WARN  Conflicting CPU frequencies detected, using: 2499.99
[1537784564.760700] [r8n4:13591:0]         sys.c:744  MXM  WARN  Conflicting CPU frequencies detected, using: 2499.99
[1537784564.761843] [r8n4:13589:0]         sys.c:744  MXM  WARN  Conflicting CPU frequencies detected, using: 2499.99
[1537784564.796772] [r8n4:13601:0]         sys.c:744  MXM  WARN  Conflicting CPU frequencies detected, using: 2499.99
[1537784564.796797] [r8n4:13599:0]         sys.c:744  MXM  WARN  Conflicting CPU frequencies detected, using: 2499.99
[1537784564.797219] [r8n4:13593:0]         sys.c:744  MXM  WARN  Conflicting CPU frequencies detected, using: 2499.99
[1537784564.797258] [r8n4:13595:0]         sys.c:744  MXM  WARN  Conflicting CPU frequencies detected, using: 2499.99
[1537784564.797561] [r8n4:13597:0]         sys.c:744  MXM  WARN  Conflicting CPU frequencies detected, using: 2499.99
[1537784564.797873] [r8n4:13605:0]         sys.c:744  MXM  WARN  Conflicting CPU frequencies detected, using: 2499.99
[1537784564.798020] [r8n4:13603:0]         sys.c:744  MXM  WARN  Conflicting CPU frequencies detected, using: 2499.99
 argument  1 = /storage/home/bikashp/nwchem_run/rabeet/pa8/nwpa8/SiH5+.xyz.nw
                                         
                                         


              Northwest Computational Chemistry Package (NWChem) 6.6
              ------------------------------------------------------


                    Environmental Molecular Sciences Laboratory
                       Pacific Northwest National Laboratory
                                Richland, WA 99352

                              Copyright (c) 1994-2015
                       Pacific Northwest National Laboratory
                            Battelle Memorial Institute

             NWChem is an open-source computational chemistry package
                        distributed under the terms of the
                      Educational Community License (ECL) 2.0
             A copy of the license is included with this distribution
                              in the LICENSE.TXT file

                                  ACKNOWLEDGMENT
                                  --------------

            This software and its documentation were developed at the
            EMSL at Pacific Northwest National Laboratory, a multiprogram
            national laboratory, operated for the U.S. Department of Energy
            by Battelle under Contract Number DE-AC05-76RL01830. Support
            for this work was provided by the Department of Energy Office
            of Biological and Environmental Research, Office of Basic
            Energy Sciences, and the Office of Advanced Scientific Computing.


           Job information
           ---------------

    hostname        = r8n4.niserhpc.org
    program         = /home/bikashp/Code/nwchem-6.6_tpssloc/bin/LINUX64/nwchem
    date            = Mon Sep 24 15:52:47 2018

    compiled        = Tue_Sep_18_16:24:59_2018
    source          = /home/bikashp/Code/nwchem-6.6_tpssloc
    nwchem branch   = 6.6
    nwchem revision = 27746
    ga revision     = 10594
    input           = /storage/home/bikashp/nwchem_run/rabeet/pa8/nwpa8/SiH5+.xyz.nw
    prefix          = SiH5+.xyz.
    data base       = ./SiH5+.xyz.db
    status          = startup
    nproc           =       16
    time left       =     -1s



           Memory information
           ------------------

    heap     =   13107196 doubles =    100.0 Mbytes
    stack    =   13107201 doubles =    100.0 Mbytes
    global   =   26214400 doubles =    200.0 Mbytes (distinct from heap & stack)
    total    =   52428797 doubles =    400.0 Mbytes
    verify   = yes
    hardfail = no 


           Directory information
           ---------------------

  0 permanent = .
  0 scratch   = .




                                NWChem Input Module
                                -------------------



 Scaling coordinates for geometry "geometry" by  1.889725989
 (inverse scale =  0.529177249)

 C1  symmetry detected

          ------
          auto-z
          ------
  autoz: The atoms group into disjoint clusters
 cluster   1:    1    4    5    6
 cluster   2:    2    3
 Connecting clusters   1   2 via atoms    1    3 r = 1.87
  autoz: regenerating connections with new bonds


                             Geometry "geometry" -> ""
                             -------------------------

 Output coordinates in angstroms (scale by  1.889725989 to convert to a.u.)

  No.       Tag          Charge          X              Y              Z
 ---- ---------------- ---------- -------------- -------------- --------------
    1 Si                  14.0000    -0.00016878     0.17274319     0.00297868
    2 H                    1.0000     0.38227361    -1.65776771    -0.03773774
    3 H                    1.0000    -0.37864450    -1.65763525    -0.03964646
    4 H                    1.0000     0.02908427     0.36771692    -1.44663999
    5 H                    1.0000    -1.27612897     0.26303700     0.71578599
    6 H                    1.0000     1.24577855     0.26624442     0.76653671

      Atomic Mass 
      ----------- 

      Si                27.976930
      H                  1.007825


 Effective nuclear repulsion energy (a.u.)      25.7236340518

            Nuclear Dipole moment (a.u.) 
            ----------------------------
        X                 Y               Z
 ---------------- ---------------- ----------------
     0.0000000000    -0.0000000000     0.0000000000



                                Z-matrix (autoz)
                                -------- 

 Units are Angstrom for bonds and degrees for angles

      Type          Name      I     J     K     L     M      Value
      ----------- --------  ----- ----- ----- ----- ----- ----------
    1 Stretch                  1     3                       1.86958
    2 Stretch                  1     4                       1.46296
    3 Stretch                  1     5                       1.46435
    4 Stretch                  1     6                       1.46429
    5 Stretch                  2     3                       0.76092
    6 Bend                     1     3     2                78.32708
    7 Bend                     3     1     4                96.42687
    8 Bend                     3     1     5                83.97697
    9 Bend                     3     1     6               104.27974
   10 Bend                     4     1     5               119.44177
   11 Bend                     4     1     6               119.41760
   12 Bend                     5     1     6               118.92430
   13 Torsion                  2     3     1     4          90.30382
   14 Torsion                  2     3     1     5        -150.65042
   15 Torsion                  2     3     1     6         -32.29178


            XYZ format geometry
            -------------------
     6
 geometry
 Si                   -0.00016878     0.17274319     0.00297868
 H                     0.38227361    -1.65776771    -0.03773774
 H                    -0.37864450    -1.65763525    -0.03964646
 H                     0.02908427     0.36771692    -1.44663999
 H                    -1.27612897     0.26303700     0.71578599
 H                     1.24577855     0.26624442     0.76653671

 ==============================================================================
                                internuclear distances
 ------------------------------------------------------------------------------
       center one      |      center two      | atomic units |  angstroms
 ------------------------------------------------------------------------------
    4 H                |   1 Si               |     2.76460  |     1.46296
    5 H                |   1 Si               |     2.76722  |     1.46435
    6 H                |   1 Si               |     2.76711  |     1.46429
 ------------------------------------------------------------------------------
                         number of included internuclear distances:          3
 ==============================================================================



 ==============================================================================
                                 internuclear angles
 ------------------------------------------------------------------------------
        center 1       |       center 2       |       center 3       |  degrees
 ------------------------------------------------------------------------------
    4 H                |   1 Si               |   5 H                |   119.44
    4 H                |   1 Si               |   6 H                |   119.42
    5 H                |   1 Si               |   6 H                |   118.92
 ------------------------------------------------------------------------------
                            number of included internuclear angles:          3
 ==============================================================================





 Summary of "ao basis" -> "" (cartesian)
 ------------------------------------------------------------------------------
       Tag                 Description            Shells   Functions and Types
 ---------------- ------------------------------  ------  ---------------------
 *                     6-311++G(3df,3pd)              on all atoms 



                                 NWChem DFT Module
                                 -----------------


                      Basis "ao basis" -> "ao basis" (cartesian)
                      -----
  Si (Silicon)
  ------------
            Exponent  Coefficients 
       -------------- ---------------------------------------------------------
  1 S  6.93792300E+04  0.000757
  1 S  1.03549400E+04  0.005932
  1 S  2.33387960E+03  0.031088
  1 S  6.57142950E+02  0.124967
  1 S  2.14301130E+02  0.386897
  1 S  7.76291680E+01  0.554888

  2 S  7.76291680E+01  0.177881
  2 S  3.06308070E+01  0.627765
  2 S  1.28012950E+01  0.247623

  3 S  3.92686600E+00  1.000000

  4 S  1.45234300E+00  1.000000

  5 S  2.56234000E-01  1.000000

  6 S  9.42790000E-02  1.000000

  7 P  3.35483190E+02  0.008866
  7 P  7.89003660E+01  0.068299
  7 P  2.49881500E+01  0.290958
  7 P  9.21971100E+00  0.732117

  8 P  3.62114000E+00  0.619879
  8 P  1.45131000E+00  0.439148

  9 P  5.04977000E-01  1.000000

 10 P  1.86317000E-01  1.000000

 11 P  6.54320000E-02  1.000000

 12 S  3.31000000E-02  1.000000

 13 P  3.31000000E-02  1.000000

 14 D  1.80000000E+00  1.000000

 15 D  4.50000000E-01  1.000000

 16 D  1.12500000E-01  1.000000

 17 F  3.20000000E-01  1.000000

  H (Hydrogen)
  ------------
            Exponent  Coefficients 
       -------------- ---------------------------------------------------------
  1 S  3.38650000E+01  0.025494
  1 S  5.09479000E+00  0.190373
  1 S  1.15879000E+00  0.852161

  2 S  3.25840000E-01  1.000000

  3 S  1.02741000E-01  1.000000

  4 S  3.60000000E-02  1.000000

  5 P  3.00000000E+00  1.000000

  6 P  7.50000000E-01  1.000000

  7 P  1.87500000E-01  1.000000

  8 D  1.00000000E+00  1.000000



 Summary of "ao basis" -> "ao basis" (cartesian)
 ------------------------------------------------------------------------------
       Tag                 Description            Shells   Functions and Types
 ---------------- ------------------------------  ------  ---------------------
 Si                    6-311++G(3df,3pd)            17       53   7s6p3d1f
 H                     6-311++G(3df,3pd)             8       19   4s3p1d




 Summary of "ao basis" -> "ao basis" (cartesian)
 ------------------------------------------------------------------------------
       Tag                 Description            Shells   Functions and Types
 ---------------- ------------------------------  ------  ---------------------
 Si                    6-311++G(3df,3pd)            17       53   7s6p3d1f
 H                     6-311++G(3df,3pd)             8       19   4s3p1d


  Caching 1-el integrals 

            General Information
            -------------------
          SCF calculation type: DFT
          Wavefunction type:  closed shell.
          No. of atoms     :     6
          No. of electrons :    18
           Alpha electrons :     9
            Beta electrons :     9
          Charge           :     1
          Spin multiplicity:     1
          Use of symmetry is: off; symmetry adaption is: off
          Maximum number of iterations: ***
          AO basis - number of functions:   148
                     number of shells:    57
          Convergence on energy requested: 1.00D-06
          Convergence on density requested: 1.00D-05
          Convergence on gradient requested: 5.00D-04

              XC Information
              --------------
                  TPSS metaGGA Exchange Functional  1.000          
             TPSS03 metaGGA Correlation Functional  1.000          

             Grid Information
             ----------------
          Grid used for XC integration:  medium    
          Radial quadrature: Mura-Knowles        
          Angular quadrature: Lebedev. 
          Tag              B.-S. Rad. Rad. Pts. Rad. Cut. Ang. Pts.
          ---              ---------- --------- --------- ---------
          Si                  1.10       88          12.0       590
          H                   0.35       45          12.0       434
          Grid pruning is: on 
          Number of quadrature shells:   313
          Spatial weights used:  Erf1

          Convergence Information
          -----------------------
          Convergence aids based upon iterative change in 
          total energy or number of iterations. 
          Levelshifting, if invoked, occurs when the 
          HOMO/LUMO gap drops below (HL_TOL): 1.00D-02
          DIIS, if invoked, will attempt to extrapolate 
          using up to (NFOCK): 10 stored Fock matrices.

                    Damping( 0%)  Levelshifting(0.5)       DIIS
                  --------------- ------------------- ---------------
          dE  on:    start            ASAP                start   
          dE off:    2 iters        *** iters           *** iters 


      Screening Tolerance Information
      -------------------------------
          Density screening/tol_rho: 1.00D-10
          AO Gaussian exp screening on grid/accAOfunc:  14
          CD Gaussian exp screening on grid/accCDfunc:  20
          XC Gaussian exp screening on grid/accXCfunc:  20
          Schwarz screening/accCoul: 1.00D-08


      Superposition of Atomic Density Guess
      -------------------------------------

 Sum of atomic energies:        -291.33584498

 Renormalizing density from      19.00 to     18

      Non-variational initial energy
      ------------------------------

 Total energy =    -281.676037
 1-e energy   =    -429.744094
 2-e energy   =     122.344423
 HOMO         =      -0.811349
 LUMO         =      -0.375757

   Time after variat. SCF:      0.4
   Time prior to 1st pass:      0.4

 Integral file          = ./SiH5+.xyz.aoints.00
 Record size in doubles =    65536    No. of integs per rec  =    43688
 Max. records in memory =      119    Max. records in file   = 11667963
 No. of bits per label  =        8    No. of bits per value  =       64


 #quartets = 1.310D+06 #integrals = 5.522D+07 #direct =  0.0% #cached =100.0%


File balance: exchanges=    23  moved=    43  time=   0.0


 Grid_pts file          = ./SiH5+.xyz.gridpts.00
 Record size in doubles =  12289        No. of grid_pts per rec  =   3070
 Max. records in memory =      6        Max. recs in file   =  62217980


           Memory utilization after 1st SCF pass: 
           Heap Space remaining (MW):        5.23             5229852
          Stack Space remaining (MW):       13.11            13106284

   convergence    iter        energy       DeltaE   RMS-Dens  Diis-err    time
 ---------------- ----- ----------------- --------- --------- ---------  ------
 d= 0,ls=0.0,diis     1   -292.0598995200 -3.18D+02  1.62D-02  5.32D+00     1.5
 d= 0,ls=0.0,diis     2   -292.0955002437 -3.56D-02  6.27D-03  1.95D+00     2.0
 d= 0,ls=0.0,diis     3   -292.1794006046 -8.39D-02  1.48D-03  1.54D-02     2.4
 d= 0,ls=0.0,diis     4   -292.1821360416 -2.74D-03  4.17D-04  3.02D-03     2.9
 d= 0,ls=0.0,diis     5   -292.1814784553  6.58D-04  1.59D-04  9.31D-05     3.3
  Resetting Diis
 d= 0,ls=0.0,diis     6   -292.1813933407  8.51D-05  4.45D-05  1.85D-05     3.8
 d= 0,ls=0.0,diis     7   -292.1813981223 -4.78D-06  1.15D-05  9.05D-08     4.2
 d= 0,ls=0.0,diis     8   -292.1813937471  4.38D-06  1.54D-06  3.70D-08     4.7
 d= 0,ls=0.0,diis     9   -292.1813923626  1.38D-06  1.31D-06  1.58D-09     5.1
 d= 0,ls=0.0,diis    10   -292.1813914537  9.09D-07  1.48D-07  9.29D-11     5.6


         Total DFT energy =     -292.181391453717
      One electron energy =     -449.087279494863
           Coulomb energy =      153.578460778757
          Exchange energy =      -21.751731248729
       Correlation energy =       -0.644475540673
 Nuclear repulsion energy =       25.723634051793

 Numeric. integr. density =       17.999987581811

     Total iterative time =      5.2s



                       DFT Final Molecular Orbital Analysis
                       ------------------------------------

 Vector    1  Occ=2.000000D+00  E=-6.603175D+01
              MO Center= -1.7D-04,  1.7D-01,  3.0D-03, r^2= 4.7D-03
   Bfn.  Coefficient  Atom+Function         Bfn.  Coefficient  Atom+Function  
  ----- ------------  ---------------      ----- ------------  ---------------
     2      0.645771  1 Si s                  1      0.417992  1 Si s          

 Vector    2  Occ=2.000000D+00  E=-5.483943D+00
              MO Center= -1.7D-04,  1.7D-01,  3.0D-03, r^2= 1.1D-01
   Bfn.  Coefficient  Atom+Function         Bfn.  Coefficient  Atom+Function  
  ----- ------------  ---------------      ----- ------------  ---------------
     4      0.577190  1 Si s                  3      0.528582  1 Si s          
     2     -0.302203  1 Si s          

 Vector    3  Occ=2.000000D+00  E=-3.868968D+00
              MO Center= -1.7D-04,  1.7D-01,  3.0D-03, r^2= 1.0D-01
   Bfn.  Coefficient  Atom+Function         Bfn.  Coefficient  Atom+Function  
  ----- ------------  ---------------      ----- ------------  ---------------
    11      0.690020  1 Si py                 8      0.400639  1 Si py         

 Vector    4  Occ=2.000000D+00  E=-3.858487D+00
              MO Center= -1.7D-04,  1.7D-01,  3.1D-03, r^2= 1.0D-01
   Bfn.  Coefficient  Atom+Function         Bfn.  Coefficient  Atom+Function  
  ----- ------------  ---------------      ----- ------------  ---------------
    10      0.689593  1 Si px                 7      0.401664  1 Si px         

 Vector    5  Occ=2.000000D+00  E=-3.858233D+00
              MO Center= -1.6D-04,  1.7D-01,  2.9D-03, r^2= 1.0D-01
   Bfn.  Coefficient  Atom+Function         Bfn.  Coefficient  Atom+Function  
  ----- ------------  ---------------      ----- ------------  ---------------
    12      0.688996  1 Si pz                 9      0.401312  1 Si pz         

 Vector    6  Occ=2.000000D+00  E=-8.645519D-01
              MO Center=  2.0D-04, -7.2D-01, -8.9D-03, r^2= 1.7D+00
   Bfn.  Coefficient  Atom+Function         Bfn.  Coefficient  Atom+Function  
  ----- ------------  ---------------      ----- ------------  ---------------
     6      0.496722  1 Si s                  5      0.395269  1 Si s          
     4     -0.221284  1 Si s                 55      0.159215  2 H  s          
    74      0.158957  3 H  s                  3     -0.155289  1 Si s          

 Vector    7  Occ=2.000000D+00  E=-7.320701D-01
              MO Center=  8.8D-04, -4.2D-01, -1.7D-02, r^2= 2.4D+00
   Bfn.  Coefficient  Atom+Function         Bfn.  Coefficient  Atom+Function  
  ----- ------------  ---------------      ----- ------------  ---------------
     5      0.374276  1 Si s                  6      0.311344  1 Si s          
    55     -0.204237  2 H  s                 74     -0.204195  3 H  s          
     4     -0.191394  1 Si s          

 Vector    8  Occ=2.000000D+00  E=-6.365860D-01
              MO Center= -3.0D-02,  1.7D-01,  4.5D-01, r^2= 2.1D+00
   Bfn.  Coefficient  Atom+Function         Bfn.  Coefficient  Atom+Function  
  ----- ------------  ---------------      ----- ------------  ---------------
    16      0.499448  1 Si px               112     -0.222529  5 H  s          
   131      0.216046  6 H  s          

 Vector    9  Occ=2.000000D+00  E=-6.326516D-01
              MO Center=  3.0D-02,  2.4D-01, -4.3D-01, r^2= 2.1D+00
   Bfn.  Coefficient  Atom+Function         Bfn.  Coefficient  Atom+Function  
  ----- ------------  ---------------      ----- ------------  ---------------
    18      0.508063  1 Si pz                93     -0.251541  4 H  s          

 Vector   10  Occ=0.000000D+00  E=-3.928316D-01
              MO Center= -1.8D-04,  2.0D-01,  2.4D-03, r^2= 2.6D+00
   Bfn.  Coefficient  Atom+Function         Bfn.  Coefficient  Atom+Function  
  ----- ------------  ---------------      ----- ------------  ---------------
    17      0.805287  1 Si py                20      0.273005  1 Si py         
     5     -0.243371  1 Si s                 55      0.175018  2 H  s          
    74      0.174426  3 H  s                  6      0.168802  1 Si s          
    11     -0.159921  1 Si py                56      0.157610  2 H  s          
    75      0.156148  3 H  s          

 Vector   11  Occ=0.000000D+00  E=-3.148577D-01
              MO Center=  4.1D-03, -7.6D-01, -6.3D-02, r^2= 3.0D+00
   Bfn.  Coefficient  Atom+Function         Bfn.  Coefficient  Atom+Function  
  ----- ------------  ---------------      ----- ------------  ---------------
    16      0.575688  1 Si px                56      0.498554  2 H  s          
    75     -0.499924  3 H  s                 55      0.335505  2 H  s          
    74     -0.335333  3 H  s                 39     -0.323341  1 Si dxy        
   113      0.323607  5 H  s                132     -0.317665  6 H  s          
   112      0.260813  5 H  s                131     -0.256434  6 H  s          

 Vector   12  Occ=0.000000D+00  E=-2.801965D-01
              MO Center= -1.5D-02, -1.4D-01,  2.1D-01, r^2= 3.3D+00
   Bfn.  Coefficient  Atom+Function         Bfn.  Coefficient  Atom+Function  
  ----- ------------  ---------------      ----- ------------  ---------------
    18      1.097429  1 Si pz                94      0.613294  4 H  s          
    93      0.420284  4 H  s                 21      0.408735  1 Si pz         
    42     -0.350125  1 Si dyz               95      0.279295  4 H  s          
   132     -0.270452  6 H  s                113     -0.252109  5 H  s          
    46     -0.191487  1 Si fxxz              25      0.189653  1 Si pz         

 Vector   13  Occ=0.000000D+00  E=-2.736420D-01
              MO Center= -2.5D-03, -1.2D-01,  5.2D-02, r^2= 4.1D+00
   Bfn.  Coefficient  Atom+Function         Bfn.  Coefficient  Atom+Function  
  ----- ------------  ---------------      ----- ------------  ---------------
     6      1.418864  1 Si s                 22      0.536595  1 Si s          
   113     -0.440681  5 H  s                132     -0.439444  6 H  s          
    94     -0.377199  4 H  s                  5      0.367936  1 Si s          
   112     -0.300935  5 H  s                131     -0.300092  6 H  s          
    93     -0.258905  4 H  s                  4     -0.224926  1 Si s          

 Vector   14  Occ=0.000000D+00  E=-2.449931D-01
              MO Center=  1.2D-02,  1.3D-02, -1.8D-01, r^2= 3.8D+00
   Bfn.  Coefficient  Atom+Function         Bfn.  Coefficient  Atom+Function  
  ----- ------------  ---------------      ----- ------------  ---------------
    16      0.764877  1 Si px                40     -0.545040  1 Si dxz        
    57     -0.483985  2 H  s                 76      0.484138  3 H  s          
    23      0.415572  1 Si px                56     -0.415727  2 H  s          
    75      0.412171  3 H  s                114      0.400237  5 H  s          
   133     -0.394004  6 H  s                 39      0.327324  1 Si dxy        

 Vector   15  Occ=0.000000D+00  E=-2.090699D-01
              MO Center=  3.5D-03, -1.3D-01, -7.0D-02, r^2= 3.7D+00
   Bfn.  Coefficient  Atom+Function         Bfn.  Coefficient  Atom+Function  
  ----- ------------  ---------------      ----- ------------  ---------------
    42      0.909091  1 Si dyz               43      0.380802  1 Si dzz        
    38     -0.360321  1 Si dxx               94     -0.348204  4 H  s          
    95      0.317739  4 H  s                 36      0.283670  1 Si dyz        
    21     -0.266653  1 Si pz               133     -0.226323  6 H  s          
    25      0.220359  1 Si pz               114     -0.215790  5 H  s          

 Vector   16  Occ=0.000000D+00  E=-1.295349D-01
              MO Center= -2.6D-03,  1.0D+00,  1.4D-02, r^2= 9.3D+00
   Bfn.  Coefficient  Atom+Function         Bfn.  Coefficient  Atom+Function  
  ----- ------------  ---------------      ----- ------------  ---------------
    22      0.616810  1 Si s                 24      0.466719  1 Si py         
    20     -0.392500  1 Si py               114      0.336767  5 H  s          
   133      0.334728  6 H  s                  6      0.320511  1 Si s          
    95      0.294812  4 H  s                  5     -0.286771  1 Si s          
    41      0.256233  1 Si dyy               56     -0.252392  2 H  s          

 Vector   17  Occ=0.000000D+00  E=-1.222675D-01
              MO Center= -1.1D-01, -1.8D+00,  1.9D-01, r^2= 7.8D+00
   Bfn.  Coefficient  Atom+Function         Bfn.  Coefficient  Atom+Function  
  ----- ------------  ---------------      ----- ------------  ---------------
     6      1.113884  1 Si s                 76      0.589537  3 H  s          
   132     -0.575027  6 H  s                 94     -0.569318  4 H  s          
    57      0.560115  2 H  s                113     -0.546548  5 H  s          
    22      0.425337  1 Si s                 56     -0.394070  2 H  s          
    75     -0.372913  3 H  s                 17     -0.339154  1 Si py         

 Vector   18  Occ=0.000000D+00  E=-1.218432D-01
              MO Center=  9.5D-02,  2.0D-01,  2.7D-01, r^2= 1.1D+01
   Bfn.  Coefficient  Atom+Function         Bfn.  Coefficient  Atom+Function  
  ----- ------------  ---------------      ----- ------------  ---------------
    23      0.853931  1 Si px                19     -0.442458  1 Si px         
    39      0.302103  1 Si dxy              114     -0.264172  5 H  s          
   133      0.260285  6 H  s                113     -0.256762  5 H  s          
    57      0.248439  2 H  s                 13     -0.196328  1 Si px         
    16     -0.185200  1 Si px               132      0.177841  6 H  s          

 Vector   19  Occ=0.000000D+00  E=-1.192730D-01
              MO Center=  1.5D-02,  2.7D-01, -4.6D-01, r^2= 1.1D+01
   Bfn.  Coefficient  Atom+Function         Bfn.  Coefficient  Atom+Function  
  ----- ------------  ---------------      ----- ------------  ---------------
    25      0.935396  1 Si pz                21     -0.396855  1 Si pz         
    95     -0.257375  4 H  s                 15     -0.197089  1 Si pz         
   132      0.196294  6 H  s                113      0.190029  5 H  s          
    18     -0.185683  1 Si pz                 6     -0.173562  1 Si s          
   133      0.170713  6 H  s                114      0.161063  5 H  s          

 Vector   20  Occ=0.000000D+00  E=-5.670806D-02
              MO Center=  6.3D-03, -1.5D-01, -1.4D-02, r^2= 1.6D+01
   Bfn.  Coefficient  Atom+Function         Bfn.  Coefficient  Atom+Function  
  ----- ------------  ---------------      ----- ------------  ---------------
    22      4.598004  1 Si s                 24     -3.194520  1 Si py         
    57     -2.438184  2 H  s                 76     -2.442899  3 H  s          
    20      0.606418  1 Si py               113     -0.568766  5 H  s          
   132     -0.559295  6 H  s                  6      0.505493  1 Si s          
    94     -0.461799  4 H  s                 25     -0.276899  1 Si pz         

 Vector   21  Occ=0.000000D+00  E=-4.967097D-02
              MO Center= -4.8D-03, -2.6D-01, -3.9D-02, r^2= 5.4D+00
   Bfn.  Coefficient  Atom+Function         Bfn.  Coefficient  Atom+Function  
  ----- ------------  ---------------      ----- ------------  ---------------
    56      2.313338  2 H  s                 75     -2.312826  3 H  s          
    39      1.680735  1 Si dxy               23     -0.996855  1 Si px         
   114     -0.888759  5 H  s                133      0.887749  6 H  s          
   113      0.767866  5 H  s                132     -0.760766  6 H  s          
    57     -0.700350  2 H  s                 40      0.692580  1 Si dxz        

 Vector   22  Occ=0.000000D+00  E=-4.258479D-02
              MO Center= -3.2D-03, -8.4D-01,  6.1D-02, r^2= 1.7D+01
   Bfn.  Coefficient  Atom+Function         Bfn.  Coefficient  Atom+Function  
  ----- ------------  ---------------      ----- ------------  ---------------
    57      4.327481  2 H  s                 76     -4.327656  3 H  s          
   114      4.264265  5 H  s                133     -4.178860  6 H  s          
    23      2.716949  1 Si px               113     -1.191772  5 H  s          
   132      1.173601  6 H  s                 19     -1.146647  1 Si px         
    16     -0.863205  1 Si px                56     -0.787699  2 H  s          

 Vector   23  Occ=0.000000D+00  E=-3.989628D-02
              MO Center= -7.6D-03,  1.4D-01,  1.5D-01, r^2= 1.7D+01
   Bfn.  Coefficient  Atom+Function         Bfn.  Coefficient  Atom+Function  
  ----- ------------  ---------------      ----- ------------  ---------------
    95      6.775008  4 H  s                 25      5.181741  1 Si pz         
   133     -3.544905  6 H  s                114     -3.336128  5 H  s          
    94     -1.963516  4 H  s                 21     -1.854882  1 Si pz         
    18     -1.130719  1 Si pz               132      0.981717  6 H  s          
   113      0.922489  5 H  s                 24     -0.325753  1 Si py         

 Vector   24  Occ=0.000000D+00  E=-3.412380D-02
              MO Center=  4.1D-03, -5.1D-01, -1.4D-01, r^2= 1.7D+01
   Bfn.  Coefficient  Atom+Function         Bfn.  Coefficient  Atom+Function  
  ----- ------------  ---------------      ----- ------------  ---------------
    57      7.091316  2 H  s                 76     -7.111906  3 H  s          
    23     -5.230973  1 Si px               114     -4.285496  5 H  s          
   133      4.146861  6 H  s                 56     -2.130453  2 H  s          
    75      2.131298  3 H  s                 19      1.783018  1 Si px         
   113      1.299417  5 H  s                132     -1.265482  6 H  s          

 Vector   25  Occ=0.000000D+00  E=-2.862690D-02
              MO Center=  4.0D-03,  1.9D-01,  4.9D-03, r^2= 1.8D+01
   Bfn.  Coefficient  Atom+Function         Bfn.  Coefficient  Atom+Function  
  ----- ------------  ---------------      ----- ------------  ---------------
    22     19.625804  1 Si s                 95     -5.969124  4 H  s          
   133     -5.819830  6 H  s                114     -5.775080  5 H  s          
    57     -1.755094  2 H  s                 76     -1.676537  3 H  s          
     6     -1.601065  1 Si s                 24     -1.010615  1 Si py         
    20     -0.505679  1 Si py                94      0.414229  4 H  s          

 Vector   26  Occ=0.000000D+00  E= 1.153274D-02
              MO Center= -1.7D-03,  1.8D-01,  3.9D-02, r^2= 9.0D+00
   Bfn.  Coefficient  Atom+Function         Bfn.  Coefficient  Atom+Function  
  ----- ------------  ---------------      ----- ------------  ---------------
     6      3.311613  1 Si s                 22      2.940447  1 Si s          
   132     -2.633154  6 H  s                113     -2.619231  5 H  s          
    17      1.741364  1 Si py                41     -1.661401  1 Si dyy        
    94     -1.391626  4 H  s                 38      0.979987  1 Si dxx        
    76     -0.944842  3 H  s                 57     -0.939908  2 H  s          

 Vector   27  Occ=0.000000D+00  E= 1.725333D-02
              MO Center=  7.9D-03, -2.9D-01, -1.6D-01, r^2= 5.5D+00
   Bfn.  Coefficient  Atom+Function         Bfn.  Coefficient  Atom+Function  
  ----- ------------  ---------------      ----- ------------  ---------------
    94      4.374324  4 H  s                 21      3.207363  1 Si pz         
    18      1.958228  1 Si pz               132     -1.647754  6 H  s          
   113     -1.525447  5 H  s                 43     -1.456176  1 Si dzz        
    25     -1.429825  1 Si pz                95     -1.424554  4 H  s          
    42      1.335917  1 Si dyz               38      1.273236  1 Si dxx        

 Vector   28  Occ=0.000000D+00  E= 3.760916D-02
              MO Center= -3.7D-03,  4.0D-01,  5.9D-02, r^2= 1.3D+01
   Bfn.  Coefficient  Atom+Function         Bfn.  Coefficient  Atom+Function  
  ----- ------------  ---------------      ----- ------------  ---------------
    19     -3.234292  1 Si px                16      3.144500  1 Si px         
    23      2.385682  1 Si px                44     -0.934117  1 Si fxxx       
    49     -0.933955  1 Si fxzz              57     -0.915187  2 H  s          
    76      0.916710  3 H  s                 47     -0.883539  1 Si fxyy       
    39      0.482944  1 Si dxy               13     -0.447420  1 Si px         

 Vector   29  Occ=0.000000D+00  E= 3.918289D-02
              MO Center=  7.5D-03,  1.9D-01, -1.7D-01, r^2= 1.4D+01
   Bfn.  Coefficient  Atom+Function         Bfn.  Coefficient  Atom+Function  
  ----- ------------  ---------------      ----- ------------  ---------------
    18      3.488864  1 Si pz                21     -3.188589  1 Si pz         
    25      2.059974  1 Si pz                53     -1.049166  1 Si fzzz       
    46     -1.032895  1 Si fxxz              51     -0.999220  1 Si fyyz       
    15     -0.527174  1 Si pz                95     -0.321234  4 H  s          
    20      0.269696  1 Si py                17     -0.210617  1 Si py         

 Vector   30  Occ=0.000000D+00  E= 5.445919D-02
              MO Center= -6.2D-04,  7.9D-01,  2.5D-02, r^2= 1.1D+01
   Bfn.  Coefficient  Atom+Function         Bfn.  Coefficient  Atom+Function  
  ----- ------------  ---------------      ----- ------------  ---------------
    22      5.226665  1 Si s                 20      4.272932  1 Si py         
    24     -3.130373  1 Si py                17     -2.416161  1 Si py         
    41     -1.460567  1 Si dyy               95     -1.202066  4 H  s          
    57     -1.088750  2 H  s                 76     -1.093421  3 H  s          
     6      1.051842  1 Si s                133     -1.010595  6 H  s          

 Vector   31  Occ=0.000000D+00  E= 8.235907D-02
              MO Center= -1.8D-04,  2.7D-01,  1.1D-02, r^2= 4.7D+00
   Bfn.  Coefficient  Atom+Function         Bfn.  Coefficient  Atom+Function  
  ----- ------------  ---------------      ----- ------------  ---------------
    56      1.041195  2 H  s                 75     -1.043230  3 H  s          
   102      0.712280  4 H  px               123     -0.632036  5 H  pz         
   142      0.620833  6 H  pz                57     -0.522687  2 H  s          
    76      0.519217  3 H  s                140     -0.363292  6 H  px         
    55      0.350160  2 H  s                 74     -0.349094  3 H  s          

 Vector   32  Occ=0.000000D+00  E= 9.861768D-02
              MO Center= -4.1D-03, -2.1D-01,  8.0D-02, r^2= 5.6D+00
   Bfn.  Coefficient  Atom+Function         Bfn.  Coefficient  Atom+Function  
  ----- ------------  ---------------      ----- ------------  ---------------
    19      3.109127  1 Si px               113      2.394458  5 H  s          
   132     -2.366193  6 H  s                 40      1.906633  1 Si dxz        
    39      1.796345  1 Si dxy               23     -1.421567  1 Si px         
   114     -0.764535  5 H  s                 66      0.756113  2 H  pz         
    85     -0.757182  3 H  pz                76     -0.712513  3 H  s          

 Vector   33  Occ=0.000000D+00  E= 1.037995D-01
              MO Center= -6.6D-04, -2.6D-01, -9.5D-02, r^2= 5.6D+00
   Bfn.  Coefficient  Atom+Function         Bfn.  Coefficient  Atom+Function  
  ----- ------------  ---------------      ----- ------------  ---------------
    22      3.772494  1 Si s                 21     -2.829148  1 Si pz         
    94     -2.626401  4 H  s                 42     -1.610636  1 Si dyz        
   114     -1.355948  5 H  s                113      1.342232  5 H  s          
   133     -1.334377  6 H  s                132      1.293477  6 H  s          
    25      1.059919  1 Si pz                38     -1.045659  1 Si dxx        

 Vector   34  Occ=0.000000D+00  E= 1.191983D-01
              MO Center=  6.3D-04, -8.5D-01, -6.3D-02, r^2= 1.1D+01
   Bfn.  Coefficient  Atom+Function         Bfn.  Coefficient  Atom+Function  
  ----- ------------  ---------------      ----- ------------  ---------------
    22     12.091061  1 Si s                  6      5.187687  1 Si s          
    95     -3.501144  4 H  s                133     -3.096024  6 H  s          
   114     -3.059824  5 H  s                 75     -3.043814  3 H  s          
    56     -2.976653  2 H  s                 20     -2.499684  1 Si py         
   113     -1.873733  5 H  s                132     -1.820048  6 H  s          

 Vector   35  Occ=0.000000D+00  E= 1.383433D-01
              MO Center=  1.9D-03, -9.7D-01, -1.3D-02, r^2= 1.1D+01
   Bfn.  Coefficient  Atom+Function         Bfn.  Coefficient  Atom+Function  
  ----- ------------  ---------------      ----- ------------  ---------------
    22     17.535613  1 Si s                 24     -3.679527  1 Si py         
    95     -3.556568  4 H  s                 57     -3.442431  2 H  s          
    76     -3.376532  3 H  s                133     -3.352703  6 H  s          
   114     -3.333041  5 H  s                 20      2.399955  1 Si py         
    43     -2.342553  1 Si dzz               38     -2.313646  1 Si dxx        

 Vector   36  Occ=0.000000D+00  E= 1.553073D-01
              MO Center=  1.3D-02,  1.4D-01, -1.9D-01, r^2= 1.2D+01
   Bfn.  Coefficient  Atom+Function         Bfn.  Coefficient  Atom+Function  
  ----- ------------  ---------------      ----- ------------  ---------------
    19     11.407902  1 Si px               113     10.060698  5 H  s          
   132     -9.937864  6 H  s                 23     -6.364136  1 Si px         
    40      5.951342  1 Si dxz              114     -5.574726  5 H  s          
   133      5.497308  6 H  s                 16      4.455883  1 Si px         
    56     -4.254196  2 H  s                 75      4.246632  3 H  s          

 Vector   37  Occ=0.000000D+00  E= 1.836624D-01
              MO Center= -2.7D-03, -4.0D-02, -2.1D-01, r^2= 1.1D+01
   Bfn.  Coefficient  Atom+Function         Bfn.  Coefficient  Atom+Function  
  ----- ------------  ---------------      ----- ------------  ---------------
    94     10.281115  4 H  s                 21      8.022541  1 Si pz         
    95     -7.129471  4 H  s                 25     -5.029869  1 Si pz         
    22      3.736299  1 Si s                132     -3.078493  6 H  s          
     6     -3.050832  1 Si s                113     -2.847340  5 H  s          
    18      2.315133  1 Si pz                43     -2.175964  1 Si dzz        

 Vector   38  Occ=0.000000D+00  E= 1.915717D-01
              MO Center=  7.0D-03, -1.5D+00,  8.2D-02, r^2= 1.0D+01
   Bfn.  Coefficient  Atom+Function         Bfn.  Coefficient  Atom+Function  
  ----- ------------  ---------------      ----- ------------  ---------------
    56      9.874235  2 H  s                 75     -9.914135  3 H  s          
    76      7.161223  3 H  s                 57     -7.119553  2 H  s          
    64     -1.894717  2 H  px                83     -1.887809  3 H  px         
   133      1.322155  6 H  s                 19     -1.232236  1 Si px         
   132     -1.070274  6 H  s                 74     -0.942074  3 H  s          

 Vector   39  Occ=0.000000D+00  E= 1.954582D-01
              MO Center= -1.7D-02,  6.2D-01,  3.4D-01, r^2= 1.1D+01
   Bfn.  Coefficient  Atom+Function         Bfn.  Coefficient  Atom+Function  
  ----- ------------  ---------------      ----- ------------  ---------------
    22     11.276422  1 Si s                  6     -5.468541  1 Si s          
   113      5.106726  5 H  s                132      5.057600  6 H  s          
   114     -4.971321  5 H  s                133     -4.894568  6 H  s          
    17      2.755740  1 Si py                21     -2.660940  1 Si pz         
    38     -1.945836  1 Si dxx               95     -1.892500  4 H  s          

 Vector   40  Occ=0.000000D+00  E= 2.484006D-01
              MO Center= -1.4D-02, -3.4D-01,  2.5D-01, r^2= 7.0D+00
   Bfn.  Coefficient  Atom+Function         Bfn.  Coefficient  Atom+Function  
  ----- ------------  ---------------      ----- ------------  ---------------
    56      5.823213  2 H  s                 75     -5.803762  3 H  s          
    57     -2.817024  2 H  s                 76      2.809097  3 H  s          
   113     -2.533553  5 H  s                132      2.469886  6 H  s          
   114      2.312887  5 H  s                133     -2.280071  6 H  s          
    23      1.983524  1 Si px                16     -1.719681  1 Si px         

 Vector   41  Occ=0.000000D+00  E= 2.620751D-01
              MO Center=  1.8D-02, -5.8D-03, -3.1D-01, r^2= 6.0D+00
   Bfn.  Coefficient  Atom+Function         Bfn.  Coefficient  Atom+Function  
  ----- ------------  ---------------      ----- ------------  ---------------
    95      1.884279  4 H  s                 21      1.430737  1 Si pz         
    94     -1.360448  4 H  s                 93      1.202588  4 H  s          
    42     -0.984976  1 Si dyz               22     -0.741489  1 Si s          
   132      0.734498  6 H  s                 18     -0.720389  1 Si pz         
   123     -0.723946  5 H  pz               142     -0.720632  6 H  pz         

 Vector   42  Occ=0.000000D+00  E= 2.688631D-01
              MO Center= -5.9D-03, -3.6D-01,  1.4D-01, r^2= 6.4D+00
   Bfn.  Coefficient  Atom+Function         Bfn.  Coefficient  Atom+Function  
  ----- ------------  ---------------      ----- ------------  ---------------
    17      2.014183  1 Si py                94     -1.969650  4 H  s          
   132     -1.898283  6 H  s                113     -1.878354  5 H  s          
    22     -1.728300  1 Si s                  6      1.568462  1 Si s          
    20     -1.192631  1 Si py                75      1.057292  3 H  s          
    56      1.029110  2 H  s                133      0.964449  6 H  s          

 Vector   43  Occ=0.000000D+00  E= 3.237132D-01
              MO Center= -4.3D-03, -4.1D-01, -7.2D-03, r^2= 5.9D+00
   Bfn.  Coefficient  Atom+Function         Bfn.  Coefficient  Atom+Function  
  ----- ------------  ---------------      ----- ------------  ---------------
    39      3.997628  1 Si dxy               75     -2.100064  3 H  s          
    56      1.928522  2 H  s                 16      1.463666  1 Si px         
   113      1.428338  5 H  s                 66     -1.323146  2 H  pz         
    85      1.298310  3 H  pz                84     -1.130032  3 H  py         
   122      1.094781  5 H  py                65      1.072358  2 H  py         

 Vector   44  Occ=0.000000D+00  E= 3.269364D-01
              MO Center=  6.3D-03, -3.0D-01,  4.8D-02, r^2= 6.1D+00
   Bfn.  Coefficient  Atom+Function         Bfn.  Coefficient  Atom+Function  
  ----- ------------  ---------------      ----- ------------  ---------------
    17      3.600246  1 Si py                 6      3.442046  1 Si s          
    42      2.532249  1 Si dyz              132     -2.480444  6 H  s          
   113     -2.290974  5 H  s                 18      1.957349  1 Si pz         
    22     -1.526129  1 Si s                 94     -1.453601  4 H  s          
    45     -1.251254  1 Si fxxy              52     -1.174974  1 Si fyzz       

 Vector   45  Occ=0.000000D+00  E= 3.767203D-01
              MO Center= -8.7D-02, -2.5D-02, -3.7D-02, r^2= 6.1D+00
   Bfn.  Coefficient  Atom+Function         Bfn.  Coefficient  Atom+Function  
  ----- ------------  ---------------      ----- ------------  ---------------
     6      8.414795  1 Si s                132     -6.752735  6 H  s          
    40      4.305178  1 Si dxz               56      4.008468  2 H  s          
    17      3.765115  1 Si py                16      3.494516  1 Si px         
    41     -2.494725  1 Si dyy               75     -2.275730  3 H  s          
    94     -2.278884  4 H  s                140      1.547060  6 H  px         

 Vector   46  Occ=0.000000D+00  E= 3.769711D-01
              MO Center=  9.8D-02,  3.2D-02, -1.3D-01, r^2= 6.1D+00
   Bfn.  Coefficient  Atom+Function         Bfn.  Coefficient  Atom+Function  
  ----- ------------  ---------------      ----- ------------  ---------------
     6     11.248106  1 Si s                113     -6.750911  5 H  s          
    17      4.922213  1 Si py                75      3.399255  3 H  s          
    41     -3.296065  1 Si dyy               40     -3.131055  1 Si dxz        
    94     -2.837641  4 H  s                 16     -2.549898  1 Si px         
     5     -1.849987  1 Si s                 45     -1.730598  1 Si fxxy       

 Vector   47  Occ=0.000000D+00  E= 4.085274D-01
              MO Center=  2.4D-03, -1.5D-01,  1.1D-01, r^2= 8.0D+00
   Bfn.  Coefficient  Atom+Function         Bfn.  Coefficient  Atom+Function  
  ----- ------------  ---------------      ----- ------------  ---------------
    20      6.951982  1 Si py                 6     -5.653076  1 Si s          
    94     -5.189210  4 H  s                 75      5.122350  3 H  s          
    56      5.089155  2 H  s                 17      4.769225  1 Si py         
    18     -4.449228  1 Si pz                41     -3.899752  1 Si dyy        
    43      3.243778  1 Si dzz               21     -2.637562  1 Si pz         

 Vector   48  Occ=0.000000D+00  E= 4.152459D-01
              MO Center=  9.3D-03,  3.0D-01, -3.3D-01, r^2= 4.8D+00
   Bfn.  Coefficient  Atom+Function         Bfn.  Coefficient  Atom+Function  
  ----- ------------  ---------------      ----- ------------  ---------------
    18     10.032922  1 Si pz                94      8.690412  4 H  s          
    21      4.410041  1 Si pz               132     -4.268620  6 H  s          
   113     -4.029053  5 H  s                 38      3.151295  1 Si dxx        
    51     -2.927585  1 Si fyyz              53     -2.843393  1 Si fzzz       
     6     -2.802585  1 Si s                 46     -2.789572  1 Si fxxz       

 Vector   49  Occ=0.000000D+00  E= 4.373131D-01
              MO Center=  1.0D-02,  5.4D-02, -2.5D-01, r^2= 4.9D+00
   Bfn.  Coefficient  Atom+Function         Bfn.  Coefficient  Atom+Function  
  ----- ------------  ---------------      ----- ------------  ---------------
    18     13.121379  1 Si pz                94      7.699958  4 H  s          
    51     -4.429393  1 Si fyyz              46     -4.079068  1 Si fxxz       
    53     -4.048825  1 Si fzzz             132     -3.505680  6 H  s          
    15     -3.363518  1 Si pz                21      3.350785  1 Si pz         
   113     -3.360930  5 H  s                 38      2.249990  1 Si dxx        

 Vector   50  Occ=0.000000D+00  E= 4.444677D-01
              MO Center= -8.8D-03,  1.1D-01,  1.1D-01, r^2= 6.4D+00
   Bfn.  Coefficient  Atom+Function         Bfn.  Coefficient  Atom+Function  
  ----- ------------  ---------------      ----- ------------  ---------------
    16     16.146318  1 Si px                47     -5.798471  1 Si fxyy       
    44     -5.570026  1 Si fxxx              49     -5.566352  1 Si fxzz       
    13     -4.558901  1 Si px               113      4.094622  5 H  s          
   132     -4.007458  6 H  s                 75      1.453499  3 H  s          
    56     -1.403696  2 H  s                114     -1.184905  5 H  s          

 Vector   51  Occ=0.000000D+00  E= 4.612642D-01
              MO Center= -1.2D-02, -2.8D-02,  3.9D-01, r^2= 6.3D+00
   Bfn.  Coefficient  Atom+Function         Bfn.  Coefficient  Atom+Function  
  ----- ------------  ---------------      ----- ------------  ---------------
    94     -7.086734  4 H  s                  6      6.677768  1 Si s          
    21     -6.405379  1 Si pz                18      5.952198  1 Si pz         
    38     -3.850508  1 Si dxx               53     -3.137749  1 Si fzzz       
    51     -2.952111  1 Si fyyz              46     -2.900349  1 Si fxxz       
    43      2.497072  1 Si dzz               15     -2.466005  1 Si pz         

 Vector   52  Occ=0.000000D+00  E= 4.653655D-01
              MO Center= -8.0D-03, -2.0D-01, -1.7D-01, r^2= 5.2D+00
   Bfn.  Coefficient  Atom+Function         Bfn.  Coefficient  Atom+Function  
  ----- ------------  ---------------      ----- ------------  ---------------
   132     -5.949907  6 H  s                113      5.815123  5 H  s          
    19      5.766929  1 Si px                16      3.384062  1 Si px         
    23     -2.472889  1 Si px               133      1.906155  6 H  s          
   114     -1.852158  5 H  s                142      1.359202  6 H  pz         
   121      1.246877  5 H  px               123     -1.207282  5 H  pz         

 Vector   53  Occ=0.000000D+00  E= 4.962942D-01
              MO Center= -2.6D-03, -1.3D-01,  2.4D-01, r^2= 6.2D+00
   Bfn.  Coefficient  Atom+Function         Bfn.  Coefficient  Atom+Function  
  ----- ------------  ---------------      ----- ------------  ---------------
     6      9.008095  1 Si s                 21      3.989661  1 Si pz         
   113     -3.867559  5 H  s                132     -3.324475  6 H  s          
    17     -2.607001  1 Si py                94      2.493371  4 H  s          
    18     -2.199859  1 Si pz                46      2.125765  1 Si fxxz       
   121     -2.065905  5 H  px                38     -2.040081  1 Si dxx        

 Vector   54  Occ=0.000000D+00  E= 5.063579D-01
              MO Center=  1.3D-02,  2.9D-01, -2.5D-01, r^2= 6.0D+00
   Bfn.  Coefficient  Atom+Function         Bfn.  Coefficient  Atom+Function  
  ----- ------------  ---------------      ----- ------------  ---------------
    19     11.123137  1 Si px               113     11.044181  5 H  s          
   132    -11.032734  6 H  s                 40      9.986327  1 Si dxz        
    56     -6.190905  2 H  s                 75      6.100837  3 H  s          
    16      4.894529  1 Si px                23     -3.550784  1 Si px         
   114     -2.605209  5 H  s                133      2.583077  6 H  s          


 center of mass
 --------------
 x =  -0.00013397 y =   0.13710996 z =   0.00236424

 moments of inertia (a.u.)
 ------------------
          34.633338444327          -0.000000000000           0.000000000000
          -0.000000000000          23.993531155392           0.000000000000
           0.000000000000           0.000000000000          35.622829080773

     Multipole analysis of the density
     ---------------------------------

     L   x y z        total         alpha         beta         nuclear
     -   - - -        -----         -----         ----         -------
     0   0 0 0      1.000000     -9.000000     -9.000000     19.000000

     1   1 0 0      0.000021      0.000010      0.000010      0.000000
     1   0 1 0     -0.543024     -0.271512     -0.271512     -0.000000
     1   0 0 1     -0.004310     -0.002155     -0.002155      0.000000

     2   2 0 0     -9.498308    -10.946415    -10.946415     12.394523
     2   1 1 0     -0.005417     -0.003124     -0.003124      0.000831
     2   1 0 1      0.000392      0.000189      0.000189      0.000014
     2   0 2 0     -6.103947    -14.102635    -14.102635     22.101323
     2   0 1 1      0.101038      0.057851      0.057851     -0.014664
     2   0 0 2    -10.007254    -10.709859    -10.709859     11.412463


 Parallel integral file used    1272 records with       0 large values


 Task  times  cpu:        5.6s     wall:        6.3s


                                NWChem Input Module
                                -------------------


 Summary of allocated global arrays
-----------------------------------
  No active global arrays



                         GA Statistics for process    0
                         ------------------------------

       create   destroy   get      put      acc     scatter   gather  read&inc
calls:  165      165     5308     1362     2277        0        0      151     
number of processes/call 1.78e+00 1.73e+00 1.70e+00 0.00e+00 0.00e+00
bytes total:             6.45e+07 6.82e+06 2.98e+07 0.00e+00 0.00e+00 1.21e+03
bytes remote:            5.11e+07 3.93e+06 2.50e+07 0.00e+00 0.00e+00 0.00e+00
Max memory consumed for GA by this process: 860472 bytes

MA_summarize_allocated_blocks: starting scan ...
MA_summarize_allocated_blocks: scan completed: 0 heap blocks, 0 stack blocks
MA usage statistics:

	allocation statistics:
					      heap	     stack
					      ----	     -----
	current number of blocks	         0	         0
	maximum number of blocks	        23	        51
	current total bytes		         0	         0
	maximum total bytes		  63018248	  25392232
	maximum total K-bytes		     63019	     25393
	maximum total M-bytes		        64	        26


                                     CITATION
                                     --------
                Please cite the following reference when publishing
                           results obtained with NWChem:

                 M. Valiev, E.J. Bylaska, N. Govind, K. Kowalski,
              T.P. Straatsma, H.J.J. van Dam, D. Wang, J. Nieplocha,
                        E. Apra, T.L. Windus, W.A. de Jong
                 "NWChem: a comprehensive and scalable open-source
                  solution for large scale molecular simulations"
                      Comput. Phys. Commun. 181, 1477 (2010)
                           doi:10.1016/j.cpc.2010.04.018

                                      AUTHORS
                                      -------
          E. Apra, E. J. Bylaska, W. A. de Jong, N. Govind, K. Kowalski,
       T. P. Straatsma, M. Valiev, H. J. J. van Dam, D. Wang, T. L. Windus,
        J. Hammond, J. Autschbach, K. Bhaskaran-Nair, J. Brabec, K. Lopata,
       S. A. Fischer, S. Krishnamoorthy, W. Ma, M. Klemm, O. Villa, Y. Chen,
    V. Anisimov, F. Aquino, S. Hirata, M. T. Hackler, T. Risthaus, M. Malagoli,
       A. Marenich, A. Otero-de-la-Roza, J. Mullin, P. Nichols, R. Peverati,
     J. Pittner, Y. Zhao, P.-D. Fan, A. Fonari, M. Williamson, R. J. Harrison,
       J. R. Rehr, M. Dupuis, D. Silverstein, D. M. A. Smith, J. Nieplocha,
        V. Tipparaju, M. Krishnan, B. E. Van Kuiken, A. Vazquez-Mayagoitia,
        L. Jensen, M. Swart, Q. Wu, T. Van Voorhis, A. A. Auer, M. Nooijen,
      L. D. Crosby, E. Brown, G. Cisneros, G. I. Fann, H. Fruchtl, J. Garza,
        K. Hirao, R. A. Kendall, J. A. Nichols, K. Tsemekhman, K. Wolinski,
     J. Anchell, D. E. Bernholdt, P. Borowski, T. Clark, D. Clerc, H. Dachsel,
   M. J. O. Deegan, K. Dyall, D. Elwood, E. Glendening, M. Gutowski, A. C. Hess,
         J. Jaffe, B. G. Johnson, J. Ju, R. Kobayashi, R. Kutteh, Z. Lin,
   R. Littlefield, X. Long, B. Meng, T. Nakajima, S. Niu, L. Pollack, M. Rosing,
   K. Glaesemann, G. Sandrone, M. Stave, H. Taylor, G. Thomas, J. H. van Lenthe,
                               A. T. Wong, Z. Zhang.

 Total times  cpu:        5.6s     wall:        6.5s
