[1537784557.671672] [r8n4:13364:0]         sys.c:744  MXM  WARN  Conflicting CPU frequencies detected, using: 2499.99
[1537784557.680351] [r8n4:13366:0]         sys.c:744  MXM  WARN  Conflicting CPU frequencies detected, using: 2499.99
[1537784557.681414] [r8n4:13365:0]         sys.c:744  MXM  WARN  Conflicting CPU frequencies detected, using: 2499.99
[1537784557.682313] [r8n4:13367:0]         sys.c:744  MXM  WARN  Conflicting CPU frequencies detected, using: 2499.99
[1537784557.682619] [r8n4:13373:0]         sys.c:744  MXM  WARN  Conflicting CPU frequencies detected, using: 2499.99
[1537784557.682723] [r8n4:13372:0]         sys.c:744  MXM  WARN  Conflicting CPU frequencies detected, using: 2499.99
[1537784557.682761] [r8n4:13371:0]         sys.c:744  MXM  WARN  Conflicting CPU frequencies detected, using: 2499.99
[1537784557.698964] [r8n4:13375:0]         sys.c:744  MXM  WARN  Conflicting CPU frequencies detected, using: 2499.99
[1537784557.700217] [r8n4:13374:0]         sys.c:744  MXM  WARN  Conflicting CPU frequencies detected, using: 2499.99
[1537784557.721931] [r8n4:13387:0]         sys.c:744  MXM  WARN  Conflicting CPU frequencies detected, using: 2499.99
[1537784557.724502] [r8n4:13378:0]         sys.c:744  MXM  WARN  Conflicting CPU frequencies detected, using: 2499.99
[1537784557.724500] [r8n4:13379:0]         sys.c:744  MXM  WARN  Conflicting CPU frequencies detected, using: 2499.99
[1537784557.724643] [r8n4:13381:0]         sys.c:744  MXM  WARN  Conflicting CPU frequencies detected, using: 2499.99
[1537784557.724976] [r8n4:13376:0]         sys.c:744  MXM  WARN  Conflicting CPU frequencies detected, using: 2499.99
[1537784557.730942] [r8n4:13383:0]         sys.c:744  MXM  WARN  Conflicting CPU frequencies detected, using: 2499.99
[1537784557.739360] [r8n4:13385:0]         sys.c:744  MXM  WARN  Conflicting CPU frequencies detected, using: 2499.99
 argument  1 = /storage/home/bikashp/nwchem_run/rabeet/pa8/nwpa8/SiH4.xyz.nw
                                         
                                         


              Northwest Computational Chemistry Package (NWChem) 6.6
              ------------------------------------------------------


                    Environmental Molecular Sciences Laboratory
                       Pacific Northwest National Laboratory
                                Richland, WA 99352

                              Copyright (c) 1994-2015
                       Pacific Northwest National Laboratory
                            Battelle Memorial Institute

             NWChem is an open-source computational chemistry package
                        distributed under the terms of the
                      Educational Community License (ECL) 2.0
             A copy of the license is included with this distribution
                              in the LICENSE.TXT file

                                  ACKNOWLEDGMENT
                                  --------------

            This software and its documentation were developed at the
            EMSL at Pacific Northwest National Laboratory, a multiprogram
            national laboratory, operated for the U.S. Department of Energy
            by Battelle under Contract Number DE-AC05-76RL01830. Support
            for this work was provided by the Department of Energy Office
            of Biological and Environmental Research, Office of Basic
            Energy Sciences, and the Office of Advanced Scientific Computing.


           Job information
           ---------------

    hostname        = r8n4.niserhpc.org
    program         = /home/bikashp/Code/nwchem-6.6_tpssloc/bin/LINUX64/nwchem
    date            = Mon Sep 24 15:52:40 2018

    compiled        = Tue_Sep_18_16:24:59_2018
    source          = /home/bikashp/Code/nwchem-6.6_tpssloc
    nwchem branch   = 6.6
    nwchem revision = 27746
    ga revision     = 10594
    input           = /storage/home/bikashp/nwchem_run/rabeet/pa8/nwpa8/SiH4.xyz.nw
    prefix          = SiH4.xyz.
    data base       = ./SiH4.xyz.db
    status          = startup
    nproc           =       16
    time left       =     -1s



           Memory information
           ------------------

    heap     =   13107196 doubles =    100.0 Mbytes
    stack    =   13107201 doubles =    100.0 Mbytes
    global   =   26214400 doubles =    200.0 Mbytes (distinct from heap & stack)
    total    =   52428797 doubles =    400.0 Mbytes
    verify   = yes
    hardfail = no 


           Directory information
           ---------------------

  0 permanent = .
  0 scratch   = .




                                NWChem Input Module
                                -------------------



 Scaling coordinates for geometry "geometry" by  1.889725989
 (inverse scale =  0.529177249)

 TD  symmetry detected

          ------
          auto-z
          ------
  Looking for out-of-plane bends


                             Geometry "geometry" -> ""
                             -------------------------

 Output coordinates in angstroms (scale by  1.889725989 to convert to a.u.)

  No.       Tag          Charge          X              Y              Z
 ---- ---------------- ---------- -------------- -------------- --------------
    1 Si                  14.0000     0.00000000     0.00000000     0.00000000
    2 H                    1.0000     0.85613000    -0.85613000     0.85613000
    3 H                    1.0000    -0.85613000     0.85613000     0.85613000
    4 H                    1.0000     0.85613000     0.85613000    -0.85613000
    5 H                    1.0000    -0.85613000    -0.85613000    -0.85613000

      Atomic Mass 
      ----------- 

      Si                27.976930
      H                  1.007825


 Effective nuclear repulsion energy (a.u.)      21.2954920217

            Nuclear Dipole moment (a.u.) 
            ----------------------------
        X                 Y               Z
 ---------------- ---------------- ----------------
     0.0000000000     0.0000000000     0.0000000000

      Symmetry information
      --------------------

 Group name              Td       
 Group number             42
 Group order              24
 No. of unique centers     2

      Symmetry unique atoms

     1    2



                                Z-matrix (autoz)
                                -------- 

 Units are Angstrom for bonds and degrees for angles

      Type          Name      I     J     K     L     M      Value
      ----------- --------  ----- ----- ----- ----- ----- ----------
    1 Stretch                  1     2                       1.48286
    2 Stretch                  1     3                       1.48286
    3 Stretch                  1     4                       1.48286
    4 Stretch                  1     5                       1.48286
    5 Bend                     2     1     3               109.47122
    6 Bend                     2     1     4               109.47122
    7 Bend                     2     1     5               109.47122
    8 Bend                     3     1     4               109.47122
    9 Bend                     3     1     5               109.47122
   10 Bend                     4     1     5               109.47122


            XYZ format geometry
            -------------------
     5
 geometry
 Si                    0.00000000     0.00000000     0.00000000
 H                     0.85613000    -0.85613000     0.85613000
 H                    -0.85613000     0.85613000     0.85613000
 H                     0.85613000     0.85613000    -0.85613000
 H                    -0.85613000    -0.85613000    -0.85613000

 ==============================================================================
                                internuclear distances
 ------------------------------------------------------------------------------
       center one      |      center two      | atomic units |  angstroms
 ------------------------------------------------------------------------------
    2 H                |   1 Si               |     2.80220  |     1.48286
    3 H                |   1 Si               |     2.80220  |     1.48286
    4 H                |   1 Si               |     2.80220  |     1.48286
    5 H                |   1 Si               |     2.80220  |     1.48286
 ------------------------------------------------------------------------------
                         number of included internuclear distances:          4
 ==============================================================================



 ==============================================================================
                                 internuclear angles
 ------------------------------------------------------------------------------
        center 1       |       center 2       |       center 3       |  degrees
 ------------------------------------------------------------------------------
    2 H                |   1 Si               |   3 H                |   109.47
    2 H                |   1 Si               |   4 H                |   109.47
    2 H                |   1 Si               |   5 H                |   109.47
    3 H                |   1 Si               |   4 H                |   109.47
    3 H                |   1 Si               |   5 H                |   109.47
    4 H                |   1 Si               |   5 H                |   109.47
 ------------------------------------------------------------------------------
                            number of included internuclear angles:          6
 ==============================================================================





 Summary of "ao basis" -> "" (cartesian)
 ------------------------------------------------------------------------------
       Tag                 Description            Shells   Functions and Types
 ---------------- ------------------------------  ------  ---------------------
 *                     6-311++G(3df,3pd)              on all atoms 



                                 NWChem DFT Module
                                 -----------------


                      Basis "ao basis" -> "ao basis" (cartesian)
                      -----
  Si (Silicon)
  ------------
            Exponent  Coefficients 
       -------------- ---------------------------------------------------------
  1 S  6.93792300E+04  0.000757
  1 S  1.03549400E+04  0.005932
  1 S  2.33387960E+03  0.031088
  1 S  6.57142950E+02  0.124967
  1 S  2.14301130E+02  0.386897
  1 S  7.76291680E+01  0.554888

  2 S  7.76291680E+01  0.177881
  2 S  3.06308070E+01  0.627765
  2 S  1.28012950E+01  0.247623

  3 S  3.92686600E+00  1.000000

  4 S  1.45234300E+00  1.000000

  5 S  2.56234000E-01  1.000000

  6 S  9.42790000E-02  1.000000

  7 P  3.35483190E+02  0.008866
  7 P  7.89003660E+01  0.068299
  7 P  2.49881500E+01  0.290958
  7 P  9.21971100E+00  0.732117

  8 P  3.62114000E+00  0.619879
  8 P  1.45131000E+00  0.439148

  9 P  5.04977000E-01  1.000000

 10 P  1.86317000E-01  1.000000

 11 P  6.54320000E-02  1.000000

 12 S  3.31000000E-02  1.000000

 13 P  3.31000000E-02  1.000000

 14 D  1.80000000E+00  1.000000

 15 D  4.50000000E-01  1.000000

 16 D  1.12500000E-01  1.000000

 17 F  3.20000000E-01  1.000000

  H (Hydrogen)
  ------------
            Exponent  Coefficients 
       -------------- ---------------------------------------------------------
  1 S  3.38650000E+01  0.025494
  1 S  5.09479000E+00  0.190373
  1 S  1.15879000E+00  0.852161

  2 S  3.25840000E-01  1.000000

  3 S  1.02741000E-01  1.000000

  4 S  3.60000000E-02  1.000000

  5 P  3.00000000E+00  1.000000

  6 P  7.50000000E-01  1.000000

  7 P  1.87500000E-01  1.000000

  8 D  1.00000000E+00  1.000000



 Summary of "ao basis" -> "ao basis" (cartesian)
 ------------------------------------------------------------------------------
       Tag                 Description            Shells   Functions and Types
 ---------------- ------------------------------  ------  ---------------------
 Si                    6-311++G(3df,3pd)            17       53   7s6p3d1f
 H                     6-311++G(3df,3pd)             8       19   4s3p1d




 Summary of "ao basis" -> "ao basis" (cartesian)
 ------------------------------------------------------------------------------
       Tag                 Description            Shells   Functions and Types
 ---------------- ------------------------------  ------  ---------------------
 Si                    6-311++G(3df,3pd)            17       53   7s6p3d1f
 H                     6-311++G(3df,3pd)             8       19   4s3p1d


      Symmetry analysis of basis
      --------------------------

        a1         20
        a2          0
        e          16
        t1         18
        t2         75

  Caching 1-el integrals 

            General Information
            -------------------
          SCF calculation type: DFT
          Wavefunction type:  closed shell.
          No. of atoms     :     5
          No. of electrons :    18
           Alpha electrons :     9
            Beta electrons :     9
          Charge           :     0
          Spin multiplicity:     1
          Use of symmetry is: on ; symmetry adaption is: on 
          Maximum number of iterations: ***
          AO basis - number of functions:   129
                     number of shells:    49
          Convergence on energy requested: 1.00D-06
          Convergence on density requested: 1.00D-05
          Convergence on gradient requested: 5.00D-04

              XC Information
              --------------
                  TPSS metaGGA Exchange Functional  1.000          
             TPSS03 metaGGA Correlation Functional  1.000          

             Grid Information
             ----------------
          Grid used for XC integration:  medium    
          Radial quadrature: Mura-Knowles        
          Angular quadrature: Lebedev. 
          Tag              B.-S. Rad. Rad. Pts. Rad. Cut. Ang. Pts.
          ---              ---------- --------- --------- ---------
          Si                  1.10       88          11.0       590
          H                   0.35       45          12.0       434
          Grid pruning is: on 
          Number of quadrature shells:   133
          Spatial weights used:  Erf1

          Convergence Information
          -----------------------
          Convergence aids based upon iterative change in 
          total energy or number of iterations. 
          Levelshifting, if invoked, occurs when the 
          HOMO/LUMO gap drops below (HL_TOL): 1.00D-02
          DIIS, if invoked, will attempt to extrapolate 
          using up to (NFOCK): 10 stored Fock matrices.

                    Damping( 0%)  Levelshifting(0.5)       DIIS
                  --------------- ------------------- ---------------
          dE  on:    start            ASAP                start   
          dE off:    2 iters        *** iters           *** iters 


      Screening Tolerance Information
      -------------------------------
          Density screening/tol_rho: 1.00D-10
          AO Gaussian exp screening on grid/accAOfunc:  14
          CD Gaussian exp screening on grid/accCDfunc:  20
          XC Gaussian exp screening on grid/accXCfunc:  20
          Schwarz screening/accCoul: 1.00D-08


      Superposition of Atomic Density Guess
      -------------------------------------

 Sum of atomic energies:        -290.83602681

      Non-variational initial energy
      ------------------------------

 Total energy =    -291.041032
 1-e energy   =    -444.411388
 2-e energy   =     132.074864
 HOMO         =      -0.435272
 LUMO         =       0.034944


      Symmetry analysis of molecular orbitals - initial
      -------------------------------------------------

  Numbering of irreducible representations: 

     1 a1          2 a2          3 e           4 t1          5 t2      

  Orbital symmetries:

     1 a1          2 a1          3 t2          4 t2          5 t2      
     6 a1          7 t2          8 t2          9 t2         10 a1      
    11 t2         12 t2         13 t2         14 t2         15 t2      
    16 t2         17 a1         18 t2         19 t2      

   Time after variat. SCF:      0.8
   Time prior to 1st pass:      0.8

 Integral file          = ./SiH4.xyz.aoints.00
 Record size in doubles =    65536    No. of integs per rec  =    43688
 Max. records in memory =        5    Max. records in file   = 11668003
 No. of bits per label  =        8    No. of bits per value  =       64


 #quartets = 1.180D+05 #integrals = 5.485D+06 #direct =  0.0% #cached =100.0%


File balance: exchanges=     0  moved=     0  time=   0.0


 Grid_pts file          = ./SiH4.xyz.gridpts.00
 Record size in doubles =  12289        No. of grid_pts per rec  =   3070
 Max. records in memory =      3        Max. recs in file   =  62224293


           Memory utilization after 1st SCF pass: 
           Heap Space remaining (MW):       12.74            12738268
          Stack Space remaining (MW):       13.11            13106388

   convergence    iter        energy       DeltaE   RMS-Dens  Diis-err    time
 ---------------- ----- ----------------- --------- --------- ---------  ------
 d= 0,ls=0.0,diis     1   -291.9375481631 -3.13D+02  1.16D-02  5.91D-01     1.2
 d= 0,ls=0.0,diis     2   -291.9241250345  1.34D-02  4.62D-03  1.30D-02     1.3
 d= 0,ls=0.0,diis     3   -291.9293910704 -5.27D-03  6.35D-04  1.90D-03     1.5
 d= 0,ls=0.0,diis     4   -291.9276028062  1.79D-03  2.13D-04  3.59D-04     1.6
 d= 0,ls=0.0,diis     5   -291.9274546049  1.48D-04  2.20D-04  1.74D-05     1.8
 d= 0,ls=0.0,diis     6   -291.9274545539  5.10D-08  1.22D-05  2.33D-08     2.0
 d= 0,ls=0.0,diis     7   -291.9274554197 -8.66D-07  1.74D-06  1.80D-09     2.1


         Total DFT energy =     -291.927455419703
      One electron energy =     -445.157023194222
           Coulomb energy =      154.243108108422
          Exchange energy =      -21.658600786790
       Correlation energy =       -0.650431568835
 Nuclear repulsion energy =       21.295492021721

 Numeric. integr. density =       18.000009864559

     Total iterative time =      1.4s



                  Occupations of the irreducible representations
                  ----------------------------------------------

                     irrep           alpha         beta
                     --------     --------     --------
                     a1                3.0          3.0
                     a2                0.0          0.0
                     e                 0.0          0.0
                     t1                0.0          0.0
                     t2                6.0          6.0


                       DFT Final Molecular Orbital Analysis
                       ------------------------------------

 Vector    1  Occ=2.000000D+00  E=-6.573132D+01  Symmetry=a1
              MO Center=  1.6D-19,  1.1D-18,  6.8D-19, r^2= 4.7D-03
   Bfn.  Coefficient  Atom+Function         Bfn.  Coefficient  Atom+Function  
  ----- ------------  ---------------      ----- ------------  ---------------
     2      0.645766  1 Si s                  1      0.417992  1 Si s          

 Vector    2  Occ=2.000000D+00  E=-5.187683D+00  Symmetry=a1
              MO Center= -1.6D-20,  8.5D-21,  5.1D-20, r^2= 1.1D-01
   Bfn.  Coefficient  Atom+Function         Bfn.  Coefficient  Atom+Function  
  ----- ------------  ---------------      ----- ------------  ---------------
     4      0.576135  1 Si s                  3      0.527626  1 Si s          
     2     -0.302118  1 Si s          

 Vector    3  Occ=2.000000D+00  E=-3.565510D+00  Symmetry=t2
              MO Center= -1.3D-06, -2.3D-05, -8.4D-06, r^2= 1.0D-01
   Bfn.  Coefficient  Atom+Function         Bfn.  Coefficient  Atom+Function  
  ----- ------------  ---------------      ----- ------------  ---------------
    10      0.680212  1 Si px                 7      0.395773  1 Si px         

 Vector    4  Occ=2.000000D+00  E=-3.565510D+00  Symmetry=t2
              MO Center=  4.3D-05,  1.8D-05, -5.9D-06, r^2= 1.0D-01
   Bfn.  Coefficient  Atom+Function         Bfn.  Coefficient  Atom+Function  
  ----- ------------  ---------------      ----- ------------  ---------------
    12      0.650838  1 Si pz                 9      0.378682  1 Si pz         
    11     -0.209560  1 Si py         

 Vector    5  Occ=2.000000D+00  E=-3.565510D+00  Symmetry=t2
              MO Center= -4.1D-05,  4.4D-06,  1.4D-05, r^2= 1.0D-01
   Bfn.  Coefficient  Atom+Function         Bfn.  Coefficient  Atom+Function  
  ----- ------------  ---------------      ----- ------------  ---------------
    11      0.655800  1 Si py                 8      0.381569  1 Si py         
    12      0.201603  1 Si pz         

 Vector    6  Occ=2.000000D+00  E=-5.566891D-01  Symmetry=a1
              MO Center=  6.9D-17,  6.0D-19,  8.4D-17, r^2= 1.8D+00
   Bfn.  Coefficient  Atom+Function         Bfn.  Coefficient  Atom+Function  
  ----- ------------  ---------------      ----- ------------  ---------------
     5      0.631263  1 Si s                  6      0.450153  1 Si s          
     4     -0.287659  1 Si s                  3     -0.198754  1 Si s          

 Vector    7  Occ=2.000000D+00  E=-3.693426D-01  Symmetry=t2
              MO Center= -2.1D-01, -1.6D-01, -4.9D-01, r^2= 2.2D+00
   Bfn.  Coefficient  Atom+Function         Bfn.  Coefficient  Atom+Function  
  ----- ------------  ---------------      ----- ------------  ---------------
    17      0.500693  1 Si py                16      0.371841  1 Si px         
   112     -0.260940  5 H  s                 93      0.178787  4 H  s          
    18      0.163014  1 Si pz         

 Vector    8  Occ=2.000000D+00  E=-3.693426D-01  Symmetry=t2
              MO Center= -2.0D-01,  5.1D-01,  2.0D-01, r^2= 2.2D+00
   Bfn.  Coefficient  Atom+Function         Bfn.  Coefficient  Atom+Function  
  ----- ------------  ---------------      ----- ------------  ---------------
    18     -0.446989  1 Si pz                16      0.430557  1 Si px         
    74     -0.265028  3 H  s                 93      0.177224  4 H  s          
    17     -0.174226  1 Si py         

 Vector    9  Occ=2.000000D+00  E=-3.693426D-01  Symmetry=t2
              MO Center=  4.2D-01, -3.5D-01,  2.9D-01, r^2= 2.1D+00
   Bfn.  Coefficient  Atom+Function         Bfn.  Coefficient  Atom+Function  
  ----- ------------  ---------------      ----- ------------  ---------------
    18      0.434926  1 Si pz                17     -0.366722  1 Si py         
    16      0.303129  1 Si px                55      0.278385  2 H  s          

 Vector   10  Occ=0.000000D+00  E=-5.680992D-02  Symmetry=t2
              MO Center= -2.7D-01,  1.8D-01, -1.4D-01, r^2= 4.1D+00
   Bfn.  Coefficient  Atom+Function         Bfn.  Coefficient  Atom+Function  
  ----- ------------  ---------------      ----- ------------  ---------------
    57      0.948550  2 H  s                 18     -0.626486  1 Si pz         
    25     -0.517156  1 Si pz                95     -0.508613  4 H  s          
    17      0.487827  1 Si py                24      0.402695  1 Si py         
    56      0.376239  2 H  s                 16     -0.336426  1 Si px         
    39     -0.330849  1 Si dxy              114     -0.310629  5 H  s          

 Vector   11  Occ=0.000000D+00  E=-5.680992D-02  Symmetry=t2
              MO Center=  5.2D-02,  5.8D-02,  3.2D-01, r^2= 4.1D+00
   Bfn.  Coefficient  Atom+Function         Bfn.  Coefficient  Atom+Function  
  ----- ------------  ---------------      ----- ------------  ---------------
   114      0.857950  5 H  s                 95     -0.723067  4 H  s          
    16      0.637153  1 Si px                17      0.571873  1 Si py         
    23      0.525961  1 Si px                24      0.472074  1 Si py         
   113      0.340303  5 H  s                 42      0.336483  1 Si dyz        
    40      0.302008  1 Si dxz               94     -0.286802  4 H  s          

 Vector   12  Occ=0.000000D+00  E=-5.680992D-02  Symmetry=t2
              MO Center=  2.2D-01, -2.4D-01, -1.8D-01, r^2= 4.1D+00
   Bfn.  Coefficient  Atom+Function         Bfn.  Coefficient  Atom+Function  
  ----- ------------  ---------------      ----- ------------  ---------------
    76      0.967678  3 H  s                 18     -0.583540  1 Si pz         
    25     -0.481704  1 Si pz                16      0.473810  1 Si px         
    17     -0.422644  1 Si py                95     -0.414995  4 H  s          
    23      0.391124  1 Si px                75      0.383825  3 H  s          
    24     -0.348887  1 Si py               114     -0.348087  5 H  s          

 Vector   13  Occ=0.000000D+00  E=-3.203652D-02  Symmetry=a1
              MO Center=  1.1D-15,  3.3D-16,  1.3D-15, r^2= 9.0D+00
   Bfn.  Coefficient  Atom+Function         Bfn.  Coefficient  Atom+Function  
  ----- ------------  ---------------      ----- ------------  ---------------
    22      3.036770  1 Si s                 57     -1.105472  2 H  s          
    76     -1.105472  3 H  s                 95     -1.105472  4 H  s          
   114     -1.105472  5 H  s                  5      0.475828  1 Si s          
     6      0.404002  1 Si s                  4     -0.205149  1 Si s          

 Vector   14  Occ=0.000000D+00  E= 3.112800D-02  Symmetry=t2
              MO Center= -1.4D-01,  4.5D-02,  3.4D-01, r^2= 1.4D+01
   Bfn.  Coefficient  Atom+Function         Bfn.  Coefficient  Atom+Function  
  ----- ------------  ---------------      ----- ------------  ---------------
    24     -1.026533  1 Si py                20      0.970084  1 Si py         
    76     -0.679842  3 H  s                 17     -0.630197  1 Si py         
    57      0.557018  2 H  s                114      0.371986  5 H  s          
    23      0.340175  1 Si px                45      0.324281  1 Si fxxy       
    52      0.324281  1 Si fyzz              19     -0.321469  1 Si px         

 Vector   15  Occ=0.000000D+00  E= 3.112800D-02  Symmetry=t2
              MO Center=  2.2D-01,  5.0D-01, -2.8D-01, r^2= 1.4D+01
   Bfn.  Coefficient  Atom+Function         Bfn.  Coefficient  Atom+Function  
  ----- ------------  ---------------      ----- ------------  ---------------
    23     -0.818350  1 Si px                95     -0.814125  4 H  s          
    19      0.773348  1 Si px                25      0.626785  1 Si pz         
    21     -0.592317  1 Si pz                16     -0.502391  1 Si px         
    76      0.493709  3 H  s                 18      0.384788  1 Si pz         
    24     -0.354054  1 Si py                20      0.334584  1 Si py         

 Vector   16  Occ=0.000000D+00  E= 3.112800D-02  Symmetry=t2
              MO Center= -8.0D-02, -5.4D-01, -5.8D-02, r^2= 1.4D+01
   Bfn.  Coefficient  Atom+Function         Bfn.  Coefficient  Atom+Function  
  ----- ------------  ---------------      ----- ------------  ---------------
    25     -0.881267  1 Si pz                21      0.832805  1 Si pz         
   114      0.728254  5 H  s                 57     -0.643434  2 H  s          
    23     -0.634424  1 Si px                19      0.599537  1 Si px         
    18     -0.541017  1 Si pz                16     -0.389478  1 Si px         
    46      0.278391  1 Si fxxz              51      0.278391  1 Si fyyz       

 Vector   17  Occ=0.000000D+00  E= 3.169849D-02  Symmetry=e
              MO Center= -1.6D-13,  1.8D-14,  5.1D-14, r^2= 3.9D+00
   Bfn.  Coefficient  Atom+Function         Bfn.  Coefficient  Atom+Function  
  ----- ------------  ---------------      ----- ------------  ---------------
    38      0.783167  1 Si dxx               41     -0.601290  1 Si dyy        
    43     -0.181877  1 Si dzz        

 Vector   18  Occ=0.000000D+00  E= 3.169849D-02  Symmetry=e
              MO Center=  7.7D-14,  2.7D-14, -3.6D-13, r^2= 3.9D+00
   Bfn.  Coefficient  Atom+Function         Bfn.  Coefficient  Atom+Function  
  ----- ------------  ---------------      ----- ------------  ---------------
    43      0.799316  1 Si dzz               41     -0.557169  1 Si dyy        
    38     -0.242148  1 Si dxx        

 Vector   19  Occ=0.000000D+00  E= 8.176132D-02  Symmetry=a1
              MO Center=  1.1D-13,  1.2D-13,  5.4D-14, r^2= 1.2D+01
   Bfn.  Coefficient  Atom+Function         Bfn.  Coefficient  Atom+Function  
  ----- ------------  ---------------      ----- ------------  ---------------
    22      7.522332  1 Si s                  6     -4.684503  1 Si s          
    57     -2.553778  2 H  s                 76     -2.553778  3 H  s          
    95     -2.553778  4 H  s                114     -2.553778  5 H  s          
    56      1.822324  2 H  s                 75      1.822324  3 H  s          
    94      1.822324  4 H  s                113      1.822324  5 H  s          

 Vector   20  Occ=0.000000D+00  E= 9.136390D-02  Symmetry=t2
              MO Center=  2.0D-02,  1.1D-01,  4.7D-03, r^2= 1.8D+01
   Bfn.  Coefficient  Atom+Function         Bfn.  Coefficient  Atom+Function  
  ----- ------------  ---------------      ----- ------------  ---------------
   114      5.088567  5 H  s                 25      4.951255  1 Si pz         
    57     -4.743030  2 H  s                 76     -3.171265  3 H  s          
    95      2.825728  4 H  s                 21     -2.463134  1 Si pz         
   113     -1.982813  5 H  s                 56      1.848171  2 H  s          
    75      1.235717  3 H  s                 23      1.199481  1 Si px         

 Vector   21  Occ=0.000000D+00  E= 9.136390D-02  Symmetry=t2
              MO Center= -6.1D-02, -7.7D-02,  2.2D-01, r^2= 1.8D+01
   Bfn.  Coefficient  Atom+Function         Bfn.  Coefficient  Atom+Function  
  ----- ------------  ---------------      ----- ------------  ---------------
    95      6.457750  4 H  s                114     -4.726217  5 H  s          
    23     -3.916372  1 Si px                24     -3.080420  1 Si py         
    94     -2.516330  4 H  s                 19      1.948304  1 Si px         
   113      1.841620  5 H  s                 20      1.532437  1 Si py         
    76     -1.533877  3 H  s                 25      1.083263  1 Si pz         

 Vector   22  Occ=0.000000D+00  E= 9.136390D-02  Symmetry=t2
              MO Center=  4.1D-02, -3.1D-02, -2.3D-01, r^2= 1.8D+01
   Bfn.  Coefficient  Atom+Function         Bfn.  Coefficient  Atom+Function  
  ----- ------------  ---------------      ----- ------------  ---------------
    76      6.116692  3 H  s                 57     -5.223814  2 H  s          
    24     -4.057671  1 Si py                23      3.037053  1 Si px         
    75     -2.383433  3 H  s                 56      2.035513  2 H  s          
    20      2.018597  1 Si py                19     -1.510863  1 Si px         
   114     -1.262139  5 H  s                 17      0.796308  1 Si py         

 Vector   23  Occ=0.000000D+00  E= 1.102367D-01  Symmetry=a1
              MO Center=  1.2D-14,  6.7D-14,  8.2D-14, r^2= 1.6D+01
   Bfn.  Coefficient  Atom+Function         Bfn.  Coefficient  Atom+Function  
  ----- ------------  ---------------      ----- ------------  ---------------
    22     26.311110  1 Si s                 57     -6.661061  2 H  s          
    76     -6.661061  3 H  s                 95     -6.661061  4 H  s          
   114     -6.661061  5 H  s                 38     -0.659904  1 Si dxx        
    41     -0.659904  1 Si dyy               43     -0.659904  1 Si dzz        
     5     -0.620943  1 Si s                 56     -0.370179  2 H  s          

 Vector   24  Occ=0.000000D+00  E= 2.048738D-01  Symmetry=t2
              MO Center=  2.1D-03, -4.6D-02,  2.7D-02, r^2= 1.2D+01
   Bfn.  Coefficient  Atom+Function         Bfn.  Coefficient  Atom+Function  
  ----- ------------  ---------------      ----- ------------  ---------------
    16      4.780680  1 Si px                19     -3.112361  1 Si px         
    23      1.601666  1 Si px                44     -1.484035  1 Si fxxx       
    47     -1.486695  1 Si fxyy              49     -1.486695  1 Si fxzz       
    13     -0.870264  1 Si px                57      0.462528  2 H  s          
    56     -0.450173  2 H  s                114     -0.424065  5 H  s          

 Vector   25  Occ=0.000000D+00  E= 2.048738D-01  Symmetry=t2
              MO Center= -3.5D-03, -1.6D-04, -2.7D-02, r^2= 1.2D+01
   Bfn.  Coefficient  Atom+Function         Bfn.  Coefficient  Atom+Function  
  ----- ------------  ---------------      ----- ------------  ---------------
    17      4.795561  1 Si py                20     -3.122049  1 Si py         
    24      1.606651  1 Si py                45     -1.491322  1 Si fxxy       
    50     -1.488654  1 Si fyyy              52     -1.491322  1 Si fyzz       
    14     -0.872973  1 Si py               114     -0.433674  5 H  s          
    95      0.428763  4 H  s                113      0.422090  5 H  s          

 Vector   26  Occ=0.000000D+00  E= 2.048738D-01  Symmetry=t2
              MO Center=  1.3D-03,  4.6D-02, -1.0D-04, r^2= 1.2D+01
   Bfn.  Coefficient  Atom+Function         Bfn.  Coefficient  Atom+Function  
  ----- ------------  ---------------      ----- ------------  ---------------
    18      4.785830  1 Si pz                21     -3.115714  1 Si pz         
    25      1.603391  1 Si pz                46     -1.488296  1 Si fxxz       
    51     -1.488296  1 Si fyyz              53     -1.485633  1 Si fzzz       
    15     -0.871202  1 Si pz                76      0.442875  3 H  s          
    95     -0.444761  4 H  s                 75     -0.431046  3 H  s          

 Vector   27  Occ=0.000000D+00  E= 2.559584D-01  Symmetry=t2
              MO Center= -1.5D-02,  2.3D-02,  1.3D-01, r^2= 7.6D+00
   Bfn.  Coefficient  Atom+Function         Bfn.  Coefficient  Atom+Function  
  ----- ------------  ---------------      ----- ------------  ---------------
    75      7.254565  3 H  s                 56     -6.331194  2 H  s          
    19      5.489292  1 Si px                42     -4.828216  1 Si dyz        
    20     -3.547058  1 Si py                40      3.119885  1 Si dxz        
    76     -2.821153  3 H  s                 16      2.636498  1 Si px         
    57      2.462073  2 H  s                 23     -2.419871  1 Si px         

 Vector   28  Occ=0.000000D+00  E= 2.559584D-01  Symmetry=t2
              MO Center= -7.4D-02, -5.1D-02, -1.2D-01, r^2= 7.6D+00
   Bfn.  Coefficient  Atom+Function         Bfn.  Coefficient  Atom+Function  
  ----- ------------  ---------------      ----- ------------  ---------------
   113      8.085325  5 H  s                 20      5.112705  1 Si py         
    94     -4.922293  4 H  s                 40     -4.496982  1 Si dxz        
    19      3.539102  1 Si px               114     -3.144219  5 H  s          
    42     -3.112888  1 Si dyz               75     -2.764438  3 H  s          
    17      2.455624  1 Si py                24     -2.253858  1 Si py         

 Vector   29  Occ=0.000000D+00  E= 2.559584D-01  Symmetry=t2
              MO Center=  8.9D-02,  2.8D-02, -9.5D-03, r^2= 7.6D+00
   Bfn.  Coefficient  Atom+Function         Bfn.  Coefficient  Atom+Function  
  ----- ------------  ---------------      ----- ------------  ---------------
    94      6.717876  4 H  s                 21      6.187714  1 Si pz         
    56     -5.727908  2 H  s                 39     -5.442527  1 Si dxy        
    75     -3.575051  3 H  s                 18      2.971949  1 Si pz         
    25     -2.727760  1 Si pz                95     -2.612446  4 H  s          
   113      2.585083  5 H  s                 57      2.227467  2 H  s          

 Vector   30  Occ=0.000000D+00  E= 2.904145D-01  Symmetry=a1
              MO Center= -2.8D-14,  1.1D-13, -1.0D-14, r^2= 9.7D+00
   Bfn.  Coefficient  Atom+Function         Bfn.  Coefficient  Atom+Function  
  ----- ------------  ---------------      ----- ------------  ---------------
    22     20.649711  1 Si s                  6      7.377298  1 Si s          
    57     -4.637303  2 H  s                 76     -4.637303  3 H  s          
    95     -4.637303  4 H  s                114     -4.637303  5 H  s          
    38     -2.658493  1 Si dxx               41     -2.658493  1 Si dyy        
    43     -2.658493  1 Si dzz                5     -1.694110  1 Si s          

 Vector   31  Occ=0.000000D+00  E= 2.965090D-01  Symmetry=t1
              MO Center=  2.3D-01,  1.3D-01,  3.2D-01, r^2= 4.7D+00
   Bfn.  Coefficient  Atom+Function         Bfn.  Coefficient  Atom+Function  
  ----- ------------  ---------------      ----- ------------  ---------------
    66      0.610823  2 H  pz                85     -0.610823  3 H  pz         
    64     -0.550386  2 H  px               102      0.550386  4 H  px         
    84      0.375083  3 H  py               103     -0.375083  4 H  py         
    83     -0.235740  3 H  px               121      0.235740  5 H  px         
   104      0.175303  4 H  pz               123     -0.175303  5 H  pz         

 Vector   32  Occ=0.000000D+00  E= 2.965090D-01  Symmetry=t1
              MO Center= -2.7D-01, -5.5D-02,  2.0D-02, r^2= 4.8D+00
   Bfn.  Coefficient  Atom+Function         Bfn.  Coefficient  Atom+Function  
  ----- ------------  ---------------      ----- ------------  ---------------
    83      0.607846  3 H  px               121     -0.607846  5 H  px         
    65     -0.479246  2 H  py               122      0.479246  5 H  py         
    84      0.414549  3 H  py               103     -0.414549  4 H  py         
    64     -0.285948  2 H  px               102      0.285948  4 H  px         
    66     -0.193298  2 H  pz                85      0.193298  3 H  pz         

 Vector   33  Occ=0.000000D+00  E= 2.965090D-01  Symmetry=t1
              MO Center=  3.8D-02, -7.5D-02, -3.4D-01, r^2= 4.7D+00
   Bfn.  Coefficient  Atom+Function         Bfn.  Coefficient  Atom+Function  
  ----- ------------  ---------------      ----- ------------  ---------------
   104      0.637234  4 H  pz               123     -0.637234  5 H  pz         
    65     -0.469049  2 H  py               122      0.469049  5 H  py         
    84     -0.375231  3 H  py               103      0.375231  4 H  py         
    64     -0.262003  2 H  px               102      0.262003  4 H  px         
    66     -0.207046  2 H  pz                85      0.207046  3 H  pz         

 Vector   34  Occ=0.000000D+00  E= 3.769639D-01  Symmetry=a1
              MO Center= -2.5D-12, -6.7D-13, -2.2D-13, r^2= 1.1D+01
   Bfn.  Coefficient  Atom+Function         Bfn.  Coefficient  Atom+Function  
  ----- ------------  ---------------      ----- ------------  ---------------
    22    -12.829156  1 Si s                  6     12.133977  1 Si s          
    56     -5.138781  2 H  s                 75     -5.138781  3 H  s          
    94     -5.138781  4 H  s                113     -5.138781  5 H  s          
    57      3.696119  2 H  s                 76      3.696119  3 H  s          
    95      3.696119  4 H  s                114      3.696119  5 H  s          

 Vector   35  Occ=0.000000D+00  E= 3.983146D-01  Symmetry=t2
              MO Center= -1.1D-01,  1.4D-01, -1.3D-01, r^2= 8.0D+00
   Bfn.  Coefficient  Atom+Function         Bfn.  Coefficient  Atom+Function  
  ----- ------------  ---------------      ----- ------------  ---------------
    56      4.801592  2 H  s                 57     -4.320843  2 H  s          
    19     -2.843688  1 Si px                21     -2.338651  1 Si pz         
    23      2.210790  1 Si px                20      2.180289  1 Si py         
   113     -1.957809  5 H  s                 25      1.818155  1 Si pz         
   114      1.761788  5 H  s                 75     -1.751255  3 H  s          

 Vector   36  Occ=0.000000D+00  E= 3.983146D-01  Symmetry=t2
              MO Center= -1.3D-02, -1.1D-02,  1.8D-01, r^2= 8.1D+00
   Bfn.  Coefficient  Atom+Function         Bfn.  Coefficient  Atom+Function  
  ----- ------------  ---------------      ----- ------------  ---------------
    94      4.048410  4 H  s                113     -3.795640  5 H  s          
    95     -3.643072  4 H  s                114      3.415610  5 H  s          
    20     -3.313810  1 Si py                19     -2.700114  1 Si px         
    24      2.576281  1 Si py                23      2.099170  1 Si px         
    93     -1.432268  4 H  s                112      1.342842  5 H  s          

 Vector   37  Occ=0.000000D+00  E= 3.983146D-01  Symmetry=t2
              MO Center=  1.2D-01, -1.3D-01, -5.7D-02, r^2= 8.1D+00
   Bfn.  Coefficient  Atom+Function         Bfn.  Coefficient  Atom+Function  
  ----- ------------  ---------------      ----- ------------  ---------------
    75      4.496635  3 H  s                 76     -4.046420  3 H  s          
    21     -3.578082  1 Si pz                25      2.781735  1 Si pz         
    94     -2.403825  4 H  s                113     -2.263119  5 H  s          
    95      2.163147  4 H  s                114      2.036530  5 H  s          
    19      1.712406  1 Si px                20     -1.604529  1 Si py         

 Vector   38  Occ=0.000000D+00  E= 4.909720D-01  Symmetry=t2
              MO Center=  1.2D-03, -3.0D-04,  7.4D-02, r^2= 5.9D+00
   Bfn.  Coefficient  Atom+Function         Bfn.  Coefficient  Atom+Function  
  ----- ------------  ---------------      ----- ------------  ---------------
    20      1.380066  1 Si py                56     -1.300945  2 H  s          
    75      1.292369  3 H  s                 17     -1.163443  1 Si py         
   103     -0.938270  4 H  py               122     -0.938516  5 H  py         
    65     -0.923330  2 H  py                84     -0.923576  3 H  py         
    94      0.780404  4 H  s                113     -0.771828  5 H  s          

 Vector   39  Occ=0.000000D+00  E= 4.909720D-01  Symmetry=t2
              MO Center= -2.1D-02, -8.3D-02, -6.8D-02, r^2= 5.9D+00
   Bfn.  Coefficient  Atom+Function         Bfn.  Coefficient  Atom+Function  
  ----- ------------  ---------------      ----- ------------  ---------------
   113      1.550803  5 H  s                 19     -1.320940  1 Si px         
    16      1.113598  1 Si px                56     -1.050012  2 H  s          
    94     -0.933957  4 H  s                 83      0.907077  3 H  px         
    64      0.889374  2 H  px               102      0.892705  4 H  px         
   112     -0.871544  5 H  s                121      0.875001  5 H  px         

 Vector   40  Occ=0.000000D+00  E= 4.909720D-01  Symmetry=t2
              MO Center=  2.0D-02,  8.4D-02, -5.8D-03, r^2= 5.9D+00
   Bfn.  Coefficient  Atom+Function         Bfn.  Coefficient  Atom+Function  
  ----- ------------  ---------------      ----- ------------  ---------------
    94     -1.394368  4 H  s                 21      1.362360  1 Si pz         
    75      1.252086  3 H  s                 18     -1.148517  1 Si pz         
    66     -0.925551  2 H  pz               123     -0.929635  5 H  pz         
    85     -0.912407  3 H  pz               104     -0.908324  4 H  pz         
    56      0.794094  2 H  s                 93      0.783628  4 H  s          

 Vector   41  Occ=0.000000D+00  E= 5.560633D-01  Symmetry=e
              MO Center=  9.7D-16,  2.4D-16,  1.3D-14, r^2= 5.5D+00
   Bfn.  Coefficient  Atom+Function         Bfn.  Coefficient  Atom+Function  
  ----- ------------  ---------------      ----- ------------  ---------------
    43      3.112696  1 Si dzz               41     -2.274855  1 Si dyy        
    66     -1.146784  2 H  pz                85     -1.146784  3 H  pz         
   104      1.146784  4 H  pz               123      1.146784  5 H  pz         
    38     -0.837841  1 Si dxx               65     -0.838106  2 H  py         
    84      0.838106  3 H  py               103      0.838106  4 H  py         


 center of mass
 --------------
 x =   0.00000000 y =   0.00000000 z =   0.00000000

 moments of inertia (a.u.)
 ------------------
          21.103389611361           0.000000000000           0.000000000000
           0.000000000000          21.103389611361           0.000000000000
           0.000000000000           0.000000000000          21.103389611361

     Multipole analysis of the density
     ---------------------------------

     L   x y z        total         alpha         beta         nuclear
     -   - - -        -----         -----         ----         -------
     0   0 0 0     -0.000000     -9.000000     -9.000000     18.000000

     1   1 0 0     -0.000000     -0.000000     -0.000000      0.000000
     1   0 1 0     -0.000000     -0.000000     -0.000000      0.000000
     1   0 0 1      0.000000      0.000000      0.000000      0.000000

     2   2 0 0    -12.820503    -11.645136    -11.645136     10.469769
     2   1 1 0      0.000000      0.000000      0.000000      0.000000
     2   1 0 1     -0.000000     -0.000000     -0.000000      0.000000
     2   0 2 0    -12.820503    -11.645136    -11.645136     10.469769
     2   0 1 1      0.000000      0.000000      0.000000      0.000000
     2   0 0 2    -12.820503    -11.645136    -11.645136     10.469769


------------------------------------------------------------
EAF file 0: "./SiH4.xyz.aoints.00" size=2097152 bytes
------------------------------------------------------------
               write      read    awrite     aread      wait
               -----      ----    ------     -----      ----
     calls:        4         6         0        18        18
   data(b): 2.10e+06  3.15e+06  0.00e+00  9.44e+06
   time(s): 0.00e+00  0.00e+00  0.00e+00  0.00e+00  0.00e+00
rate(mb/s): 0.00e+00  0.00e+00
------------------------------------------------------------


 Parallel integral file used     135 records with       0 large values


 Task  times  cpu:        1.7s     wall:        2.3s


                                NWChem Input Module
                                -------------------


 Summary of allocated global arrays
-----------------------------------
  No active global arrays



                         GA Statistics for process    0
                         ------------------------------

       create   destroy   get      put      acc     scatter   gather  read&inc
calls:  207      207     2314     1500      944        0        0      136     
number of processes/call 2.40e+00 1.54e+00 2.51e+00 0.00e+00 0.00e+00
bytes total:             3.66e+07 5.61e+06 2.01e+07 0.00e+00 0.00e+00 1.09e+03
bytes remote:            3.00e+07 2.65e+06 1.73e+07 0.00e+00 0.00e+00 0.00e+00
Max memory consumed for GA by this process: 860472 bytes

MA_summarize_allocated_blocks: starting scan ...
MA_summarize_allocated_blocks: scan completed: 0 heap blocks, 0 stack blocks
MA usage statistics:

	allocation statistics:
					      heap	     stack
					      ----	     -----
	current number of blocks	         0	         0
	maximum number of blocks	        24	        55
	current total bytes		         0	         0
	maximum total bytes		   2951456	  24114280
	maximum total K-bytes		      2952	     24115
	maximum total M-bytes		         3	        25


                                     CITATION
                                     --------
                Please cite the following reference when publishing
                           results obtained with NWChem:

                 M. Valiev, E.J. Bylaska, N. Govind, K. Kowalski,
              T.P. Straatsma, H.J.J. van Dam, D. Wang, J. Nieplocha,
                        E. Apra, T.L. Windus, W.A. de Jong
                 "NWChem: a comprehensive and scalable open-source
                  solution for large scale molecular simulations"
                      Comput. Phys. Commun. 181, 1477 (2010)
                           doi:10.1016/j.cpc.2010.04.018

                                      AUTHORS
                                      -------
          E. Apra, E. J. Bylaska, W. A. de Jong, N. Govind, K. Kowalski,
       T. P. Straatsma, M. Valiev, H. J. J. van Dam, D. Wang, T. L. Windus,
        J. Hammond, J. Autschbach, K. Bhaskaran-Nair, J. Brabec, K. Lopata,
       S. A. Fischer, S. Krishnamoorthy, W. Ma, M. Klemm, O. Villa, Y. Chen,
    V. Anisimov, F. Aquino, S. Hirata, M. T. Hackler, T. Risthaus, M. Malagoli,
       A. Marenich, A. Otero-de-la-Roza, J. Mullin, P. Nichols, R. Peverati,
     J. Pittner, Y. Zhao, P.-D. Fan, A. Fonari, M. Williamson, R. J. Harrison,
       J. R. Rehr, M. Dupuis, D. Silverstein, D. M. A. Smith, J. Nieplocha,
        V. Tipparaju, M. Krishnan, B. E. Van Kuiken, A. Vazquez-Mayagoitia,
        L. Jensen, M. Swart, Q. Wu, T. Van Voorhis, A. A. Auer, M. Nooijen,
      L. D. Crosby, E. Brown, G. Cisneros, G. I. Fann, H. Fruchtl, J. Garza,
        K. Hirao, R. A. Kendall, J. A. Nichols, K. Tsemekhman, K. Wolinski,
     J. Anchell, D. E. Bernholdt, P. Borowski, T. Clark, D. Clerc, H. Dachsel,
   M. J. O. Deegan, K. Dyall, D. Elwood, E. Glendening, M. Gutowski, A. C. Hess,
         J. Jaffe, B. G. Johnson, J. Ju, R. Kobayashi, R. Kutteh, Z. Lin,
   R. Littlefield, X. Long, B. Meng, T. Nakajima, S. Niu, L. Pollack, M. Rosing,
   K. Glaesemann, G. Sandrone, M. Stave, H. Taylor, G. Thomas, J. H. van Lenthe,
                               A. T. Wong, Z. Zhang.

 Total times  cpu:        1.7s     wall:        2.7s
