 argument  1 = /storage/home/rabeet/work/nwc/pa8/nwtpss/C2H2+.xyz.nw
  NWChem w/ OpenMP: maximum threads =  1
                                         
                                         
 
 
              Northwest Computational Chemistry Package (NWChem) 6.8
              ------------------------------------------------------
 
 
                    Environmental Molecular Sciences Laboratory
                       Pacific Northwest National Laboratory
                                Richland, WA 99352
 
                              Copyright (c) 1994-2018
                       Pacific Northwest National Laboratory
                            Battelle Memorial Institute
 
             NWChem is an open-source computational chemistry package
                        distributed under the terms of the
                      Educational Community License (ECL) 2.0
             A copy of the license is included with this distribution
                              in the LICENSE.TXT file
 
                                  ACKNOWLEDGMENT
                                  --------------

            This software and its documentation were developed at the
            EMSL at Pacific Northwest National Laboratory, a multiprogram
            national laboratory, operated for the U.S. Department of Energy
            by Battelle under Contract Number DE-AC05-76RL01830. Support
            for this work was provided by the Department of Energy Office
            of Biological and Environmental Research, Office of Basic
            Energy Sciences, and the Office of Advanced Scientific Computing.


           Job information
           ---------------

    hostname        = r8n4.niserhpc.org
    program         = /home/rabeet/nwchem-6.8/bin/LINUX64/nwchem
    date            = Sun Oct 27 10:45:14 2019

    compiled        = Fri_Jun_28_18:24:12_2019
    source          = /home/rabeet/nwchem-6.8
    nwchem branch   = Development
    nwchem revision = N/A
    ga revision     = 5.6.5
    use scalapack   = T
    input           = /storage/home/rabeet/work/nwc/pa8/nwtpss/C2H2+.xyz.nw
    prefix          = C2H2+.xyz.
    data base       = ./C2H2+.xyz.db
    status          = startup
    nproc           =       16
    time left       =     -1s



           Memory information
           ------------------

    heap     =   13107194 doubles =    100.0 Mbytes
    stack    =   13107199 doubles =    100.0 Mbytes
    global   =   26214400 doubles =    200.0 Mbytes (distinct from heap & stack)
    total    =   52428793 doubles =    400.0 Mbytes
    verify   = yes
    hardfail = no 


           Directory information
           ---------------------
 
  0 permanent = .
  0 scratch   = .
 
 
 
 
                                NWChem Input Module
                                -------------------
 
 

 Scaling coordinates for geometry "geometry" by  1.889725989
 (inverse scale =  0.529177249)

 C2V symmetry detected

          ------
          auto-z
          ------
  no constraints, skipping   0.000000000000000E+000
  no constraints, skipping   0.000000000000000E+000
 
 
                             Geometry "geometry" -> ""
                             -------------------------
 
 Output coordinates in angstroms (scale by  1.889725989 to convert to a.u.)
 
  No.       Tag          Charge          X              Y              Z
 ---- ---------------- ---------- -------------- -------------- --------------
    1 C                    6.0000    -0.61597000     0.00000000    -0.07514333
    2 H                    1.0000     0.00000000     0.00000000     1.04194667
    3 C                    6.0000     0.61597000     0.00000000    -0.07514333
    4 H                    1.0000    -1.69720000     0.00000000    -0.07011333
    5 H                    1.0000     1.69720000     0.00000000    -0.07011333
 
      Atomic Mass 
      ----------- 
 
      C                 12.000000
      H                  1.007825
 

 Effective nuclear repulsion energy (a.u.)      29.7373229324

            Nuclear Dipole moment (a.u.) 
            ----------------------------
        X                 Y               Z
 ---------------- ---------------- ----------------
     0.0000000000     0.0000000000    -0.0000000000
 
      Symmetry information
      --------------------
 
 Group name             C2v       
 Group number             16
 Group order               4
 No. of unique centers     3
 
      Symmetry unique atoms
 
     1    2    4
 


                                Z-matrix (autoz)
                                -------- 

 Units are Angstrom for bonds and degrees for angles
 
      Type          Name      I     J     K     L     M      Value
      ----------- --------  ----- ----- ----- ----- ----- ----------
    1 Stretch                  1     2                       1.27566
    2 Stretch                  1     3                       1.23194
    3 Stretch                  1     4                       1.08124
    4 Stretch                  2     3                       1.27566
    5 Stretch                  3     5                       1.08124
    6 Bend                     1     2     3                57.74520
    7 Bend                     1     3     2                61.12740
    8 Bend                     2     1     3                61.12740
    9 Bend                     2     1     4               118.60606
   10 Bend                     2     3     5               118.60606
   11 Torsion                  1     2     3     5         180.00000
   12 Torsion                  3     2     1     4         180.00000
 
 
            XYZ format geometry
            -------------------
     5
 geometry
 C                    -0.61597000     0.00000000    -0.07514333
 H                     0.00000000     0.00000000     1.04194667
 C                     0.61597000     0.00000000    -0.07514333
 H                    -1.69720000     0.00000000    -0.07011333
 H                     1.69720000     0.00000000    -0.07011333
 
 ==============================================================================
                                internuclear distances
 ------------------------------------------------------------------------------
       center one      |      center two      | atomic units |  angstroms
 ------------------------------------------------------------------------------
    3 C                |   1 C                |     2.32803  |     1.23194
    4 H                |   1 C                |     2.04325  |     1.08124
    5 H                |   3 C                |     2.04325  |     1.08124
 ------------------------------------------------------------------------------
                         number of included internuclear distances:          3
 ==============================================================================



 ==============================================================================
                                 internuclear angles
 ------------------------------------------------------------------------------
        center 1       |       center 2       |       center 3       |  degrees
 ------------------------------------------------------------------------------
    3 C                |   1 C                |   4 H                |   179.73
    1 C                |   3 C                |   5 H                |   179.73
 ------------------------------------------------------------------------------
                            number of included internuclear angles:          2
 ==============================================================================





 Summary of "ao basis" -> "" (cartesian)
 ------------------------------------------------------------------------------
       Tag                 Description            Shells   Functions and Types
 ---------------- ------------------------------  ------  ---------------------
 *                     6-311++G(3df,3pd)              on all atoms 


 
                                 NWChem DFT Module
                                 -----------------
 
 
                      Basis "ao basis" -> "ao basis" (cartesian)
                      -----
  C (Carbon)
  ----------
            Exponent  Coefficients 
       -------------- ---------------------------------------------------------
  1 S  4.56324000E+03  0.001967
  1 S  6.82024000E+02  0.015231
  1 S  1.54973000E+02  0.076127
  1 S  4.44553000E+01  0.260801
  1 S  1.30290000E+01  0.616462
  1 S  1.82773000E+00  0.221006
 
  2 S  2.09642000E+01  0.114660
  2 S  4.80331000E+00  0.919999
  2 S  1.45933000E+00 -0.003031
 
  3 P  2.09642000E+01  0.040249
  3 P  4.80331000E+00  0.237594
  3 P  1.45933000E+00  0.815854
 
  4 S  4.83456000E-01  1.000000
 
  5 P  4.83456000E-01  1.000000
 
  6 S  1.45585000E-01  1.000000
 
  7 P  1.45585000E-01  1.000000
 
  8 S  4.38000000E-02  1.000000
 
  9 P  4.38000000E-02  1.000000
 
 10 D  2.50400000E+00  1.000000
 
 11 D  6.26000000E-01  1.000000
 
 12 D  1.56500000E-01  1.000000
 
 13 F  8.00000000E-01  1.000000
 
  H (Hydrogen)
  ------------
            Exponent  Coefficients 
       -------------- ---------------------------------------------------------
  1 S  3.38650000E+01  0.025494
  1 S  5.09479000E+00  0.190373
  1 S  1.15879000E+00  0.852161
 
  2 S  3.25840000E-01  1.000000
 
  3 S  1.02741000E-01  1.000000
 
  4 S  3.60000000E-02  1.000000
 
  5 P  3.00000000E+00  1.000000
 
  6 P  7.50000000E-01  1.000000
 
  7 P  1.87500000E-01  1.000000
 
  8 D  1.00000000E+00  1.000000
 


 Summary of "ao basis" -> "ao basis" (cartesian)
 ------------------------------------------------------------------------------
       Tag                 Description            Shells   Functions and Types
 ---------------- ------------------------------  ------  ---------------------
 C                     6-311++G(3df,3pd)            13       45   5s4p3d1f
 H                     6-311++G(3df,3pd)             8       19   4s3p1d




 Summary of "ao basis" -> "ao basis" (cartesian)
 ------------------------------------------------------------------------------
       Tag                 Description            Shells   Functions and Types
 ---------------- ------------------------------  ------  ---------------------
 C                     6-311++G(3df,3pd)            13       45   5s4p3d1f
 H                     6-311++G(3df,3pd)             8       19   4s3p1d


      Symmetry analysis of basis
      --------------------------
 
        a1         55
        a2         20
        b1         49
        b2         23
 
  Caching 1-el integrals 
 
            General Information
            -------------------
          SCF calculation type: DFT
          Wavefunction type:  closed shell.
          No. of atoms     :     5
          No. of electrons :    14
           Alpha electrons :     7
            Beta electrons :     7
          Charge           :     1
          Spin multiplicity:     1
          Use of symmetry is: on ; symmetry adaption is: on 
          Maximum number of iterations: ***
          AO basis - number of functions:   147
                     number of shells:    50
          Convergence on energy requested:  1.00D-06
          Convergence on density requested:  1.00D-05
          Convergence on gradient requested:  5.00D-04
 
              XC Information
              --------------
                  TPSS metaGGA Exchange Functional  1.000          
             TPSS03 metaGGA Correlation Functional  1.000          
 
             Grid Information
             ----------------
          Grid used for XC integration:  medium    
          Radial quadrature: Mura-Knowles        
          Angular quadrature: Lebedev. 
          Tag              B.-S. Rad. Rad. Pts. Rad. Cut. Ang. Pts.
          ---              ---------- --------- --------- ---------
          C                   0.70       49          12.0       434
          H                   0.35       45          13.0       434
          Grid pruning is: on 
          Number of quadrature shells:   139
          Spatial weights used:  Erf1
 
          Convergence Information
          -----------------------
          Convergence aids based upon iterative change in 
          total energy or number of iterations. 
          Levelshifting, if invoked, occurs when the 
          HOMO/LUMO gap drops below (HL_TOL):  1.00D-02
          DIIS, if invoked, will attempt to extrapolate 
          using up to (NFOCK): 10 stored Fock matrices.

                    Damping( 0%)  Levelshifting(0.5)       DIIS
                  --------------- ------------------- ---------------
          dE  on:    start            ASAP                start   
          dE off:    2 iters        *** iters           *** iters 

 
      Screening Tolerance Information
      -------------------------------
          Density screening/tol_rho:  1.00D-10
          AO Gaussian exp screening on grid/accAOfunc:  14
          CD Gaussian exp screening on grid/accCDfunc:  20
          XC Gaussian exp screening on grid/accXCfunc:  20
          Schwarz screening/accCoul:  1.00D-08

 
 WARNING : Found     2 linear dependencies 
 S eigenvalue threshold:     1.00000E-05
 Smallest S eigenvalue :     3.51791E-07
 Largest  S eigenvalue :     6.87712E-06
 

 !! The overlap matrix has   2 vectors deemed linearly dependent with
    eigenvalues:
 3.52D-07 6.88D-06
 
 
      Superposition of Atomic Density Guess
      -------------------------------------
 
 Sum of atomic energies:         -76.83769024

 Renormalizing density from      15.00 to     14
 
      Non-variational initial energy
      ------------------------------

 Total energy =     -74.054933
 1-e energy   =    -149.578791
 2-e energy   =      45.786536
 HOMO         =      -0.820772
 LUMO         =      -0.412035
 
 
      Symmetry analysis of molecular orbitals - initial
      -------------------------------------------------
 
  Numbering of irreducible representations: 
 
     1 a1          2 a2          3 b1          4 b2      
 
  Orbital symmetries:
 
     1 a1          2 b1          3 a1          4 b1          5 a1      
     6 a1          7 b2          8 b1          9 a2         10 a1      
    11 b1         12 a1         13 a1         14 b2         15 b1      
    16 a1         17 a1      
 
   Time after variat. SCF:      1.2
   Time prior to 1st pass:      1.2

 Integral file          = ./C2H2+.xyz.aoints.00
 Record size in doubles =    65536    No. of integs per rec  =    43688
 Max. records in memory =       39    Max. records in file   =  8902895
 No. of bits per label  =        8    No. of bits per value  =       64


 #quartets = 4.381D+05 #integrals = 1.503D+07 #direct =  0.0% #cached =100.0%


File balance: exchanges=    15  moved=    29  time=   0.0


 Grid_pts file          = ./C2H2+.xyz.gridpts.00
 Record size in doubles =  12289        No. of grid_pts per rec  =   3070
 Max. records in memory =      3        Max. recs in file   =  47468483

 Grid integrated density:      14.000534026212
 Requested integration accuracy:   0.10E-05

           Memory utilization after 1st SCF pass: 
           Heap Space remaining (MW):       10.51            10510298
          Stack Space remaining (MW):       13.11            13106316

   convergence    iter        energy       DeltaE   RMS-Dens  Diis-err    time
 ---------------- ----- ----------------- --------- --------- ---------  ------
 d= 0,ls=0.0,diis     1    -77.5506762416 -1.07D+02  5.09D-03  8.24D-01     3.5
 d= 0,ls=0.0,diis     2    -77.5613302847 -1.07D-02  2.47D-03  5.15D-01     3.7
 d= 0,ls=0.0,diis     3    -77.6266238502 -6.53D-02  3.81D-04  1.49D-02     3.9
 d= 0,ls=0.0,diis     4    -77.6286315166 -2.01D-03  6.22D-05  1.82D-04     4.0
 d= 0,ls=0.0,diis     5    -77.6286546643 -2.31D-05  1.51D-05  1.64D-05     4.2
  Resetting Diis
 d= 0,ls=0.0,diis     6    -77.6286569803 -2.32D-06  2.15D-06  4.23D-07     4.4
 d= 0,ls=0.0,diis     7    -77.6286570331 -5.28D-08  2.20D-07  1.63D-09     4.6


         Total DFT energy =      -77.628657033116
      One electron energy =     -157.377182305386
           Coulomb energy =       61.606679501314
          Exchange energy =      -11.158936135083
       Correlation energy =       -0.436541026320
 Nuclear repulsion energy =       29.737322932359

 Numeric. integr. density =       14.000000294110

     Total iterative time =      3.4s


 
                  Occupations of the irreducible representations
                  ----------------------------------------------
 
                     irrep           alpha         beta
                     --------     --------     --------
                     a1                4.0          4.0
                     a2                0.0          0.0
                     b1                2.0          2.0
                     b2                1.0          1.0
 
 
                       DFT Final Molecular Orbital Analysis
                       ------------------------------------
 
 Vector    1  Occ=2.000000D+00  E=-1.035589D+01  Symmetry=a1
              MO Center=  6.8D-17, -4.3D-37, -7.5D-02, r^2= 4.1D-01
   Bfn.  Coefficient  Atom+Function         Bfn.  Coefficient  Atom+Function  
  ----- ------------  ---------------      ----- ------------  ---------------
     1      0.398565  1 C  s                 65      0.398565  3 C  s          
     2      0.328520  1 C  s                 66      0.328520  3 C  s          
 
 Vector    2  Occ=2.000000D+00  E=-1.035423D+01  Symmetry=b1
              MO Center=  1.4D-16, -6.7D-18, -7.5D-02, r^2= 4.1D-01
   Bfn.  Coefficient  Atom+Function         Bfn.  Coefficient  Atom+Function  
  ----- ------------  ---------------      ----- ------------  ---------------
     1      0.398724  1 C  s                 65     -0.398724  3 C  s          
     2      0.328715  1 C  s                 66     -0.328715  3 C  s          
 
 Vector    3  Occ=2.000000D+00  E=-1.095123D+00  Symmetry=a1
              MO Center=  1.2D-16, -1.0D-16,  1.5D-01, r^2= 7.3D-01
   Bfn.  Coefficient  Atom+Function         Bfn.  Coefficient  Atom+Function  
  ----- ------------  ---------------      ----- ------------  ---------------
     6      0.349817  1 C  s                 70      0.349817  3 C  s          
    10      0.182878  1 C  s                 74      0.182878  3 C  s          
     2     -0.143252  1 C  s                 66     -0.143252  3 C  s          
    46      0.101793  2 H  s                 47      0.095228  2 H  s          
     3      0.088009  1 C  px                67     -0.088009  3 C  px         
 
 Vector    4  Occ=2.000000D+00  E=-8.325584D-01  Symmetry=b1
              MO Center=  3.1D-14,  4.5D-16, -4.4D-02, r^2= 2.1D+00
   Bfn.  Coefficient  Atom+Function         Bfn.  Coefficient  Atom+Function  
  ----- ------------  ---------------      ----- ------------  ---------------
     6      0.294822  1 C  s                 70     -0.294822  3 C  s          
   111      0.157699  4 H  s                130     -0.157699  5 H  s          
   110      0.130053  4 H  s                129     -0.130053  5 H  s          
    11     -0.128140  1 C  px                75     -0.128140  3 C  px         
     7     -0.118950  1 C  px                71     -0.118950  3 C  px         
 
 Vector    5  Occ=2.000000D+00  E=-7.686238D-01  Symmetry=a1
              MO Center= -2.9D-14,  2.7D-16, -8.1D-02, r^2= 2.1D+00
   Bfn.  Coefficient  Atom+Function         Bfn.  Coefficient  Atom+Function  
  ----- ------------  ---------------      ----- ------------  ---------------
     7      0.203588  1 C  px                71     -0.203588  3 C  px         
   111     -0.196084  4 H  s                130     -0.196084  5 H  s          
     3      0.176967  1 C  px                67     -0.176967  3 C  px         
   110     -0.133647  4 H  s                129     -0.133647  5 H  s          
    10     -0.128227  1 C  s                 74     -0.128227  3 C  s          
 
 Vector    6  Occ=2.000000D+00  E=-6.990347D-01  Symmetry=a1
              MO Center= -2.5D-16, -9.5D-31,  6.9D-02, r^2= 1.2D+00
   Bfn.  Coefficient  Atom+Function         Bfn.  Coefficient  Atom+Function  
  ----- ------------  ---------------      ----- ------------  ---------------
    47      0.236036  2 H  s                  9      0.212235  1 C  pz         
    73      0.212235  3 C  pz                 5      0.163755  1 C  pz         
    69      0.163755  3 C  pz                46      0.149206  2 H  s          
    13      0.115893  1 C  pz                77      0.115893  3 C  pz         
     6     -0.108089  1 C  s                 70     -0.108089  3 C  s          
 
 Vector    7  Occ=2.000000D+00  E=-5.887037D-01  Symmetry=b2
              MO Center=  2.0D-16, -1.2D-16, -4.0D-02, r^2= 1.2D+00
   Bfn.  Coefficient  Atom+Function         Bfn.  Coefficient  Atom+Function  
  ----- ------------  ---------------      ----- ------------  ---------------
     8      0.289177  1 C  py                72      0.289177  3 C  py         
     4      0.204878  1 C  py                68      0.204878  3 C  py         
    12      0.177664  1 C  py                76      0.177664  3 C  py         
    31      0.042938  1 C  dxy               95     -0.042938  3 C  dxy        
    25      0.040496  1 C  dxy               89     -0.040496  3 C  dxy        
 
 Vector    8  Occ=0.000000D+00  E=-3.366694D-01  Symmetry=b1
              MO Center= -3.6D-15,  9.7D-16,  4.0D-02, r^2= 1.9D+00
   Bfn.  Coefficient  Atom+Function         Bfn.  Coefficient  Atom+Function  
  ----- ------------  ---------------      ----- ------------  ---------------
    13      0.381150  1 C  pz                77     -0.381150  3 C  pz         
     9      0.308524  1 C  pz                73     -0.308524  3 C  pz         
     5      0.214349  1 C  pz                69     -0.214349  3 C  pz         
    17      0.105046  1 C  pz                81     -0.105046  3 C  pz         
   112     -0.082234  4 H  s                131      0.082234  5 H  s          
 
 Vector    9  Occ=0.000000D+00  E=-3.067900D-01  Symmetry=a2
              MO Center= -5.5D-16, -7.1D-15, -5.5D-02, r^2= 1.9D+00
   Bfn.  Coefficient  Atom+Function         Bfn.  Coefficient  Atom+Function  
  ----- ------------  ---------------      ----- ------------  ---------------
    12      0.413514  1 C  py                76     -0.413514  3 C  py         
     8      0.316513  1 C  py                72     -0.316513  3 C  py         
     4      0.220259  1 C  py                68     -0.220259  3 C  py         
    16      0.135329  1 C  py                80     -0.135329  3 C  py         
    31     -0.072471  1 C  dxy               95     -0.072471  3 C  dxy        
 
 Vector   10  Occ=0.000000D+00  E=-2.446699D-01  Symmetry=a1
              MO Center=  1.6D-14,  1.6D-15,  7.3D-01, r^2= 2.9D+00
   Bfn.  Coefficient  Atom+Function         Bfn.  Coefficient  Atom+Function  
  ----- ------------  ---------------      ----- ------------  ---------------
    48      0.835600  2 H  s                 49      0.513349  2 H  s          
    47      0.419513  2 H  s                 13     -0.235608  1 C  pz         
    77     -0.235608  3 C  pz                 9     -0.173553  1 C  pz         
    73     -0.173553  3 C  pz                10     -0.167563  1 C  s          
    74     -0.167563  3 C  s                112     -0.167569  4 H  s          
 
 Vector   11  Occ=0.000000D+00  E=-1.946014D-01  Symmetry=b1
              MO Center= -1.1D-14, -2.5D-16, -1.4D-02, r^2= 5.8D+00
   Bfn.  Coefficient  Atom+Function         Bfn.  Coefficient  Atom+Function  
  ----- ------------  ---------------      ----- ------------  ---------------
   112      0.710176  4 H  s                131     -0.710176  5 H  s          
   113      0.628097  4 H  s                132     -0.628097  5 H  s          
    11      0.418362  1 C  px                75      0.418362  3 C  px         
     6     -0.334844  1 C  s                 70      0.334844  3 C  s          
   111      0.275400  4 H  s                130     -0.275400  5 H  s          
 
 Vector   12  Occ=0.000000D+00  E=-1.582401D-01  Symmetry=a1
              MO Center=  1.8D-14,  1.7D-14,  2.4D-01, r^2= 9.3D+00
   Bfn.  Coefficient  Atom+Function         Bfn.  Coefficient  Atom+Function  
  ----- ------------  ---------------      ----- ------------  ---------------
   113      0.978583  4 H  s                132      0.978583  5 H  s          
    14     -0.651966  1 C  s                 78     -0.651966  3 C  s          
   112      0.569047  4 H  s                131      0.569047  5 H  s          
    10     -0.436551  1 C  s                 74     -0.436551  3 C  s          
    15      0.274245  1 C  px                79     -0.274245  3 C  px         
 
 Vector   13  Occ=0.000000D+00  E=-1.228257D-01  Symmetry=a1
              MO Center= -1.1D-13,  1.1D-14, -6.6D-01, r^2= 8.8D+00
   Bfn.  Coefficient  Atom+Function         Bfn.  Coefficient  Atom+Function  
  ----- ------------  ---------------      ----- ------------  ---------------
    49      1.035783  2 H  s                113     -0.756148  4 H  s          
   132     -0.756148  5 H  s                 15     -0.523914  1 C  px         
    79      0.523914  3 C  px                17      0.304235  1 C  pz         
    81      0.304235  3 C  pz                48     -0.133423  2 H  s          
    10      0.115616  1 C  s                 74      0.115616  3 C  s          
 
 Vector   14  Occ=0.000000D+00  E=-1.135331D-01  Symmetry=b2
              MO Center=  6.0D-17, -3.1D-14,  2.7D-03, r^2= 8.8D+00
   Bfn.  Coefficient  Atom+Function         Bfn.  Coefficient  Atom+Function  
  ----- ------------  ---------------      ----- ------------  ---------------
    16      0.554647  1 C  py                80      0.554647  3 C  py         
    12     -0.145644  1 C  py                76     -0.145644  3 C  py         
     8     -0.121111  1 C  py                72     -0.121111  3 C  py         
     4     -0.082148  1 C  py                68     -0.082148  3 C  py         
    57      0.064515  2 H  py               121      0.062168  4 H  py         
 
 Vector   15  Occ=0.000000D+00  E=-1.037673D-01  Symmetry=a1
              MO Center= -6.9D-16,  2.9D-16,  2.2D-01, r^2= 6.1D+00
   Bfn.  Coefficient  Atom+Function         Bfn.  Coefficient  Atom+Function  
  ----- ------------  ---------------      ----- ------------  ---------------
    48      2.356943  2 H  s                 15     -1.378555  1 C  px         
    79      1.378555  3 C  px                49      1.095625  2 H  s          
   113     -0.905531  4 H  s                132     -0.905531  5 H  s          
    10     -0.576072  1 C  s                 17     -0.577985  1 C  pz         
    74     -0.576072  3 C  s                 81     -0.577985  3 C  pz         
 
 Vector   16  Occ=0.000000D+00  E=-9.204267D-02  Symmetry=b1
              MO Center= -1.0D-14,  1.3D-14,  1.0D-01, r^2= 1.1D+01
   Bfn.  Coefficient  Atom+Function         Bfn.  Coefficient  Atom+Function  
  ----- ------------  ---------------      ----- ------------  ---------------
   112      1.236848  4 H  s                131     -1.236848  5 H  s          
   113     -0.807123  4 H  s                132      0.807123  5 H  s          
    11      0.554104  1 C  px                75      0.554104  3 C  px         
   111      0.417198  4 H  s                130     -0.417198  5 H  s          
    15      0.306636  1 C  px                79      0.306636  3 C  px         
 
 Vector   17  Occ=0.000000D+00  E=-5.246039D-02  Symmetry=b1
              MO Center=  6.6D-14,  1.1D-13, -2.3D-01, r^2= 1.2D+01
   Bfn.  Coefficient  Atom+Function         Bfn.  Coefficient  Atom+Function  
  ----- ------------  ---------------      ----- ------------  ---------------
    17      2.164711  1 C  pz                81     -2.164711  3 C  pz         
   113     -0.785377  4 H  s                132      0.785377  5 H  s          
    15     -0.452021  1 C  px                79     -0.452021  3 C  px         
   112     -0.342296  4 H  s                131      0.342296  5 H  s          
    13     -0.314453  1 C  pz                77      0.314453  3 C  pz         
 
 Vector   18  Occ=0.000000D+00  E=-4.628612D-02  Symmetry=a2
              MO Center=  2.2D-16, -1.2D-13, -6.6D-02, r^2= 1.2D+01
   Bfn.  Coefficient  Atom+Function         Bfn.  Coefficient  Atom+Function  
  ----- ------------  ---------------      ----- ------------  ---------------
    16      2.202416  1 C  py                80     -2.202416  3 C  py         
    12     -0.249545  1 C  py                76      0.249545  3 C  py         
     8     -0.141850  1 C  py                72      0.141850  3 C  py         
    31      0.134572  1 C  dxy               95      0.134572  3 C  dxy        
   121      0.107371  4 H  py               140     -0.107371  5 H  py         
 
 Vector   19  Occ=0.000000D+00  E=-3.974213D-02  Symmetry=a1
              MO Center= -4.8D-15, -1.0D-16,  1.8D+00, r^2= 1.2D+01
   Bfn.  Coefficient  Atom+Function         Bfn.  Coefficient  Atom+Function  
  ----- ------------  ---------------      ----- ------------  ---------------
    49      7.216944  2 H  s                 14     -3.584970  1 C  s          
    78     -3.584970  3 C  s                 17     -1.561848  1 C  pz         
    81     -1.561848  3 C  pz                48      0.963678  2 H  s          
   113     -0.692343  4 H  s                132     -0.692343  5 H  s          
   112      0.646732  4 H  s                131      0.646732  5 H  s          
 
 Vector   20  Occ=0.000000D+00  E=-1.960920D-02  Symmetry=a1
              MO Center=  7.7D-12, -1.1D-15, -2.7D-01, r^2= 2.2D+01
   Bfn.  Coefficient  Atom+Function         Bfn.  Coefficient  Atom+Function  
  ----- ------------  ---------------      ----- ------------  ---------------
    14      7.270189  1 C  s                 78      7.270189  3 C  s          
   113     -7.153415  4 H  s                132     -7.153415  5 H  s          
    15     -4.518793  1 C  px                79      4.518793  3 C  px         
    49      1.979080  2 H  s                112     -1.559014  4 H  s          
   131     -1.559014  5 H  s                 10      0.420508  1 C  s          
 
 Vector   21  Occ=0.000000D+00  E=-5.754573D-03  Symmetry=b1
              MO Center= -7.6D-12,  2.3D-16, -9.3D-02, r^2= 2.0D+01
   Bfn.  Coefficient  Atom+Function         Bfn.  Coefficient  Atom+Function  
  ----- ------------  ---------------      ----- ------------  ---------------
   113      6.111757  4 H  s                132     -6.111757  5 H  s          
    15      3.757401  1 C  px                79      3.757401  3 C  px         
    14     -2.150503  1 C  s                 78      2.150503  3 C  s          
   112      1.616996  4 H  s                131     -1.616996  5 H  s          
    11      0.502756  1 C  px                75      0.502756  3 C  px         
 
 Vector   22  Occ=0.000000D+00  E= 7.439205D-03  Symmetry=b2
              MO Center=  2.5D-16,  2.3D-16,  1.8D-01, r^2= 3.2D+00
   Bfn.  Coefficient  Atom+Function         Bfn.  Coefficient  Atom+Function  
  ----- ------------  ---------------      ----- ------------  ---------------
    34      0.650837  1 C  dyz               98      0.650837  3 C  dyz        
    57      0.403949  2 H  py                28      0.072485  1 C  dyz        
    92      0.072485  3 C  dyz              121     -0.071583  4 H  py         
   140     -0.071583  5 H  py                16     -0.064130  1 C  py         
    80     -0.064130  3 C  py                12     -0.042452  1 C  py         
 
 Vector   23  Occ=0.000000D+00  E= 7.016556D-02  Symmetry=a1
              MO Center= -3.4D-13, -1.3D-16, -1.9D-01, r^2= 1.3D+01
   Bfn.  Coefficient  Atom+Function         Bfn.  Coefficient  Atom+Function  
  ----- ------------  ---------------      ----- ------------  ---------------
    15      9.000733  1 C  px                79     -9.000733  3 C  px         
    14     -8.022936  1 C  s                 78     -8.022936  3 C  s          
   113      7.872447  4 H  s                132      7.872447  5 H  s          
   112      4.698920  4 H  s                131      4.698920  5 H  s          
    49     -2.882378  2 H  s                 48     -1.942139  2 H  s          
 
 Vector   24  Occ=0.000000D+00  E= 7.828247D-02  Symmetry=a1
              MO Center=  2.3D-14, -9.9D-17,  2.4D-01, r^2= 9.2D+00
   Bfn.  Coefficient  Atom+Function         Bfn.  Coefficient  Atom+Function  
  ----- ------------  ---------------      ----- ------------  ---------------
    48      5.657069  2 H  s                113      1.987442  4 H  s          
   132      1.987442  5 H  s                 14     -1.974311  1 C  s          
    78     -1.974311  3 C  s                 49     -1.690276  2 H  s          
    15      1.581927  1 C  px                79     -1.581927  3 C  px         
    10     -1.400654  1 C  s                 74     -1.400654  3 C  s          
 
 Vector   25  Occ=0.000000D+00  E= 1.125777D-01  Symmetry=b1
              MO Center=  1.4D-12,  7.7D-15, -1.4D-01, r^2= 1.1D+01
   Bfn.  Coefficient  Atom+Function         Bfn.  Coefficient  Atom+Function  
  ----- ------------  ---------------      ----- ------------  ---------------
   112      7.508838  4 H  s                131     -7.508838  5 H  s          
    11      3.800094  1 C  px                75      3.800094  3 C  px         
    15      2.441363  1 C  px                79      2.441363  3 C  px         
    14     -2.272758  1 C  s                 78      2.272758  3 C  s          
    10     -1.782427  1 C  s                 74      1.782427  3 C  s          
 
 Vector   26  Occ=0.000000D+00  E= 1.177293D-01  Symmetry=b2
              MO Center= -1.7D-16, -8.7D-16, -8.1D-02, r^2= 5.2D+00
   Bfn.  Coefficient  Atom+Function         Bfn.  Coefficient  Atom+Function  
  ----- ------------  ---------------      ----- ------------  ---------------
   121      0.651655  4 H  py               140      0.651655  5 H  py         
    31     -0.399956  1 C  dxy               95      0.399956  3 C  dxy        
    16     -0.246082  1 C  py                80     -0.246082  3 C  py         
    34      0.156268  1 C  dyz               98      0.156268  3 C  dyz        
    57     -0.090011  2 H  py                25     -0.083995  1 C  dxy        
 
 Vector   27  Occ=0.000000D+00  E= 1.209206D-01  Symmetry=a1
              MO Center=  1.2D-13, -7.6D-17,  1.2D-01, r^2= 6.6D+00
   Bfn.  Coefficient  Atom+Function         Bfn.  Coefficient  Atom+Function  
  ----- ------------  ---------------      ----- ------------  ---------------
    48      6.567578  2 H  s                 15     -1.374522  1 C  px         
    79      1.374522  3 C  px                10     -1.184334  1 C  s          
    74     -1.184334  3 C  s                 58     -1.014782  2 H  pz         
    13     -0.904768  1 C  pz                77     -0.904768  3 C  pz         
    35     -0.832449  1 C  dzz               99     -0.832449  3 C  dzz        
 
 Vector   28  Occ=0.000000D+00  E= 1.638979D-01  Symmetry=a1
              MO Center= -2.0D-12, -3.5D-16,  2.5D-01, r^2= 1.1D+01
   Bfn.  Coefficient  Atom+Function         Bfn.  Coefficient  Atom+Function  
  ----- ------------  ---------------      ----- ------------  ---------------
    14     11.792245  1 C  s                 78     11.792245  3 C  s          
   112     -8.065910  4 H  s                131     -8.065910  5 H  s          
    15     -6.247487  1 C  px                79      6.247487  3 C  px         
   113     -5.864286  4 H  s                132     -5.864286  5 H  s          
    10      3.508422  1 C  s                 74      3.508422  3 C  s          
 
 Vector   29  Occ=0.000000D+00  E= 2.140190D-01  Symmetry=b1
              MO Center= -1.5D-14,  1.6D-16,  1.0D-01, r^2= 4.5D+00
   Bfn.  Coefficient  Atom+Function         Bfn.  Coefficient  Atom+Function  
  ----- ------------  ---------------      ----- ------------  ---------------
    35      1.206878  1 C  dzz               99     -1.206878  3 C  dzz        
   113      0.945061  4 H  s                132     -0.945061  5 H  s          
    33     -0.634818  1 C  dyy               97      0.634818  3 C  dyy        
   112     -0.611241  4 H  s                131      0.611241  5 H  s          
    15      0.576547  1 C  px                79      0.576547  3 C  px         
 
 Vector   30  Occ=0.000000D+00  E= 2.267207D-01  Symmetry=a2
              MO Center=  2.6D-14,  2.4D-15, -4.1D-02, r^2= 4.2D+00
   Bfn.  Coefficient  Atom+Function         Bfn.  Coefficient  Atom+Function  
  ----- ------------  ---------------      ----- ------------  ---------------
    34      2.059088  1 C  dyz               98     -2.059088  3 C  dyz        
    12      0.229879  1 C  py                76     -0.229879  3 C  py         
    31      0.131705  1 C  dxy               95      0.131705  3 C  dxy        
    16     -0.078091  1 C  py                80      0.078091  3 C  py         
     8     -0.039780  1 C  py                72      0.039780  3 C  py         
 
 Vector   31  Occ=0.000000D+00  E= 2.417020D-01  Symmetry=b2
              MO Center= -3.1D-14, -4.4D-14, -9.7D-02, r^2= 5.4D+00
   Bfn.  Coefficient  Atom+Function         Bfn.  Coefficient  Atom+Function  
  ----- ------------  ---------------      ----- ------------  ---------------
    57      1.052152  2 H  py                12      0.940352  1 C  py         
    76      0.940352  3 C  py                31     -0.911711  1 C  dxy        
    95      0.911711  3 C  dxy               34     -0.735722  1 C  dyz        
    98     -0.735722  3 C  dyz              121     -0.563669  4 H  py         
   140     -0.563669  5 H  py                 8     -0.488033  1 C  py         
 
 Vector   32  Occ=0.000000D+00  E= 2.511417D-01  Symmetry=a1
              MO Center= -1.3D-13,  4.2D-14,  5.0D-02, r^2= 7.5D+00
   Bfn.  Coefficient  Atom+Function         Bfn.  Coefficient  Atom+Function  
  ----- ------------  ---------------      ----- ------------  ---------------
    48      4.411120  2 H  s                 49     -4.097719  2 H  s          
   113      4.022085  4 H  s                132      4.022085  5 H  s          
    15      3.490475  1 C  px                79     -3.490475  3 C  px         
    14     -3.256098  1 C  s                 78     -3.256098  3 C  s          
    10     -3.185737  1 C  s                 74     -3.185737  3 C  s          
 
 Vector   33  Occ=0.000000D+00  E= 2.512029D-01  Symmetry=b1
              MO Center=  8.2D-14, -3.2D-15,  1.2D-01, r^2= 7.0D+00
   Bfn.  Coefficient  Atom+Function         Bfn.  Coefficient  Atom+Function  
  ----- ------------  ---------------      ----- ------------  ---------------
    17      1.474295  1 C  pz                81     -1.474295  3 C  pz         
   113     -1.263436  4 H  s                132      1.263436  5 H  s          
   122     -0.929073  4 H  pz               141      0.929073  5 H  pz         
    15     -0.921350  1 C  px                79     -0.921350  3 C  px         
    13      0.652486  1 C  pz                77     -0.652486  3 C  pz         
 
 Vector   34  Occ=0.000000D+00  E= 2.609151D-01  Symmetry=a2
              MO Center=  4.9D-15, -2.4D-14, -7.5D-02, r^2= 6.8D+00
   Bfn.  Coefficient  Atom+Function         Bfn.  Coefficient  Atom+Function  
  ----- ------------  ---------------      ----- ------------  ---------------
    16      1.475535  1 C  py                80     -1.475535  3 C  py         
   121     -1.066144  4 H  py               140      1.066144  5 H  py         
     8      0.378865  1 C  py                72     -0.378865  3 C  py         
    12      0.200339  1 C  py                76     -0.200339  3 C  py         
     4      0.135564  1 C  py                68     -0.135564  3 C  py         
 
 Vector   35  Occ=0.000000D+00  E= 2.723897D-01  Symmetry=b1
              MO Center=  5.1D-13,  1.4D-14, -1.5D-01, r^2= 1.0D+01
   Bfn.  Coefficient  Atom+Function         Bfn.  Coefficient  Atom+Function  
  ----- ------------  ---------------      ----- ------------  ---------------
   113      4.485792  4 H  s                132     -4.485792  5 H  s          
    15      3.161140  1 C  px                79      3.161140  3 C  px         
    33      1.996436  1 C  dyy               97     -1.996436  3 C  dyy        
    30      1.554169  1 C  dxx               94     -1.554169  3 C  dxx        
    35      1.481882  1 C  dzz               99     -1.481882  3 C  dzz        
 
 Vector   36  Occ=0.000000D+00  E= 3.179158D-01  Symmetry=a1
              MO Center= -3.8D-13, -1.7D-14, -1.6D-01, r^2= 1.1D+01
   Bfn.  Coefficient  Atom+Function         Bfn.  Coefficient  Atom+Function  
  ----- ------------  ---------------      ----- ------------  ---------------
   112     10.570906  4 H  s                131     10.570906  5 H  s          
    15      7.354970  1 C  px                79     -7.354970  3 C  px         
    14     -6.071227  1 C  s                 78     -6.071227  3 C  s          
    30     -4.998288  1 C  dxx               94     -4.998288  3 C  dxx        
   113      4.385822  4 H  s                132      4.385822  5 H  s          
 
 Vector   37  Occ=0.000000D+00  E= 3.356287D-01  Symmetry=b2
              MO Center=  2.4D-16,  2.2D-14,  5.5D-01, r^2= 4.0D+00
   Bfn.  Coefficient  Atom+Function         Bfn.  Coefficient  Atom+Function  
  ----- ------------  ---------------      ----- ------------  ---------------
    57      2.225472  2 H  py                12     -1.514622  1 C  py         
    76     -1.514622  3 C  py                34     -1.380096  1 C  dyz        
    98     -1.380096  3 C  dyz              121      0.536742  4 H  py         
   140      0.536742  5 H  py                 8      0.334431  1 C  py         
    72      0.334431  3 C  py                16      0.138842  1 C  py         
 
 Vector   38  Occ=0.000000D+00  E= 3.780389D-01  Symmetry=a1
              MO Center=  2.9D-13, -1.2D-15,  2.2D-01, r^2= 6.4D+00
   Bfn.  Coefficient  Atom+Function         Bfn.  Coefficient  Atom+Function  
  ----- ------------  ---------------      ----- ------------  ---------------
    14      4.694913  1 C  s                 78      4.694913  3 C  s          
    15     -3.511931  1 C  px                79      3.511931  3 C  px         
   113     -3.211768  4 H  s                132     -3.211768  5 H  s          
    30     -2.891259  1 C  dxx               94     -2.891259  3 C  dxx        
    10      2.735443  1 C  s                 74      2.735443  3 C  s          
 
 Vector   39  Occ=0.000000D+00  E= 3.833012D-01  Symmetry=b1
              MO Center= -2.4D-13, -5.1D-17, -1.8D-01, r^2= 5.3D+00
   Bfn.  Coefficient  Atom+Function         Bfn.  Coefficient  Atom+Function  
  ----- ------------  ---------------      ----- ------------  ---------------
    32      5.458242  1 C  dxz               96      5.458242  3 C  dxz        
    13      3.713186  1 C  pz                77     -3.713186  3 C  pz         
    56      2.229400  2 H  px               122      1.741289  4 H  pz         
   141     -1.741289  5 H  pz                35      1.534804  1 C  dzz        
    99     -1.534804  3 C  dzz               11     -0.590059  1 C  px         
 
 Vector   40  Occ=0.000000D+00  E= 4.169259D-01  Symmetry=a2
              MO Center= -3.2D-15,  3.6D-16, -1.2D-01, r^2= 5.1D+00
   Bfn.  Coefficient  Atom+Function         Bfn.  Coefficient  Atom+Function  
  ----- ------------  ---------------      ----- ------------  ---------------
    31      4.170278  1 C  dxy               95      4.170278  3 C  dxy        
   121      1.978705  4 H  py               140     -1.978705  5 H  py         
    16      0.559360  1 C  py                80     -0.559360  3 C  py         
     8      0.508137  1 C  py                72     -0.508137  3 C  py         
    12      0.214478  1 C  py                76     -0.214478  3 C  py         
 
 Vector   41  Occ=0.000000D+00  E= 4.267936D-01  Symmetry=b1
              MO Center=  2.4D-13,  1.4D-15, -8.7D-02, r^2= 6.9D+00
   Bfn.  Coefficient  Atom+Function         Bfn.  Coefficient  Atom+Function  
  ----- ------------  ---------------      ----- ------------  ---------------
   112      8.202250  4 H  s                131     -8.202250  5 H  s          
    11      5.618661  1 C  px                75      5.618661  3 C  px         
    10     -2.878038  1 C  s                 74      2.878038  3 C  s          
   120      2.891003  4 H  px               139      2.891003  5 H  px         
    14     -2.223037  1 C  s                 78      2.223037  3 C  s          
 
 Vector   42  Occ=0.000000D+00  E= 4.309944D-01  Symmetry=a1
              MO Center= -2.0D-14, -2.9D-16,  4.5D-01, r^2= 4.6D+00
   Bfn.  Coefficient  Atom+Function         Bfn.  Coefficient  Atom+Function  
  ----- ------------  ---------------      ----- ------------  ---------------
    14      3.393377  1 C  s                 78      3.393377  3 C  s          
    15     -2.852250  1 C  px                79      2.852250  3 C  px         
   113     -2.759733  4 H  s                132     -2.759733  5 H  s          
   112     -2.600124  4 H  s                131     -2.600124  5 H  s          
    47     -1.556340  2 H  s                 58     -1.558805  2 H  pz         
 
 Vector   43  Occ=0.000000D+00  E= 5.209055D-01  Symmetry=a1
              MO Center=  2.8D-14, -1.0D-15,  4.1D-01, r^2= 5.7D+00
   Bfn.  Coefficient  Atom+Function         Bfn.  Coefficient  Atom+Function  
  ----- ------------  ---------------      ----- ------------  ---------------
    48      7.951972  2 H  s                 10     -4.359446  1 C  s          
    74     -4.359446  3 C  s                 13     -3.453323  1 C  pz         
    77     -3.453323  3 C  pz                58     -2.817006  2 H  pz         
    32      2.474255  1 C  dxz               96     -2.474255  3 C  dxz        
   122      2.083519  4 H  pz               141      2.083519  5 H  pz         
 
 Vector   44  Occ=0.000000D+00  E= 5.553306D-01  Symmetry=b2
              MO Center=  3.2D-14,  2.0D-15, -7.3D-02, r^2= 5.1D+00
   Bfn.  Coefficient  Atom+Function         Bfn.  Coefficient  Atom+Function  
  ----- ------------  ---------------      ----- ------------  ---------------
    31      3.860370  1 C  dxy               95     -3.860370  3 C  dxy        
   121      2.459377  4 H  py               140      2.459377  5 H  py         
    12     -1.776475  1 C  py                76     -1.776475  3 C  py         
     8     -0.348792  1 C  py                72     -0.348792  3 C  py         
    57     -0.211489  2 H  py               118     -0.109068  4 H  py         
 
 Vector   45  Occ=0.000000D+00  E= 5.667713D-01  Symmetry=b1
              MO Center=  1.4D-13, -1.1D-16,  5.9D-01, r^2= 4.7D+00
   Bfn.  Coefficient  Atom+Function         Bfn.  Coefficient  Atom+Function  
  ----- ------------  ---------------      ----- ------------  ---------------
    13     13.132603  1 C  pz                77    -13.132603  3 C  pz         
    56      7.305992  2 H  px                32      5.941992  1 C  dxz        
    96      5.941992  3 C  dxz               35      3.774591  1 C  dzz        
    99     -3.774591  3 C  dzz               11     -1.958314  1 C  px         
    75     -1.958314  3 C  px                30     -1.822540  1 C  dxx        
 
 Vector   46  Occ=0.000000D+00  E= 5.763053D-01  Symmetry=a1
              MO Center=  1.8D-13, -3.5D-16,  6.2D-01, r^2= 5.8D+00
   Bfn.  Coefficient  Atom+Function         Bfn.  Coefficient  Atom+Function  
  ----- ------------  ---------------      ----- ------------  ---------------
    48     10.267645  2 H  s                 47      4.492545  2 H  s          
    32     -4.232085  1 C  dxz               96      4.232085  3 C  dxz        
    58     -3.865302  2 H  pz                11     -2.931243  1 C  px         
    75      2.931243  3 C  px                10     -2.577971  1 C  s          
    74     -2.577971  3 C  s                 13     -1.751044  1 C  pz         
 
 Vector   47  Occ=0.000000D+00  E= 6.706066D-01  Symmetry=b1
              MO Center= -1.6D-13,  3.7D-16,  5.6D-02, r^2= 5.2D+00
   Bfn.  Coefficient  Atom+Function         Bfn.  Coefficient  Atom+Function  
  ----- ------------  ---------------      ----- ------------  ---------------
    13      5.831406  1 C  pz                77     -5.831406  3 C  pz         
    32      5.417134  1 C  dxz               96      5.417134  3 C  dxz        
    11      4.081603  1 C  px                75      4.081603  3 C  px         
   111      3.538362  4 H  s                130     -3.538362  5 H  s          
    30     -3.057779  1 C  dxx               94      3.057779  3 C  dxx        
 
 Vector   48  Occ=0.000000D+00  E= 6.760629D-01  Symmetry=a1
              MO Center= -1.4D-12, -9.6D-16, -1.0D-01, r^2= 8.2D+00
   Bfn.  Coefficient  Atom+Function         Bfn.  Coefficient  Atom+Function  
  ----- ------------  ---------------      ----- ------------  ---------------
   112     13.449907  4 H  s                131     13.449907  5 H  s          
    10    -11.466866  1 C  s                 74    -11.466866  3 C  s          
    14     -8.758557  1 C  s                 78     -8.758557  3 C  s          
    15      5.658745  1 C  px                79     -5.658745  3 C  px         
    11      5.073233  1 C  px                75     -5.073233  3 C  px         
 
 Vector   49  Occ=0.000000D+00  E= 8.024840D-01  Symmetry=b1
              MO Center=  2.8D-14, -4.2D-17, -3.2D-01, r^2= 5.9D+00
   Bfn.  Coefficient  Atom+Function         Bfn.  Coefficient  Atom+Function  
  ----- ------------  ---------------      ----- ------------  ---------------
    32     23.231264  1 C  dxz               96     23.231264  3 C  dxz        
    13     18.290943  1 C  pz                77    -18.290943  3 C  pz         
   122      4.708125  4 H  pz               141     -4.708125  5 H  pz         
   112      3.272370  4 H  s                131     -3.272370  5 H  s          
    11      2.332083  1 C  px                75      2.332083  3 C  px         
 
 Vector   50  Occ=0.000000D+00  E= 8.084670D-01  Symmetry=b1
              MO Center=  1.1D-12, -1.8D-16, -8.2D-02, r^2= 6.0D+00
   Bfn.  Coefficient  Atom+Function         Bfn.  Coefficient  Atom+Function  
  ----- ------------  ---------------      ----- ------------  ---------------
    32     11.084140  1 C  dxz               96     11.084140  3 C  dxz        
    13      8.574780  1 C  pz                77     -8.574780  3 C  pz         
   112     -7.407137  4 H  s                131      7.407137  5 H  s          
    11     -6.660552  1 C  px                75     -6.660552  3 C  px         
   111     -3.790890  4 H  s                130      3.790890  5 H  s          
 
 Vector   51  Occ=0.000000D+00  E= 8.254386D-01  Symmetry=a2
              MO Center= -4.7D-14,  2.0D-16, -8.7D-02, r^2= 5.9D+00
   Bfn.  Coefficient  Atom+Function         Bfn.  Coefficient  Atom+Function  
  ----- ------------  ---------------      ----- ------------  ---------------
    31     24.615802  1 C  dxy               95     24.615802  3 C  dxy        
    12     18.382624  1 C  py                76    -18.382624  3 C  py         
   121      5.183070  4 H  py               140     -5.183070  5 H  py         
     8     -0.263493  1 C  py                72      0.263493  3 C  py         
    16     -0.230866  1 C  py                80      0.230866  3 C  py         
 
 Vector   52  Occ=0.000000D+00  E= 8.477662D-01  Symmetry=a1
              MO Center= -1.2D-12,  3.4D-16, -1.9D-01, r^2= 5.2D+00
   Bfn.  Coefficient  Atom+Function         Bfn.  Coefficient  Atom+Function  
  ----- ------------  ---------------      ----- ------------  ---------------
    10     12.618358  1 C  s                 74     12.618358  3 C  s          
    30     -9.625418  1 C  dxx               94     -9.625418  3 C  dxx        
    11     -8.839976  1 C  px                75      8.839976  3 C  px         
   112     -5.143675  4 H  s                131     -5.143675  5 H  s          
   120     -3.668793  4 H  px               139      3.668793  5 H  px         
 
 Vector   53  Occ=0.000000D+00  E= 9.901935D-01  Symmetry=b2
              MO Center=  1.0D-15,  2.0D-16,  2.2D-01, r^2= 1.9D+00
   Bfn.  Coefficient  Atom+Function         Bfn.  Coefficient  Atom+Function  
  ----- ------------  ---------------      ----- ------------  ---------------
    28      0.939445  1 C  dyz               92      0.939445  3 C  dyz        
    31     -0.911415  1 C  dxy               95      0.911415  3 C  dxy        
    54      0.525633  2 H  py                12      0.482945  1 C  py         
    76      0.482945  3 C  py                57     -0.419581  2 H  py         
    34     -0.400556  1 C  dyz               98     -0.400556  3 C  dyz        
 
 Vector   54  Occ=0.000000D+00  E= 1.006208D+00  Symmetry=a1
              MO Center=  9.6D-13, -1.2D-16, -1.3D-01, r^2= 5.7D+00
   Bfn.  Coefficient  Atom+Function         Bfn.  Coefficient  Atom+Function  
  ----- ------------  ---------------      ----- ------------  ---------------
    30     10.417345  1 C  dxx               94     10.417345  3 C  dxx        
    10     -8.459582  1 C  s                 74     -8.459582  3 C  s          
   112     -6.888266  4 H  s                131     -6.888266  5 H  s          
    15     -2.863989  1 C  px                79      2.863989  3 C  px         
   111     -2.385506  4 H  s                130     -2.385506  5 H  s          
 
 Vector   55  Occ=0.000000D+00  E= 1.022165D+00  Symmetry=b1
              MO Center= -2.0D-14, -3.2D-17, -7.1D-02, r^2= 5.1D+00
   Bfn.  Coefficient  Atom+Function         Bfn.  Coefficient  Atom+Function  
  ----- ------------  ---------------      ----- ------------  ---------------
    30      3.644041  1 C  dxx               94     -3.644041  3 C  dxx        
    33      3.143340  1 C  dyy               97     -3.143340  3 C  dyy        
    35      3.116716  1 C  dzz               99     -3.116716  3 C  dzz        
    11      2.774336  1 C  px                75      2.774336  3 C  px         
   113      2.765075  4 H  s                132     -2.765075  5 H  s          
 
 Vector   56  Occ=0.000000D+00  E= 1.086989D+00  Symmetry=a1
              MO Center=  1.6D-15,  8.0D-17,  2.4D-02, r^2= 2.7D+00
   Bfn.  Coefficient  Atom+Function         Bfn.  Coefficient  Atom+Function  
  ----- ------------  ---------------      ----- ------------  ---------------
    48      3.519223  2 H  s                 13     -1.734030  1 C  pz         
    77     -1.734030  3 C  pz                32      1.568175  1 C  dxz        
    96     -1.568175  3 C  dxz               58     -1.296489  2 H  pz         
    47      0.972344  2 H  s                 26     -0.922179  1 C  dxz        
    90      0.922179  3 C  dxz               11     -0.832884  1 C  px         
 
 Vector   57  Occ=0.000000D+00  E= 1.090604D+00  Symmetry=b2
              MO Center= -5.4D-15,  1.6D-16, -5.4D-02, r^2= 2.6D+00
   Bfn.  Coefficient  Atom+Function         Bfn.  Coefficient  Atom+Function  
  ----- ------------  ---------------      ----- ------------  ---------------
    31      1.870900  1 C  dxy               95     -1.870900  3 C  dxy        
    25     -0.951610  1 C  dxy               89      0.951610  3 C  dxy        
    12     -0.747019  1 C  py                76     -0.747019  3 C  py         
   121      0.510226  4 H  py               140      0.510226  5 H  py         
    28      0.390524  1 C  dyz               92      0.390524  3 C  dyz        
 
 Vector   58  Occ=0.000000D+00  E= 1.282059D+00  Symmetry=b1
              MO Center= -8.4D-15, -3.7D-17,  2.7D-01, r^2= 2.1D+00
   Bfn.  Coefficient  Atom+Function         Bfn.  Coefficient  Atom+Function  
  ----- ------------  ---------------      ----- ------------  ---------------
    32      3.743169  1 C  dxz               96      3.743169  3 C  dxz        
    13      2.136501  1 C  pz                77     -2.136501  3 C  pz         
    56     -1.137570  2 H  px                 7      0.833198  1 C  px         
    71      0.833198  3 C  px                33     -0.713952  1 C  dyy        
    97      0.713952  3 C  dyy               53      0.653189  2 H  px         
 
 Vector   59  Occ=0.000000D+00  E= 1.306074D+00  Symmetry=a1
              MO Center=  9.0D-16, -1.1D-16,  1.9D-01, r^2= 2.4D+00
   Bfn.  Coefficient  Atom+Function         Bfn.  Coefficient  Atom+Function  
  ----- ------------  ---------------      ----- ------------  ---------------
    48      4.148457  2 H  s                 58     -2.447800  2 H  pz         
    47      2.416090  2 H  s                 11     -2.319103  1 C  px         
    75      2.319103  3 C  px                49     -1.425998  2 H  s          
    13     -1.308346  1 C  pz                77     -1.308346  3 C  pz         
    30     -1.128282  1 C  dxx               94     -1.128282  3 C  dxx        
 
 Vector   60  Occ=0.000000D+00  E= 1.387999D+00  Symmetry=a2
              MO Center= -2.0D-15, -2.9D-16, -5.8D-02, r^2= 1.9D+00
   Bfn.  Coefficient  Atom+Function         Bfn.  Coefficient  Atom+Function  
  ----- ------------  ---------------      ----- ------------  ---------------
    31      2.018307  1 C  dxy               95      2.018307  3 C  dxy        
    12      1.630946  1 C  py                76     -1.630946  3 C  py         
    28     -1.348800  1 C  dyz               92      1.348800  3 C  dyz        
    34      1.024594  1 C  dyz               98     -1.024594  3 C  dyz        
    40      0.258828  1 C  fxyz             104      0.258828  3 C  fxyz       
 
 Vector   61  Occ=0.000000D+00  E= 1.403412D+00  Symmetry=b1
              MO Center= -8.6D-15,  1.2D-16, -4.7D-02, r^2= 3.4D+00
   Bfn.  Coefficient  Atom+Function         Bfn.  Coefficient  Atom+Function  
  ----- ------------  ---------------      ----- ------------  ---------------
    32      5.952411  1 C  dxz               96      5.952411  3 C  dxz        
    13      4.827302  1 C  pz                77     -4.827302  3 C  pz         
    26     -0.821938  1 C  dxz               90     -0.821938  3 C  dxz        
   119      0.654713  4 H  pz               138     -0.654713  5 H  pz         
    17      0.535758  1 C  pz                81     -0.535758  3 C  pz         
 
 Vector   62  Occ=0.000000D+00  E= 1.410423D+00  Symmetry=a2
              MO Center=  6.8D-15,  1.4D-16, -4.4D-02, r^2= 3.5D+00
   Bfn.  Coefficient  Atom+Function         Bfn.  Coefficient  Atom+Function  
  ----- ------------  ---------------      ----- ------------  ---------------
    31      6.134174  1 C  dxy               95      6.134174  3 C  dxy        
    12      4.912232  1 C  py                76     -4.912232  3 C  py         
    25     -0.808489  1 C  dxy               89     -0.808489  3 C  dxy        
   118      0.672056  4 H  py               137     -0.672056  5 H  py         
    16      0.540475  1 C  py                80     -0.540475  3 C  py         
 
 Vector   63  Occ=0.000000D+00  E= 1.617438D+00  Symmetry=b2
              MO Center=  8.5D-16,  1.2D-16,  5.4D-01, r^2= 1.9D+00
   Bfn.  Coefficient  Atom+Function         Bfn.  Coefficient  Atom+Function  
  ----- ------------  ---------------      ----- ------------  ---------------
    57      1.266268  2 H  py                54     -1.101317  2 H  py         
    28      0.759838  1 C  dyz               92      0.759838  3 C  dyz        
    34     -0.687933  1 C  dyz               98     -0.687933  3 C  dyz        
    12     -0.510987  1 C  py                76     -0.510987  3 C  py         
   121      0.438661  4 H  py               140      0.438661  5 H  py         
 
 Vector   64  Occ=0.000000D+00  E= 1.669508D+00  Symmetry=a1
              MO Center=  3.5D-14,  5.4D-18,  9.6D-02, r^2= 3.5D+00
   Bfn.  Coefficient  Atom+Function         Bfn.  Coefficient  Atom+Function  
  ----- ------------  ---------------      ----- ------------  ---------------
    48      3.555791  2 H  s                 10     -2.690022  1 C  s          
    74     -2.690022  3 C  s                 47      2.157357  2 H  s          
    13     -1.784835  1 C  pz                77     -1.784835  3 C  pz         
    58     -1.502036  2 H  pz               122      1.150577  4 H  pz         
   141      1.150577  5 H  pz               119     -0.819469  4 H  pz         
 
 Vector   65  Occ=0.000000D+00  E= 1.729762D+00  Symmetry=a1
              MO Center= -8.7D-14, -7.7D-17, -6.0D-02, r^2= 4.0D+00
   Bfn.  Coefficient  Atom+Function         Bfn.  Coefficient  Atom+Function  
  ----- ------------  ---------------      ----- ------------  ---------------
    10      8.120755  1 C  s                 74      8.120755  3 C  s          
   112     -7.557661  4 H  s                131     -7.557661  5 H  s          
    14      4.449630  1 C  s                 78      4.449630  3 C  s          
   111     -4.106190  4 H  s                130     -4.106190  5 H  s          
    15     -3.072567  1 C  px                79      3.072567  3 C  px         
 
 Vector   66  Occ=0.000000D+00  E= 1.729883D+00  Symmetry=b2
              MO Center= -7.2D-15, -1.2D-16, -3.2D-02, r^2= 3.3D+00
   Bfn.  Coefficient  Atom+Function         Bfn.  Coefficient  Atom+Function  
  ----- ------------  ---------------      ----- ------------  ---------------
    31      1.259464  1 C  dxy               95     -1.259464  3 C  dxy        
   121      1.130633  4 H  py               140      1.130633  5 H  py         
   118     -0.856781  4 H  py               137     -0.856781  5 H  py         
    25     -0.748836  1 C  dxy               89      0.748836  3 C  dxy        
    12     -0.659306  1 C  py                76     -0.659306  3 C  py         
 
 Vector   67  Occ=0.000000D+00  E= 1.866698D+00  Symmetry=b1
              MO Center= -5.0D-15, -1.9D-18,  4.0D-01, r^2= 2.2D+00
   Bfn.  Coefficient  Atom+Function         Bfn.  Coefficient  Atom+Function  
  ----- ------------  ---------------      ----- ------------  ---------------
    32      3.625383  1 C  dxz               96      3.625383  3 C  dxz        
    13      1.856619  1 C  pz                77     -1.856619  3 C  pz         
    56     -1.713276  2 H  px                35     -1.265745  1 C  dzz        
    99      1.265745  3 C  dzz               11     -1.143874  1 C  px         
    75     -1.143874  3 C  px               112     -1.116552  4 H  s          
 
 Vector   68  Occ=0.000000D+00  E= 1.906440D+00  Symmetry=b1
              MO Center=  3.8D-14, -1.5D-17, -3.1D-02, r^2= 4.9D+00
   Bfn.  Coefficient  Atom+Function         Bfn.  Coefficient  Atom+Function  
  ----- ------------  ---------------      ----- ------------  ---------------
    11      7.811129  1 C  px                75      7.811129  3 C  px         
   111      7.333634  4 H  s                130     -7.333634  5 H  s          
   112      6.910618  4 H  s                131     -6.910618  5 H  s          
     7      4.928714  1 C  px                71      4.928714  3 C  px         
    10     -3.674691  1 C  s                 74      3.674691  3 C  s          
 
 Vector   69  Occ=0.000000D+00  E= 1.952753D+00  Symmetry=a1
              MO Center=  4.8D-13,  5.6D-17,  1.3D-01, r^2= 3.5D+00
   Bfn.  Coefficient  Atom+Function         Bfn.  Coefficient  Atom+Function  
  ----- ------------  ---------------      ----- ------------  ---------------
    10      8.035961  1 C  s                 74      8.035961  3 C  s          
   111     -6.019108  4 H  s                112     -6.048380  4 H  s          
   130     -6.019108  5 H  s                131     -6.048380  5 H  s          
    11     -4.423888  1 C  px                75      4.423888  3 C  px         
    48     -2.885900  2 H  s                120     -2.326314  4 H  px         
 
 Vector   70  Occ=0.000000D+00  E= 2.084627D+00  Symmetry=a1
              MO Center=  1.1D-14, -3.9D-17,  2.3D-01, r^2= 2.9D+00
   Bfn.  Coefficient  Atom+Function         Bfn.  Coefficient  Atom+Function  
  ----- ------------  ---------------      ----- ------------  ---------------
   111      4.353865  4 H  s                130      4.353865  5 H  s          
    48     -3.071434  2 H  s                 11      2.907549  1 C  px         
    75     -2.907549  3 C  px               112      2.406094  4 H  s          
   131      2.406094  5 H  s                 10     -2.120817  1 C  s          
    74     -2.120817  3 C  s                 58      1.568253  2 H  pz         
 
 Vector   71  Occ=0.000000D+00  E= 2.167960D+00  Symmetry=a1
              MO Center=  2.6D-16, -4.2D-17,  6.8D-02, r^2= 1.6D+00
   Bfn.  Coefficient  Atom+Function         Bfn.  Coefficient  Atom+Function  
  ----- ------------  ---------------      ----- ------------  ---------------
    47      1.396021  2 H  s                 41      0.726922  1 C  fxzz       
   105     -0.726922  3 C  fxzz              39     -0.699928  1 C  fxyy       
   103      0.699928  3 C  fxyy              43      0.662556  1 C  fyyz       
   107      0.662556  3 C  fyyz              30     -0.644023  1 C  dxx        
    94     -0.644023  3 C  dxx               11     -0.600795  1 C  px         
 
 Vector   72  Occ=0.000000D+00  E= 2.182710D+00  Symmetry=b2
              MO Center=  4.3D-16, -5.3D-17, -3.6D-02, r^2= 1.7D+00
   Bfn.  Coefficient  Atom+Function         Bfn.  Coefficient  Atom+Function  
  ----- ------------  ---------------      ----- ------------  ---------------
    40      1.783519  1 C  fxyz             104     -1.783519  3 C  fxyz       
    44     -0.487110  1 C  fyzz             108     -0.487110  3 C  fyzz       
   127     -0.473669  4 H  dyz              146     -0.473669  5 H  dyz        
    28     -0.185886  1 C  dyz               92     -0.185886  3 C  dyz        
    54     -0.173924  2 H  py                63     -0.161982  2 H  dyz        
 
 Vector   73  Occ=0.000000D+00  E= 2.205113D+00  Symmetry=b1
              MO Center=  3.1D-15, -1.5D-17, -6.0D-02, r^2= 2.8D+00
   Bfn.  Coefficient  Atom+Function         Bfn.  Coefficient  Atom+Function  
  ----- ------------  ---------------      ----- ------------  ---------------
    32      3.043696  1 C  dxz               96      3.043696  3 C  dxz        
    26     -1.611237  1 C  dxz               90     -1.611237  3 C  dxz        
   122      1.268129  4 H  pz               141     -1.268129  5 H  pz         
    13      0.919037  1 C  pz                77     -0.919037  3 C  pz         
   119     -0.716899  4 H  pz               138      0.716899  5 H  pz         
 
 Vector   74  Occ=0.000000D+00  E= 2.216240D+00  Symmetry=a2
              MO Center=  3.4D-15,  6.3D-17, -7.0D-02, r^2= 2.7D+00
   Bfn.  Coefficient  Atom+Function         Bfn.  Coefficient  Atom+Function  
  ----- ------------  ---------------      ----- ------------  ---------------
    31      2.882658  1 C  dxy               95      2.882658  3 C  dxy        
    25     -1.526829  1 C  dxy               89     -1.526829  3 C  dxy        
   121      1.166349  4 H  py               140     -1.166349  5 H  py         
    12      1.132850  1 C  py                76     -1.132850  3 C  py         
   118     -0.693693  4 H  py               137      0.693693  5 H  py         
 
 Vector   75  Occ=0.000000D+00  E= 2.296763D+00  Symmetry=a1
              MO Center= -3.6D-15,  3.5D-17,  5.5D-01, r^2= 2.3D+00
   Bfn.  Coefficient  Atom+Function         Bfn.  Coefficient  Atom+Function  
  ----- ------------  ---------------      ----- ------------  ---------------
    47      8.439824  2 H  s                 48      6.564420  2 H  s          
    13     -2.810141  1 C  pz                58     -2.812506  2 H  pz         
    77     -2.810141  3 C  pz                10     -2.468836  1 C  s          
    74     -2.468836  3 C  s                 11     -2.405979  1 C  px         
    75      2.405979  3 C  px                32     -2.033227  1 C  dxz        
 
 Vector   76  Occ=0.000000D+00  E= 2.337157D+00  Symmetry=b2
              MO Center=  1.1D-14, -1.8D-17, -1.2D-02, r^2= 1.4D+00
   Bfn.  Coefficient  Atom+Function         Bfn.  Coefficient  Atom+Function  
  ----- ------------  ---------------      ----- ------------  ---------------
     4      0.764319  1 C  py                68      0.764319  3 C  py         
     8     -0.583870  1 C  py                72     -0.583870  3 C  py         
    12      0.484786  1 C  py                76      0.484786  3 C  py         
    57     -0.408595  2 H  py                42     -0.389815  1 C  fyyy       
   106     -0.389815  3 C  fyyy              31      0.363438  1 C  dxy        
 
 Vector   77  Occ=0.000000D+00  E= 2.342778D+00  Symmetry=b1
              MO Center= -4.0D-13, -3.5D-17, -1.4D-01, r^2= 4.2D+00
   Bfn.  Coefficient  Atom+Function         Bfn.  Coefficient  Atom+Function  
  ----- ------------  ---------------      ----- ------------  ---------------
   111      8.683438  4 H  s                130     -8.683438  5 H  s          
    11      6.522947  1 C  px                75      6.522947  3 C  px         
     7      5.640507  1 C  px                71      5.640507  3 C  px         
   112      4.179558  4 H  s                131     -4.179558  5 H  s          
    10     -2.742059  1 C  s                 74      2.742059  3 C  s          
 
 Vector   78  Occ=0.000000D+00  E= 2.421471D+00  Symmetry=a2
              MO Center= -3.2D-15, -9.8D-19,  2.6D-01, r^2= 1.5D+00
   Bfn.  Coefficient  Atom+Function         Bfn.  Coefficient  Atom+Function  
  ----- ------------  ---------------      ----- ------------  ---------------
    31      3.447743  1 C  dxy               95      3.447743  3 C  dxy        
    12      2.987554  1 C  py                76     -2.987554  3 C  py         
    44     -1.142968  1 C  fyzz             108      1.142968  3 C  fyzz       
    60      0.852010  2 H  dxy              121      0.666390  4 H  py         
   140     -0.666390  5 H  py                40     -0.485021  1 C  fxyz       
 
 Vector   79  Occ=0.000000D+00  E= 2.538917D+00  Symmetry=b2
              MO Center= -3.6D-15, -1.2D-19,  3.0D-01, r^2= 1.4D+00
   Bfn.  Coefficient  Atom+Function         Bfn.  Coefficient  Atom+Function  
  ----- ------------  ---------------      ----- ------------  ---------------
    44      1.310987  1 C  fyzz             108      1.310987  3 C  fyzz       
    63     -0.673227  2 H  dyz               54     -0.509885  2 H  py         
    42     -0.469766  1 C  fyyy             106     -0.469766  3 C  fyyy       
    40      0.309817  1 C  fxyz             104     -0.309817  3 C  fxyz       
    31      0.279000  1 C  dxy               95     -0.279000  3 C  dxy        
 
 Vector   80  Occ=0.000000D+00  E= 2.571195D+00  Symmetry=a1
              MO Center=  2.1D-14, -2.4D-17,  2.1D-01, r^2= 1.9D+00
   Bfn.  Coefficient  Atom+Function         Bfn.  Coefficient  Atom+Function  
  ----- ------------  ---------------      ----- ------------  ---------------
    30      2.989502  1 C  dxx               94      2.989502  3 C  dxx        
    47      2.596740  2 H  s                 10     -2.204325  1 C  s          
    74     -2.204325  3 C  s                111     -1.762304  4 H  s          
   130     -1.762304  5 H  s                 43     -1.206440  1 C  fyyz       
   107     -1.206440  3 C  fyyz              48      1.081597  2 H  s          
 
 Vector   81  Occ=0.000000D+00  E= 2.601482D+00  Symmetry=a2
              MO Center= -2.0D-15,  4.1D-17, -5.5D-02, r^2= 1.5D+00
   Bfn.  Coefficient  Atom+Function         Bfn.  Coefficient  Atom+Function  
  ----- ------------  ---------------      ----- ------------  ---------------
    31      4.888373  1 C  dxy               95      4.888373  3 C  dxy        
    12      4.208325  1 C  py                76     -4.208325  3 C  py         
   121      0.981675  4 H  py               140     -0.981675  5 H  py         
    42     -0.731211  1 C  fyyy             106      0.731211  3 C  fyyy       
    25     -0.675932  1 C  dxy               89     -0.675932  3 C  dxy        
 
 Vector   82  Occ=0.000000D+00  E= 2.677185D+00  Symmetry=a1
              MO Center= -5.9D-16,  1.9D-17, -2.1D-01, r^2= 2.7D+00
   Bfn.  Coefficient  Atom+Function         Bfn.  Coefficient  Atom+Function  
  ----- ------------  ---------------      ----- ------------  ---------------
    10      2.789624  1 C  s                 74      2.789624  3 C  s          
   112      2.538810  4 H  s                131      2.538810  5 H  s          
    47     -2.462417  2 H  s                 11      2.305232  1 C  px         
    75     -2.305232  3 C  px                27     -1.695526  1 C  dyy        
    91     -1.695526  3 C  dyy               33     -1.637921  1 C  dyy        
 
 Vector   83  Occ=0.000000D+00  E= 2.682481D+00  Symmetry=b1
              MO Center= -4.1D-14, -1.4D-14, -1.3D-01, r^2= 2.4D+00
   Bfn.  Coefficient  Atom+Function         Bfn.  Coefficient  Atom+Function  
  ----- ------------  ---------------      ----- ------------  ---------------
    13      3.612879  1 C  pz                77     -3.612879  3 C  pz         
    32      3.120777  1 C  dxz               96      3.120777  3 C  dxz        
     7      1.056196  1 C  px                71      1.056196  3 C  px         
    56      1.037185  2 H  px               111      0.759557  4 H  s          
   130     -0.759557  5 H  s                 39     -0.717007  1 C  fxyy       
 
 Vector   84  Occ=0.000000D+00  E= 2.686403D+00  Symmetry=a2
              MO Center=  6.8D-16,  1.4D-14, -1.3D-01, r^2= 2.4D+00
   Bfn.  Coefficient  Atom+Function         Bfn.  Coefficient  Atom+Function  
  ----- ------------  ---------------      ----- ------------  ---------------
    40      1.289404  1 C  fxyz             104      1.289404  3 C  fxyz       
   127     -0.884200  4 H  dyz              146      0.884200  5 H  dyz        
    44     -0.800861  1 C  fyzz             108      0.800861  3 C  fyzz       
    28      0.436527  1 C  dyz               92     -0.436527  3 C  dyz        
    42      0.300317  1 C  fyyy             106     -0.300317  3 C  fyyy       
 
 Vector   85  Occ=0.000000D+00  E= 2.704940D+00  Symmetry=b1
              MO Center=  7.1D-15,  1.2D-17,  2.8D-02, r^2= 1.6D+00
   Bfn.  Coefficient  Atom+Function         Bfn.  Coefficient  Atom+Function  
  ----- ------------  ---------------      ----- ------------  ---------------
    13      5.465692  1 C  pz                77     -5.465692  3 C  pz         
    32      4.462783  1 C  dxz               96      4.462783  3 C  dxz        
     7      1.845856  1 C  px                71      1.845856  3 C  px         
    56      1.779507  2 H  px                43     -1.560934  1 C  fyyz       
   107      1.560934  3 C  fyyz             111      1.221034  4 H  s          
 
 Vector   86  Occ=0.000000D+00  E= 2.729125D+00  Symmetry=a1
              MO Center= -1.8D-13, -3.4D-18,  1.8D-01, r^2= 2.8D+00
   Bfn.  Coefficient  Atom+Function         Bfn.  Coefficient  Atom+Function  
  ----- ------------  ---------------      ----- ------------  ---------------
    30      7.318824  1 C  dxx               94      7.318824  3 C  dxx        
   112     -5.904007  4 H  s                131     -5.904007  5 H  s          
   111     -5.255001  4 H  s                130     -5.255001  5 H  s          
    47     -3.002703  2 H  s                 14      2.133846  1 C  s          
    78      2.133846  3 C  s                 15     -1.832252  1 C  px         
 
 Vector   87  Occ=0.000000D+00  E= 2.890497D+00  Symmetry=b1
              MO Center= -4.8D-14,  2.0D-17, -1.1D-01, r^2= 2.7D+00
   Bfn.  Coefficient  Atom+Function         Bfn.  Coefficient  Atom+Function  
  ----- ------------  ---------------      ----- ------------  ---------------
    11      3.395300  1 C  px                75      3.395300  3 C  px         
    30      2.771724  1 C  dxx               94     -2.771724  3 C  dxx        
    33      2.618122  1 C  dyy               97     -2.618122  3 C  dyy        
    35      2.601011  1 C  dzz               99     -2.601011  3 C  dzz        
    27      2.385913  1 C  dyy               91     -2.385913  3 C  dyy        
 
 Vector   88  Occ=0.000000D+00  E= 2.939224D+00  Symmetry=b1
              MO Center= -3.2D-14,  3.1D-17,  8.0D-02, r^2= 1.8D+00
   Bfn.  Coefficient  Atom+Function         Bfn.  Coefficient  Atom+Function  
  ----- ------------  ---------------      ----- ------------  ---------------
     7      5.010399  1 C  px                71      5.010399  3 C  px         
    24      2.693647  1 C  dxx               88     -2.693647  3 C  dxx        
    13     -2.098388  1 C  pz                36      2.105326  1 C  fxxx       
    77      2.098388  3 C  pz               100      2.105326  3 C  fxxx       
     6      1.881290  1 C  s                 70     -1.881290  3 C  s          
 
 Vector   89  Occ=0.000000D+00  E= 2.998135D+00  Symmetry=a1
              MO Center=  5.1D-14, -7.9D-18,  2.0D-01, r^2= 2.5D+00
   Bfn.  Coefficient  Atom+Function         Bfn.  Coefficient  Atom+Function  
  ----- ------------  ---------------      ----- ------------  ---------------
    30      2.684356  1 C  dxx               94      2.684356  3 C  dxx        
   111     -2.556809  4 H  s                130     -2.556809  5 H  s          
   112     -2.099510  4 H  s                131     -2.099510  5 H  s          
    47      1.361117  2 H  s                 10     -0.739354  1 C  s          
    74     -0.739354  3 C  s                 39     -0.706272  1 C  fxyy       
 
 Vector   90  Occ=0.000000D+00  E= 3.114862D+00  Symmetry=a1
              MO Center=  2.0D-14,  9.1D-18,  2.7D-02, r^2= 2.5D+00
   Bfn.  Coefficient  Atom+Function         Bfn.  Coefficient  Atom+Function  
  ----- ------------  ---------------      ----- ------------  ---------------
    48      1.013565  2 H  s                 38      0.921980  1 C  fxxz       
   102      0.921980  3 C  fxxz              32      0.760047  1 C  dxz        
    96     -0.760047  3 C  dxz               30     -0.752281  1 C  dxx        
    94     -0.752281  3 C  dxx               58     -0.636942  2 H  pz         
   125      0.531398  4 H  dxz              144     -0.531398  5 H  dxz        
 
 Vector   91  Occ=0.000000D+00  E= 3.138008D+00  Symmetry=b2
              MO Center=  9.9D-16, -1.5D-18, -2.6D-02, r^2= 2.8D+00
   Bfn.  Coefficient  Atom+Function         Bfn.  Coefficient  Atom+Function  
  ----- ------------  ---------------      ----- ------------  ---------------
    40      1.153976  1 C  fxyz             104     -1.153976  3 C  fxyz       
   127      0.998543  4 H  dyz              146      0.998543  5 H  dyz        
    37      0.667487  1 C  fxxy             101      0.667487  3 C  fxxy       
    31      0.452594  1 C  dxy               95     -0.452594  3 C  dxy        
   124      0.446972  4 H  dxy              143     -0.446972  5 H  dxy        
 
 Vector   92  Occ=0.000000D+00  E= 3.151786D+00  Symmetry=b2
              MO Center= -1.1D-15,  2.6D-18, -7.6D-02, r^2= 2.6D+00
   Bfn.  Coefficient  Atom+Function         Bfn.  Coefficient  Atom+Function  
  ----- ------------  ---------------      ----- ------------  ---------------
    37      0.978751  1 C  fxxy             101      0.978751  3 C  fxxy       
    40     -0.805331  1 C  fxyz             104      0.805331  3 C  fxyz       
    31      0.709270  1 C  dxy               95     -0.709270  3 C  dxy        
   127     -0.676353  4 H  dyz              146     -0.676353  5 H  dyz        
   124      0.661265  4 H  dxy              143     -0.661265  5 H  dxy        
 
 Vector   93  Occ=0.000000D+00  E= 3.221072D+00  Symmetry=b1
[...]
   Bfn.  Coefficient  Atom+Function         Bfn.  Coefficient  Atom+Function  
  ----- ------------  ---------------      ----- ------------  ---------------
     7      2.637563  1 C  px                71     -2.637563  3 C  px         
    41     -2.504439  1 C  fxzz             105      2.504439  3 C  fxzz       
    24     -2.128394  1 C  dxx               88     -2.128394  3 C  dxx        
    55     -2.055254  2 H  pz                26     -2.034168  1 C  dxz        
    90      2.034168  3 C  dxz              117      1.583858  4 H  px         
 
 Vector  125  Occ=0.000000D+00  E= 7.895633D+00  Symmetry=b2
              MO Center=  1.2D-14,  5.5D-17,  1.1D-02, r^2= 2.1D+00
   Bfn.  Coefficient  Atom+Function         Bfn.  Coefficient  Atom+Function  
  ----- ------------  ---------------      ----- ------------  ---------------
     8      9.424761  1 C  py                72      9.424761  3 C  py         
    44     -5.132793  1 C  fyzz             108     -5.132793  3 C  fyzz       
    42     -5.068365  1 C  fyyy             106     -5.068365  3 C  fyyy       
    37     -4.733479  1 C  fxxy             101     -4.733479  3 C  fxxy       
     4     -2.257811  1 C  py                68     -2.257811  3 C  py         
 
 Vector  126  Occ=0.000000D+00  E= 8.288657D+00  Symmetry=a1
              MO Center= -2.4D-15,  3.8D-17, -1.4D-01, r^2= 1.5D+00
   Bfn.  Coefficient  Atom+Function         Bfn.  Coefficient  Atom+Function  
  ----- ------------  ---------------      ----- ------------  ---------------
     6      3.653820  1 C  s                 70      3.653820  3 C  s          
     9     -3.434552  1 C  pz                73     -3.434552  3 C  pz         
    10      2.553700  1 C  s                 74      2.553700  3 C  s          
    29     -2.245955  1 C  dzz               93     -2.245955  3 C  dzz        
    43      1.897483  1 C  fyyz             107      1.897483  3 C  fyyz       
 
 Vector  127  Occ=0.000000D+00  E= 8.331226D+00  Symmetry=a1
              MO Center= -2.2D-14,  5.5D-18,  5.3D-03, r^2= 2.5D+00
   Bfn.  Coefficient  Atom+Function         Bfn.  Coefficient  Atom+Function  
  ----- ------------  ---------------      ----- ------------  ---------------
     9      5.268068  1 C  pz                73      5.268068  3 C  pz         
    38     -3.186247  1 C  fxxz             102     -3.186247  3 C  fxxz       
    45     -3.110406  1 C  fzzz             109     -3.110406  3 C  fzzz       
    43     -2.810320  1 C  fyyz             107     -2.810320  3 C  fyyz       
    10      2.144006  1 C  s                 74      2.144006  3 C  s          
 
 Vector  128  Occ=0.000000D+00  E= 8.375459D+00  Symmetry=b2
              MO Center=  9.9D-13,  1.3D-16,  8.3D-01, r^2= 9.5D-01
   Bfn.  Coefficient  Atom+Function         Bfn.  Coefficient  Atom+Function  
  ----- ------------  ---------------      ----- ------------  ---------------
     8      1.572511  1 C  py                72      1.572511  3 C  py         
    51      1.183261  2 H  py                54     -1.017745  2 H  py         
    37     -1.006302  1 C  fxxy             101     -1.006302  3 C  fxxy       
    42     -0.878012  1 C  fyyy             106     -0.878012  3 C  fyyy       
    44     -0.509594  1 C  fyzz             108     -0.509594  3 C  fyzz       
 
 Vector  129  Occ=0.000000D+00  E= 8.393648D+00  Symmetry=a2
              MO Center= -2.9D-13, -4.3D-17, -7.3D-02, r^2= 2.8D+00
   Bfn.  Coefficient  Atom+Function         Bfn.  Coefficient  Atom+Function  
  ----- ------------  ---------------      ----- ------------  ---------------
     8      5.666961  1 C  py                72     -5.666961  3 C  py         
    37     -3.122335  1 C  fxxy             101      3.122335  3 C  fxxy       
    42     -2.894012  1 C  fyyy             106      2.894012  3 C  fyyy       
    44     -2.865347  1 C  fyzz             108      2.865347  3 C  fyzz       
     4     -1.367154  1 C  py                68      1.367154  3 C  py         
 
 Vector  130  Occ=0.000000D+00  E= 8.410960D+00  Symmetry=b1
              MO Center=  3.5D-13, -1.1D-18, -6.4D-02, r^2= 2.7D+00
   Bfn.  Coefficient  Atom+Function         Bfn.  Coefficient  Atom+Function  
  ----- ------------  ---------------      ----- ------------  ---------------
     9      5.165138  1 C  pz                73     -5.165138  3 C  pz         
    38     -2.732481  1 C  fxxz             102      2.732481  3 C  fxxz       
    43     -2.638954  1 C  fyyz             107      2.638954  3 C  fyyz       
    45     -2.590612  1 C  fzzz             109      2.590612  3 C  fzzz       
     6      1.792890  1 C  s                 70     -1.792890  3 C  s          
 
 Vector  131  Occ=0.000000D+00  E= 8.538885D+00  Symmetry=b1
              MO Center= -9.3D-13,  2.8D-18,  4.9D-01, r^2= 1.5D+00
   Bfn.  Coefficient  Atom+Function         Bfn.  Coefficient  Atom+Function  
  ----- ------------  ---------------      ----- ------------  ---------------
     9      5.813227  1 C  pz                73     -5.813227  3 C  pz         
     7      5.258186  1 C  px                71      5.258186  3 C  px         
    45     -3.423233  1 C  fzzz             109      3.423233  3 C  fzzz       
    43     -2.996627  1 C  fyyz             107      2.996627  3 C  fyyz       
    13     -2.738586  1 C  pz                77      2.738586  3 C  pz         
 
 Vector  132  Occ=0.000000D+00  E= 8.550313D+00  Symmetry=b2
              MO Center= -9.1D-13, -1.7D-16,  2.3D-02, r^2= 2.8D+00
   Bfn.  Coefficient  Atom+Function         Bfn.  Coefficient  Atom+Function  
  ----- ------------  ---------------      ----- ------------  ---------------
     8      4.142367  1 C  py                72      4.142367  3 C  py         
    42     -2.238854  1 C  fyyy             106     -2.238854  3 C  fyyy       
    44     -2.120028  1 C  fyzz             108     -2.120028  3 C  fyzz       
    37     -1.617222  1 C  fxxy             101     -1.617222  3 C  fxxy       
     4     -1.001583  1 C  py                68     -1.001583  3 C  py         
 
 Vector  133  Occ=0.000000D+00  E= 8.757413D+00  Symmetry=a1
              MO Center=  6.4D-13,  2.3D-18,  2.8D-03, r^2= 2.2D+00
   Bfn.  Coefficient  Atom+Function         Bfn.  Coefficient  Atom+Function  
  ----- ------------  ---------------      ----- ------------  ---------------
     9      7.899820  1 C  pz                73      7.899820  3 C  pz         
    45     -4.661801  1 C  fzzz             109     -4.661801  3 C  fzzz       
    43     -4.223043  1 C  fyyz             107     -4.223043  3 C  fyyz       
    38     -4.064271  1 C  fxxz             102     -4.064271  3 C  fxxz       
     5     -1.948688  1 C  pz                69     -1.948688  3 C  pz         
 
 Vector  134  Occ=0.000000D+00  E= 8.777683D+00  Symmetry=b1
              MO Center= -1.7D-13, -1.1D-17, -5.8D-02, r^2= 2.0D+00
   Bfn.  Coefficient  Atom+Function         Bfn.  Coefficient  Atom+Function  
  ----- ------------  ---------------      ----- ------------  ---------------
     7      8.067001  1 C  px                71      8.067001  3 C  px         
     6     -5.934664  1 C  s                 70      5.934664  3 C  s          
   117      3.181273  4 H  px               136      3.181273  5 H  px         
    29      3.076127  1 C  dzz               93     -3.076127  3 C  dzz        
     9     -2.812735  1 C  pz                73      2.812735  3 C  pz         
 
 Vector  135  Occ=0.000000D+00  E= 8.814410D+00  Symmetry=a2
              MO Center=  2.2D-13,  1.2D-17, -7.5D-02, r^2= 2.1D+00
   Bfn.  Coefficient  Atom+Function         Bfn.  Coefficient  Atom+Function  
  ----- ------------  ---------------      ----- ------------  ---------------
     8      9.306160  1 C  py                72     -9.306160  3 C  py         
    42     -4.747259  1 C  fyyy             106      4.747259  3 C  fyyy       
    44     -4.723428  1 C  fyzz             108      4.723428  3 C  fyzz       
    37     -4.479190  1 C  fxxy             101      4.479190  3 C  fxxy       
    12     -2.842994  1 C  py                76      2.842994  3 C  py         
 
 Vector  136  Occ=0.000000D+00  E= 9.115446D+00  Symmetry=a1
              MO Center= -1.2D-12,  5.1D-18, -9.1D-02, r^2= 1.6D+00
   Bfn.  Coefficient  Atom+Function         Bfn.  Coefficient  Atom+Function  
  ----- ------------  ---------------      ----- ------------  ---------------
     6      9.547262  1 C  s                 70      9.547262  3 C  s          
     7     -7.029374  1 C  px                71      7.029374  3 C  px         
    39      3.728648  1 C  fxyy             103     -3.728648  3 C  fxyy       
    41      3.602044  1 C  fxzz             105     -3.602044  3 C  fxzz       
    29     -3.472414  1 C  dzz               93     -3.472414  3 C  dzz        
 
 Vector  137  Occ=0.000000D+00  E= 9.273224D+00  Symmetry=b1
              MO Center=  1.1D-12,  3.2D-18,  2.8D-01, r^2= 1.5D+00
   Bfn.  Coefficient  Atom+Function         Bfn.  Coefficient  Atom+Function  
  ----- ------------  ---------------      ----- ------------  ---------------
     9      6.969608  1 C  pz                73     -6.969608  3 C  pz         
     6     -4.694144  1 C  s                 70      4.694144  3 C  s          
    38     -3.609545  1 C  fxxz             102      3.609545  3 C  fxxz       
    43     -3.524767  1 C  fyyz             107      3.524767  3 C  fyyz       
    45     -3.020792  1 C  fzzz             109      3.020792  3 C  fzzz       
 
 Vector  138  Occ=0.000000D+00  E= 9.810212D+00  Symmetry=a1
              MO Center=  8.8D-13,  2.4D-18,  5.7D-01, r^2= 1.5D+00
   Bfn.  Coefficient  Atom+Function         Bfn.  Coefficient  Atom+Function  
  ----- ------------  ---------------      ----- ------------  ---------------
     7      4.171121  1 C  px                71     -4.171121  3 C  px         
     9     -3.713389  1 C  pz                73     -3.713389  3 C  pz         
    55     -3.145664  2 H  pz                41     -2.930395  1 C  fxzz       
   105      2.930395  3 C  fxzz              47      2.772787  2 H  s          
    30     -2.728249  1 C  dxx               94     -2.728249  3 C  dxx        
 
 Vector  139  Occ=0.000000D+00  E= 9.868759D+00  Symmetry=b1
              MO Center= -9.5D-13,  7.6D-19, -7.5D-02, r^2= 1.5D+00
   Bfn.  Coefficient  Atom+Function         Bfn.  Coefficient  Atom+Function  
  ----- ------------  ---------------      ----- ------------  ---------------
     7      7.717038  1 C  px                71      7.717038  3 C  px         
    36     -5.279666  1 C  fxxx             100     -5.279666  3 C  fxxx       
    41     -4.065726  1 C  fxzz             105     -4.065726  3 C  fxzz       
    39     -3.766235  1 C  fxyy             103     -3.766235  3 C  fxyy       
    24      3.666416  1 C  dxx               88     -3.666416  3 C  dxx        
 
 Vector  140  Occ=0.000000D+00  E= 9.989615D+00  Symmetry=b1
              MO Center= -1.4D-13,  1.8D-17, -1.2D-02, r^2= 2.3D+00
   Bfn.  Coefficient  Atom+Function         Bfn.  Coefficient  Atom+Function  
  ----- ------------  ---------------      ----- ------------  ---------------
     6      8.765931  1 C  s                 70     -8.765931  3 C  s          
    36      5.833753  1 C  fxxx             100      5.833753  3 C  fxxx       
     7      4.606354  1 C  px                71      4.606354  3 C  px         
    11     -3.564709  1 C  px                75     -3.564709  3 C  px         
    27     -2.639545  1 C  dyy               91      2.639545  3 C  dyy        
 
 Vector  141  Occ=0.000000D+00  E= 1.020700D+01  Symmetry=a1
              MO Center=  5.0D-13, -2.1D-19,  1.8D-01, r^2= 2.2D+00
   Bfn.  Coefficient  Atom+Function         Bfn.  Coefficient  Atom+Function  
  ----- ------------  ---------------      ----- ------------  ---------------
     7      6.915188  1 C  px                71     -6.915188  3 C  px         
    30     -3.696438  1 C  dxx               94     -3.696438  3 C  dxx        
    10      3.408804  1 C  s                 74      3.408804  3 C  s          
   117      2.959464  4 H  px               136     -2.959464  5 H  px         
    24     -2.704307  1 C  dxx               88     -2.704307  3 C  dxx        
 
 Vector  142  Occ=0.000000D+00  E= 1.163178D+01  Symmetry=b1
              MO Center= -2.3D-13,  1.9D-18, -6.1D-02, r^2= 2.2D+00
   Bfn.  Coefficient  Atom+Function         Bfn.  Coefficient  Atom+Function  
  ----- ------------  ---------------      ----- ------------  ---------------
    24     12.938273  1 C  dxx               88    -12.938273  3 C  dxx        
     7     -7.708076  1 C  px                71     -7.708076  3 C  px         
   117     -6.705257  4 H  px               136     -6.705257  5 H  px         
    41      5.200946  1 C  fxzz             105      5.200946  3 C  fxzz       
    39      5.127556  1 C  fxyy             103      5.127556  3 C  fxyy       
 
 Vector  143  Occ=0.000000D+00  E= 1.212097D+01  Symmetry=a1
              MO Center=  3.7D-13, -3.5D-18, -8.2D-02, r^2= 2.3D+00
   Bfn.  Coefficient  Atom+Function         Bfn.  Coefficient  Atom+Function  
  ----- ------------  ---------------      ----- ------------  ---------------
    36      9.440924  1 C  fxxx             100     -9.440924  3 C  fxxx       
     6     -8.186909  1 C  s                 70     -8.186909  3 C  s          
   117      7.062617  4 H  px               136     -7.062617  5 H  px         
   123      4.879779  4 H  dxx              142      4.879779  5 H  dxx        
     7     -4.672929  1 C  px                71      4.672929  3 C  px         
 
 Vector  144  Occ=0.000000D+00  E= 2.866519D+01  Symmetry=b1
              MO Center=  1.9D-15, -8.9D-20, -7.3D-02, r^2= 4.7D-01
   Bfn.  Coefficient  Atom+Function         Bfn.  Coefficient  Atom+Function  
  ----- ------------  ---------------      ----- ------------  ---------------
     6      3.542175  1 C  s                 70     -3.542175  3 C  s          
     1     -1.426333  1 C  s                 65      1.426333  3 C  s          
     2      1.159507  1 C  s                 66     -1.159507  3 C  s          
     7      0.981528  1 C  px                71      0.981528  3 C  px         
    27     -0.882139  1 C  dyy               91      0.882139  3 C  dyy        
 
 Vector  145  Occ=0.000000D+00  E= 2.898067D+01  Symmetry=a1
              MO Center=  4.6D-15, -5.2D-20, -7.3D-02, r^2= 4.7D-01
   Bfn.  Coefficient  Atom+Function         Bfn.  Coefficient  Atom+Function  
  ----- ------------  ---------------      ----- ------------  ---------------
     6      2.433035  1 C  s                 70      2.433035  3 C  s          
     1     -1.431303  1 C  s                 65     -1.431303  3 C  s          
     2      1.182741  1 C  s                 66      1.182741  3 C  s          
    24     -1.063525  1 C  dxx               88     -1.063525  3 C  dxx        
    18     -0.804566  1 C  dxx               82     -0.804566  3 C  dxx        
 

 center of mass
 --------------
 x =   0.00000000 y =   0.00000000 z =  -0.06256301

 moments of inertia (a.u.)
 ------------------
           4.320822491484           0.000000000000           0.000000000000
           0.000000000000          57.572934528050           0.000000000000
           0.000000000000           0.000000000000          53.252112036566
 
     Multipole analysis of the density
     ---------------------------------
 
     L   x y z        total         alpha         beta         nuclear
     -   - - -        -----         -----         ----         -------
     0   0 0 0      1.000000     -7.000000     -7.000000     15.000000
 
     1   1 0 0      0.000000      0.000000      0.000000      0.000000
     1   0 1 0      0.000000      0.000000      0.000000      0.000000
     1   0 0 1      0.373619      0.186810      0.186810     -0.000000
 
     2   2 0 0     -1.331564    -19.081768    -19.081768     36.831972
     2   1 1 0      0.000000      0.000000      0.000000      0.000000
     2   1 0 1      0.000000      0.000000      0.000000      0.000000
     2   0 2 0     -8.924924     -4.462462     -4.462462      0.000000
     2   0 1 1     -0.000000     -0.000000     -0.000000      0.000000
     2   0 0 2     -6.719541     -5.436778     -5.436778      4.154015
 

 Parallel integral file used     354 records with       0 large values


 Task  times  cpu:        2.4s     wall:        4.2s
 
 
                                NWChem Input Module
                                -------------------
 
 
 Summary of allocated global arrays
-----------------------------------
  No active global arrays



                         GA Statistics for process    0
                         ------------------------------

       create   destroy   get      put      acc     scatter   gather  read&inc
calls:  244      244     2540     1238      553        0        0      159     
number of processes/call 2.29e+00 1.56e+00 3.34e+00 0.00e+00 0.00e+00
bytes total:             4.70e+07 5.84e+06 2.26e+07 0.00e+00 0.00e+00 1.27e+03
bytes remote:            3.75e+07 3.35e+06 1.80e+07 0.00e+00 0.00e+00 0.00e+00
Max memory consumed for GA by this process: 880344 bytes
 
MA_summarize_allocated_blocks: starting scan ...
MA_summarize_allocated_blocks: scan completed: 0 heap blocks, 0 stack blocks
MA usage statistics:

	allocation statistics:
					      heap	     stack
					      ----	     -----
	current number of blocks	         0	         0
	maximum number of blocks	        22	        57
	current total bytes		         0	         0
	maximum total bytes		  20774248	  29244824
	maximum total K-bytes		     20775	     29245
	maximum total M-bytes		        21	        30
 
 
                                     CITATION
                                     --------
                Please cite the following reference when publishing
                           results obtained with NWChem:
 
                 M. Valiev, E.J. Bylaska, N. Govind, K. Kowalski,
              T.P. Straatsma, H.J.J. van Dam, D. Wang, J. Nieplocha,
                        E. Apra, T.L. Windus, W.A. de Jong
                 "NWChem: a comprehensive and scalable open-source
                  solution for large scale molecular simulations"
                      Comput. Phys. Commun. 181, 1477 (2010)
                           doi:10.1016/j.cpc.2010.04.018
 
                                      AUTHORS
                                      -------
          E. Apra, E. J. Bylaska, W. A. de Jong, N. Govind, K. Kowalski,
       T. P. Straatsma, M. Valiev, H. J. J. van Dam, D. Wang, T. L. Windus,
        J. Hammond, J. Autschbach, K. Bhaskaran-Nair, J. Brabec, K. Lopata,
    S. A. Fischer, S. Krishnamoorthy, M. Jacquelin, W. Ma, M. Klemm, O. Villa,
      Y. Chen, V. Anisimov, F. Aquino, S. Hirata, M. T. Hackler, V. Konjkov,
            D. Mejia-Rodriguez, T. Risthaus, M. Malagoli, A. Marenich,
   A. Otero-de-la-Roza, J. Mullin, P. Nichols, R. Peverati, J. Pittner, Y. Zhao,
        P.-D. Fan, A. Fonari, M. J. Williamson, R. J. Harrison, J. R. Rehr,
      M. Dupuis, D. Silverstein, D. M. A. Smith, J. Nieplocha, V. Tipparaju,
    M. Krishnan, B. E. Van Kuiken, A. Vazquez-Mayagoitia, L. Jensen, M. Swart,
      Q. Wu, T. Van Voorhis, A. A. Auer, M. Nooijen, L. D. Crosby, E. Brown,
      G. Cisneros, G. I. Fann, H. Fruchtl, J. Garza, K. Hirao, R. A. Kendall,
      J. A. Nichols, K. Tsemekhman, K. Wolinski, J. Anchell, D. E. Bernholdt,
      P. Borowski, T. Clark, D. Clerc, H. Dachsel, M. J. O. Deegan, K. Dyall,
    D. Elwood, E. Glendening, M. Gutowski, A. C. Hess, J. Jaffe, B. G. Johnson,
     J. Ju, R. Kobayashi, R. Kutteh, Z. Lin, R. Littlefield, X. Long, B. Meng,
      T. Nakajima, S. Niu, L. Pollack, M. Rosing, K. Glaesemann, G. Sandrone,
      M. Stave, H. Taylor, G. Thomas, J. H. van Lenthe, A. T. Wong, Z. Zhang.

 Total times  cpu:        2.8s     wall:        4.9s
