 argument  1 = /storage/home/rabeet/work/nwc/pa8/nwtpss/H2+.xyz.nw
  NWChem w/ OpenMP: maximum threads =  1
                                         
                                         
 
 
              Northwest Computational Chemistry Package (NWChem) 6.8
              ------------------------------------------------------
 
 
                    Environmental Molecular Sciences Laboratory
                       Pacific Northwest National Laboratory
                                Richland, WA 99352
 
                              Copyright (c) 1994-2018
                       Pacific Northwest National Laboratory
                            Battelle Memorial Institute
 
             NWChem is an open-source computational chemistry package
                        distributed under the terms of the
                      Educational Community License (ECL) 2.0
             A copy of the license is included with this distribution
                              in the LICENSE.TXT file
 
                                  ACKNOWLEDGMENT
                                  --------------

            This software and its documentation were developed at the
            EMSL at Pacific Northwest National Laboratory, a multiprogram
            national laboratory, operated for the U.S. Department of Energy
            by Battelle under Contract Number DE-AC05-76RL01830. Support
            for this work was provided by the Department of Energy Office
            of Biological and Environmental Research, Office of Basic
            Energy Sciences, and the Office of Advanced Scientific Computing.


           Job information
           ---------------

    hostname        = r8n4.niserhpc.org
    program         = /home/rabeet/nwchem-6.8/bin/LINUX64/nwchem
    date            = Sun Oct 27 10:45:34 2019

    compiled        = Fri_Jun_28_18:24:12_2019
    source          = /home/rabeet/nwchem-6.8
    nwchem branch   = Development
    nwchem revision = N/A
    ga revision     = 5.6.5
    use scalapack   = T
    input           = /storage/home/rabeet/work/nwc/pa8/nwtpss/H2+.xyz.nw
    prefix          = H2+.xyz.
    data base       = ./H2+.xyz.db
    status          = startup
    nproc           =       16
    time left       =     -1s



           Memory information
           ------------------

    heap     =   13107198 doubles =    100.0 Mbytes
    stack    =   13107195 doubles =    100.0 Mbytes
    global   =   26214400 doubles =    200.0 Mbytes (distinct from heap & stack)
    total    =   52428793 doubles =    400.0 Mbytes
    verify   = yes
    hardfail = no 


           Directory information
           ---------------------
 
  0 permanent = .
  0 scratch   = .
 
 
 
 
                                NWChem Input Module
                                -------------------
 
 

 Scaling coordinates for geometry "geometry" by  1.889725989
 (inverse scale =  0.529177249)

 D3H symmetry detected

          ------
          auto-z
          ------
  no constraints, skipping   0.000000000000000E+000
  no constraints, skipping   0.000000000000000E+000
 
 
                             Geometry "geometry" -> ""
                             -------------------------
 
 Output coordinates in angstroms (scale by  1.889725989 to convert to a.u.)
 
  No.       Tag          Charge          X              Y              Z
 ---- ---------------- ---------- -------------- -------------- --------------
    1 H                    1.0000     0.34745473     0.34745473     0.00000000
    2 H                    1.0000    -0.47463198     0.12717726     0.00000000
    3 H                    1.0000     0.12717726    -0.47463198     0.00000000
 
      Atomic Mass 
      ----------- 
 
      H                  1.007825
 

 Effective nuclear repulsion energy (a.u.)       1.8652994815

            Nuclear Dipole moment (a.u.) 
            ----------------------------
        X                 Y               Z
 ---------------- ---------------- ----------------
    -0.0000000000    -0.0000000000     0.0000000000
 
      Symmetry information
      --------------------
 
 Group name             D3h       
 Group number             27
 Group order              12
 No. of unique centers     1
 
      Symmetry unique atoms
 
     1
 


                                Z-matrix (autoz)
                                -------- 

 Units are Angstrom for bonds and degrees for angles
 
      Type          Name      I     J     K     L     M      Value
      ----------- --------  ----- ----- ----- ----- ----- ----------
    1 Stretch                  1     2                       0.85109
    2 Stretch                  1     3                       0.85109
    3 Stretch                  2     3                       0.85109
    4 Bend                     1     2     3                60.00000
    5 Bend                     1     3     2                60.00000
    6 Bend                     2     1     3                60.00000
 
 
            XYZ format geometry
            -------------------
     3
 geometry
 H                     0.34745473     0.34745473     0.00000000
 H                    -0.47463198     0.12717726     0.00000000
 H                     0.12717726    -0.47463198     0.00000000
 


 Summary of "ao basis" -> "" (cartesian)
 ------------------------------------------------------------------------------
       Tag                 Description            Shells   Functions and Types
 ---------------- ------------------------------  ------  ---------------------
 *                     6-311++G(3df,3pd)              on all atoms 


 
                                 NWChem DFT Module
                                 -----------------
 
 
                      Basis "ao basis" -> "ao basis" (cartesian)
                      -----
  H (Hydrogen)
  ------------
            Exponent  Coefficients 
       -------------- ---------------------------------------------------------
  1 S  3.38650000E+01  0.025494
  1 S  5.09479000E+00  0.190373
  1 S  1.15879000E+00  0.852161
 
  2 S  3.25840000E-01  1.000000
 
  3 S  1.02741000E-01  1.000000
 
  4 S  3.60000000E-02  1.000000
 
  5 P  3.00000000E+00  1.000000
 
  6 P  7.50000000E-01  1.000000
 
  7 P  1.87500000E-01  1.000000
 
  8 D  1.00000000E+00  1.000000
 


 Summary of "ao basis" -> "ao basis" (cartesian)
 ------------------------------------------------------------------------------
       Tag                 Description            Shells   Functions and Types
 ---------------- ------------------------------  ------  ---------------------
 H                     6-311++G(3df,3pd)             8       19   4s3p1d




 Summary of "ao basis" -> "ao basis" (cartesian)
 ------------------------------------------------------------------------------
       Tag                 Description            Shells   Functions and Types
 ---------------- ------------------------------  ------  ---------------------
 H                     6-311++G(3df,3pd)             8       19   4s3p1d


      Symmetry analysis of basis
      --------------------------
 
        a1'        10
        a1"         1
        a2'         4
        a2"         4
        e'         28
        e"         10
 
  Caching 1-el integrals 
  Rotation of axis 
 
            General Information
            -------------------
          SCF calculation type: DFT
          Wavefunction type:  closed shell.
          No. of atoms     :     3
          No. of electrons :     2
           Alpha electrons :     1
            Beta electrons :     1
          Charge           :     1
          Spin multiplicity:     1
          Use of symmetry is: on ; symmetry adaption is: on 
          Maximum number of iterations: ***
          AO basis - number of functions:    57
                     number of shells:    24
          Convergence on energy requested:  1.00D-06
          Convergence on density requested:  1.00D-05
          Convergence on gradient requested:  5.00D-04
 
              XC Information
              --------------
                  TPSS metaGGA Exchange Functional  1.000          
             TPSS03 metaGGA Correlation Functional  1.000          
 
             Grid Information
             ----------------
          Grid used for XC integration:  medium    
          Radial quadrature: Mura-Knowles        
          Angular quadrature: Lebedev. 
          Tag              B.-S. Rad. Rad. Pts. Rad. Cut. Ang. Pts.
          ---              ---------- --------- --------- ---------
          H                   0.35       45          10.0       434
          Grid pruning is: on 
          Number of quadrature shells:    45
          Spatial weights used:  Erf1
 
          Convergence Information
          -----------------------
          Convergence aids based upon iterative change in 
          total energy or number of iterations. 
          Levelshifting, if invoked, occurs when the 
          HOMO/LUMO gap drops below (HL_TOL):  1.00D-02
          DIIS, if invoked, will attempt to extrapolate 
          using up to (NFOCK): 10 stored Fock matrices.

                    Damping( 0%)  Levelshifting(0.5)       DIIS
                  --------------- ------------------- ---------------
          dE  on:    start            ASAP                start   
          dE off:    2 iters        *** iters           *** iters 

 
      Screening Tolerance Information
      -------------------------------
          Density screening/tol_rho:  1.00D-10
          AO Gaussian exp screening on grid/accAOfunc:  14
          CD Gaussian exp screening on grid/accCDfunc:  20
          XC Gaussian exp screening on grid/accXCfunc:  20
          Schwarz screening/accCoul:  1.00D-08

 
      Superposition of Atomic Density Guess
      -------------------------------------
 
 Sum of atomic energies:          -1.49945450

 Renormalizing density from       3.00 to      2
 
      Non-variational initial energy
      ------------------------------

 Total energy =      -0.697634
 1-e energy   =      -3.225996
 2-e energy   =       0.663063
 HOMO         =      -1.220978
 LUMO         =      -0.300422
 
 
      Symmetry analysis of molecular orbitals - initial
      -------------------------------------------------
 
  Numbering of irreducible representations: 
 
     1 a1'         2 a1"         3 a2'         4 a2"         5 e'      
     6 e"      
 
  Orbital symmetries:
 
     1 a1'         2 e'          3 e'          4 a1'         5 a2"     
     6 e'          7 e'          8 a1'         9 e'         10 e'      
    11 e'      
 
   Time after variat. SCF:      0.5
   Time prior to 1st pass:      0.5

 #quartets = 1.275D+04 #integrals = 2.125D+05 #direct =  0.0% #cached =100.0%


 Integral file          = ./H2+.xyz.aoints.00
 Record size in doubles =    65536    No. of integs per rec  =    43688
 Max. records in memory =        2    Max. records in file   =  8902888
 No. of bits per label  =        8    No. of bits per value  =       64


File balance: exchanges=     0  moved=     0  time=   0.0


 Grid_pts file          = ./H2+.xyz.gridpts.00
 Record size in doubles =  12289        No. of grid_pts per rec  =   3070
 Max. records in memory =      2        Max. recs in file   =  47468979


           Memory utilization after 1st SCF pass: 
           Heap Space remaining (MW):       12.95            12948630
          Stack Space remaining (MW):       13.11            13106756

   convergence    iter        energy       DeltaE   RMS-Dens  Diis-err    time
 ---------------- ----- ----------------- --------- --------- ---------  ------
 d= 0,ls=0.0,diis     1     -1.3464127715 -3.21D+00  1.32D-03  3.77D-02     1.7
 d= 0,ls=0.0,diis     2     -1.3527468320 -6.33D-03  1.20D-04  8.25D-04     1.8
 d= 0,ls=0.0,diis     3     -1.3528387996 -9.20D-05  2.23D-05  2.92D-05     1.9
 d= 0,ls=0.0,diis     4     -1.3528402483 -1.45D-06  3.34D-06  1.11D-06     2.0
 d= 0,ls=0.0,diis     5     -1.3528402806 -3.23D-08  5.61D-08  2.30D-10     2.1


         Total DFT energy =       -1.352840280596
      One electron energy =       -3.881560370215
           Coulomb energy =        1.435166631841
          Exchange energy =       -0.727213280214
       Correlation energy =       -0.044532743524
 Nuclear repulsion energy =        1.865299481516

 Numeric. integr. density =        1.999999647414

     Total iterative time =      1.5s


 
                  Occupations of the irreducible representations
                  ----------------------------------------------
 
                     irrep           alpha         beta
                     --------     --------     --------
                     a1'               1.0          1.0
                     a1"               0.0          0.0
                     a2'               0.0          0.0
                     a2"               0.0          0.0
                     e'                0.0          0.0
                     e"                0.0          0.0
 
 
                       DFT Final Molecular Orbital Analysis
                       ------------------------------------
 
 Vector    1  Occ=2.000000D+00  E=-1.009802D+00  Symmetry=a1'
              MO Center= -1.7D-17, -3.4D-17, -3.0D-35, r^2= 5.6D-01
   Bfn.  Coefficient  Atom+Function         Bfn.  Coefficient  Atom+Function  
  ----- ------------  ---------------      ----- ------------  ---------------
     2      0.200428  1 H  s                 21      0.200428  2 H  s          
    40      0.200428  3 H  s                  1      0.187181  1 H  s          
    20      0.187181  2 H  s                 39      0.187181  3 H  s          
     3      0.029191  1 H  s                 22      0.029191  2 H  s          
    41      0.029191  3 H  s                 27      0.027401  2 H  px         
 
 Vector    2  Occ=0.000000D+00  E=-3.101478D-01  Symmetry=e'
              MO Center= -1.3D-01, -6.3D-02,  3.2D-17, r^2= 2.1D+00
   Bfn.  Coefficient  Atom+Function         Bfn.  Coefficient  Atom+Function  
  ----- ------------  ---------------      ----- ------------  ---------------
    22      0.732388  2 H  s                 41     -0.601916  3 H  s          
    23      0.350882  2 H  s                 21      0.300802  2 H  s          
    42     -0.288374  3 H  s                 40     -0.247215  3 H  s          
     3     -0.130471  1 H  s                 20      0.130659  2 H  s          
    39     -0.107383  3 H  s                 11     -0.093324  1 H  px         
 
 Vector    3  Occ=0.000000D+00  E=-3.101478D-01  Symmetry=e'
              MO Center=  1.3D-01,  6.3D-02,  1.0D-17, r^2= 2.1D+00
   Bfn.  Coefficient  Atom+Function         Bfn.  Coefficient  Atom+Function  
  ----- ------------  ---------------      ----- ------------  ---------------
     3      0.770361  1 H  s                 41     -0.498172  3 H  s          
     4      0.369074  1 H  s                  2      0.316398  1 H  s          
    22     -0.272189  2 H  s                 42     -0.238671  3 H  s          
    40     -0.204606  3 H  s                  1      0.137434  1 H  s          
    23     -0.130404  2 H  s                 21     -0.111792  2 H  s          
 
 Vector    4  Occ=0.000000D+00  E=-1.831042D-01  Symmetry=a1'
              MO Center=  1.6D-15, -1.1D-15, -7.7D-31, r^2= 6.3D+00
   Bfn.  Coefficient  Atom+Function         Bfn.  Coefficient  Atom+Function  
  ----- ------------  ---------------      ----- ------------  ---------------
     4      0.328878  1 H  s                 23      0.328878  2 H  s          
    42      0.328878  3 H  s                  2     -0.133320  1 H  s          
    21     -0.133320  2 H  s                 40     -0.133320  3 H  s          
     1     -0.064916  1 H  s                 20     -0.064916  2 H  s          
    39     -0.064916  3 H  s                  3      0.062746  1 H  s          
 
 Vector    5  Occ=0.000000D+00  E=-1.451392D-01  Symmetry=a2"
              MO Center=  3.0D-16, -1.5D-16, -1.0D-16, r^2= 2.0D+00
   Bfn.  Coefficient  Atom+Function         Bfn.  Coefficient  Atom+Function  
  ----- ------------  ---------------      ----- ------------  ---------------
    13      0.356027  1 H  pz                32      0.356027  2 H  pz         
    51      0.356027  3 H  pz         
 
 Vector    6  Occ=0.000000D+00  E=-6.861860D-02  Symmetry=e'
              MO Center= -8.5D-02, -2.3D-01,  2.5D-17, r^2= 1.2D+01
   Bfn.  Coefficient  Atom+Function         Bfn.  Coefficient  Atom+Function  
  ----- ------------  ---------------      ----- ------------  ---------------
    42      4.882205  3 H  s                 23     -3.794581  2 H  s          
    41     -1.851985  3 H  s                 22      1.439412  2 H  s          
     4     -1.087624  1 H  s                 40     -0.479181  3 H  s          
     3      0.412573  1 H  s                 21      0.372432  2 H  s          
    50     -0.208284  3 H  py                30      0.154128  2 H  px         
 
 Vector    7  Occ=0.000000D+00  E=-6.861860D-02  Symmetry=e'
              MO Center=  8.5D-02,  2.3D-01,  1.9D-16, r^2= 1.2D+01
   Bfn.  Coefficient  Atom+Function         Bfn.  Coefficient  Atom+Function  
  ----- ------------  ---------------      ----- ------------  ---------------
     4      5.009544  1 H  s                 23     -3.446683  2 H  s          
     3     -1.900289  1 H  s                 42     -1.562862  3 H  s          
    22      1.307443  2 H  s                 41      0.592846  3 H  s          
     2     -0.491679  1 H  s                 21      0.338287  2 H  s          
    11      0.170856  1 H  px                30      0.164062  2 H  px         
 
 Vector    8  Occ=0.000000D+00  E= 4.111864D-02  Symmetry=a1'
              MO Center=  6.1D-15, -2.6D-14, -2.1D-16, r^2= 8.9D+00
   Bfn.  Coefficient  Atom+Function         Bfn.  Coefficient  Atom+Function  
  ----- ------------  ---------------      ----- ------------  ---------------
     3      1.076318  1 H  s                 22      1.076318  2 H  s          
    41      1.076318  3 H  s                  4     -0.666699  1 H  s          
    23     -0.666699  2 H  s                 42     -0.666699  3 H  s          
     2     -0.531171  1 H  s                 21     -0.531171  2 H  s          
    40     -0.531171  3 H  s                 30     -0.158631  2 H  px         
 
 Vector    9  Occ=0.000000D+00  E= 1.052525D-01  Symmetry=e'
              MO Center=  7.2D-03, -1.8D-02,  5.4D-16, r^2= 2.8D+00
   Bfn.  Coefficient  Atom+Function         Bfn.  Coefficient  Atom+Function  
  ----- ------------  ---------------      ----- ------------  ---------------
    22     -1.104114  2 H  s                  3      1.030310  1 H  s          
    49     -0.988734  3 H  px                12      0.734125  1 H  py         
    31     -0.576877  2 H  py                23      0.431087  2 H  s          
     4     -0.402271  1 H  s                 21     -0.381745  2 H  s          
    30      0.365031  2 H  px                 2      0.356228  1 H  s          
 
 Vector   10  Occ=0.000000D+00  E= 1.052525D-01  Symmetry=e'
              MO Center= -7.2D-03,  1.8D-02, -1.5D-31, r^2= 2.8D+00
   Bfn.  Coefficient  Atom+Function         Bfn.  Coefficient  Atom+Function  
  ----- ------------  ---------------      ----- ------------  ---------------
    41      1.232310  3 H  s                 11     -0.829068  1 H  px         
    31      0.828685  2 H  py                 3     -0.680072  1 H  s          
    22     -0.552239  2 H  s                 50     -0.525080  3 H  py         
    30      0.481933  2 H  px                42     -0.481140  3 H  s          
    40      0.426069  3 H  s                 12      0.391876  1 H  py         
 
 Vector   11  Occ=0.000000D+00  E= 1.486381D-01  Symmetry=e"
              MO Center=  2.2D-01, -1.1D-01,  2.3D-16, r^2= 2.7D+00
   Bfn.  Coefficient  Atom+Function         Bfn.  Coefficient  Atom+Function  
  ----- ------------  ---------------      ----- ------------  ---------------
    51      1.629718  3 H  pz                13     -1.444525  1 H  pz         
    32     -0.185193  2 H  pz                48     -0.032511  3 H  pz         
    10      0.028817  1 H  pz         
 
 Vector   12  Occ=0.000000D+00  E= 1.486381D-01  Symmetry=e"
              MO Center= -2.2D-01,  1.1D-01, -2.9D-14, r^2= 2.7D+00
   Bfn.  Coefficient  Atom+Function         Bfn.  Coefficient  Atom+Function  
  ----- ------------  ---------------      ----- ------------  ---------------
    32      1.774915  2 H  pz                13     -1.047840  1 H  pz         
    51     -0.727076  3 H  pz                29     -0.035408  2 H  pz         
 
 Vector   13  Occ=0.000000D+00  E= 1.644103D-01  Symmetry=e'
              MO Center= -2.2D-01, -5.3D-02,  2.6D-14, r^2= 8.7D+00
   Bfn.  Coefficient  Atom+Function         Bfn.  Coefficient  Atom+Function  
  ----- ------------  ---------------      ----- ------------  ---------------
    22      9.916966  2 H  s                 41     -7.161956  3 H  s          
    23     -5.144659  2 H  s                 42      3.715433  3 H  s          
     3     -2.755010  1 H  s                 30      1.979153  2 H  px         
     4      1.429226  1 H  s                 50     -1.332071  3 H  py         
    11      0.889921  1 H  px                21      0.883217  2 H  s          
 
 Vector   14  Occ=0.000000D+00  E= 1.644103D-01  Symmetry=e'
              MO Center=  2.2D-01,  5.3D-02,  2.2D-15, r^2= 8.7D+00
   Bfn.  Coefficient  Atom+Function         Bfn.  Coefficient  Atom+Function  
  ----- ------------  ---------------      ----- ------------  ---------------
     3      9.860520  1 H  s                 41     -7.316168  3 H  s          
     4     -5.115376  1 H  s                 42      3.795434  3 H  s          
    22     -2.544352  2 H  s                 50     -1.620569  3 H  py         
    12     -1.607089  1 H  py                11     -1.339853  1 H  px         
    23      1.319942  2 H  s                  2      0.878190  1 H  s          
 
 Vector   15  Occ=0.000000D+00  E= 2.034284D-01  Symmetry=a1'
              MO Center=  8.7D-15, -1.8D-14,  3.2D-16, r^2= 2.7D+00
   Bfn.  Coefficient  Atom+Function         Bfn.  Coefficient  Atom+Function  
  ----- ------------  ---------------      ----- ------------  ---------------
     2      1.277045  1 H  s                 21      1.277045  2 H  s          
    40      1.277045  3 H  s                 30     -1.246970  2 H  px         
    50     -1.246970  3 H  py                11      0.912845  1 H  px         
    12      0.912845  1 H  py                 3     -0.662328  1 H  s          
    22     -0.662328  2 H  s                 41     -0.662328  3 H  s          
 
 Vector   16  Occ=0.000000D+00  E= 3.860184D-01  Symmetry=a2'
              MO Center= -1.7D-15, -7.0D-15, -7.1D-18, r^2= 3.6D+00
   Bfn.  Coefficient  Atom+Function         Bfn.  Coefficient  Atom+Function  
  ----- ------------  ---------------      ----- ------------  ---------------
    31      3.595239  2 H  py                49     -3.595239  3 H  px         
    11      2.631898  1 H  px                12     -2.631898  1 H  py         
    30      0.963341  2 H  px                50     -0.963341  3 H  py         
    28     -0.098760  2 H  py                46      0.098760  3 H  px         
     8     -0.072297  1 H  px                 9      0.072297  1 H  py         
 
 Vector   17  Occ=0.000000D+00  E= 6.488514D-01  Symmetry=e'
              MO Center= -1.4D-01, -2.6D-01, -1.3D-18, r^2= 4.8D+00
   Bfn.  Coefficient  Atom+Function         Bfn.  Coefficient  Atom+Function  
  ----- ------------  ---------------      ----- ------------  ---------------
    41     11.973803  3 H  s                 22     -9.992309  2 H  s          
    40      6.430661  3 H  s                 21     -5.366478  2 H  s          
    50      4.465368  3 H  py                30     -3.576026  2 H  px         
    42     -2.986976  3 H  s                 23      2.492674  2 H  s          
    31      2.112886  2 H  py                 3     -1.981494  1 H  s          
 
 Vector   18  Occ=0.000000D+00  E= 6.488514D-01  Symmetry=e'
              MO Center=  1.4D-01,  2.6D-01, -9.2D-18, r^2= 4.8D+00
   Bfn.  Coefficient  Atom+Function         Bfn.  Coefficient  Atom+Function  
  ----- ------------  ---------------      ----- ------------  ---------------
     3     12.682141  1 H  s                 22     -8.057095  2 H  s          
     2      6.811081  1 H  s                 41     -4.625046  3 H  s          
    21     -4.327150  2 H  s                 11     -3.784696  1 H  px         
    30     -3.474231  2 H  px                12     -3.396779  1 H  py         
     4     -3.163677  1 H  s                 40     -2.483931  3 H  s          
 
 Vector   19  Occ=0.000000D+00  E= 9.982438D-01  Symmetry=a1'
              MO Center=  1.7D-14, -6.9D-15,  6.6D-18, r^2= 3.0D+00
   Bfn.  Coefficient  Atom+Function         Bfn.  Coefficient  Atom+Function  
  ----- ------------  ---------------      ----- ------------  ---------------
     2      1.716018  1 H  s                 21      1.716018  2 H  s          
    40      1.716018  3 H  s                  3     -0.964097  1 H  s          
    22     -0.964097  2 H  s                 41     -0.964097  3 H  s          
     1     -0.629738  1 H  s                 20     -0.629738  2 H  s          
    39     -0.629738  3 H  s                 19     -0.342625  1 H  dzz        
 
 Vector   20  Occ=0.000000D+00  E= 1.107580D+00  Symmetry=a2"
              MO Center= -8.0D-17,  2.4D-18,  2.1D-31, r^2= 1.3D+00
   Bfn.  Coefficient  Atom+Function         Bfn.  Coefficient  Atom+Function  
  ----- ------------  ---------------      ----- ------------  ---------------
    10      0.633097  1 H  pz                29      0.633097  2 H  pz         
    48      0.633097  3 H  pz                13     -0.322009  1 H  pz         
    32     -0.322009  2 H  pz                51     -0.322009  3 H  pz         
    35     -0.128876  2 H  dxz               56     -0.128876  3 H  dyz        
    16      0.094344  1 H  dxz               18      0.094344  1 H  dyz        
 
 Vector   21  Occ=0.000000D+00  E= 1.350841D+00  Symmetry=e'
              MO Center=  1.5D-01,  1.8D-02,  1.1D-18, r^2= 1.4D+00
   Bfn.  Coefficient  Atom+Function         Bfn.  Coefficient  Atom+Function  
  ----- ------------  ---------------      ----- ------------  ---------------
    21      1.008236  2 H  s                 30      0.744509  2 H  px         
    40     -0.672508  3 H  s                 46      0.668487  3 H  px         
     9     -0.639415  1 H  py                 8      0.606601  1 H  px         
    50     -0.592691  3 H  py                12      0.568644  1 H  py         
     2     -0.335729  1 H  s                 49     -0.302701  3 H  px         
 
 Vector   22  Occ=0.000000D+00  E= 1.350841D+00  Symmetry=e'
              MO Center= -1.5D-01, -1.8D-02, -4.1D-17, r^2= 1.4D+00
   Bfn.  Coefficient  Atom+Function         Bfn.  Coefficient  Atom+Function  
  ----- ------------  ---------------      ----- ------------  ---------------
     2      0.970378  1 H  s                 28     -0.887725  2 H  py         
    40     -0.775939  3 H  s                 11     -0.640570  1 H  px         
    46     -0.603685  3 H  px                31      0.596485  2 H  py         
    49      0.520765  3 H  px                50     -0.450725  3 H  py         
    12     -0.367796  1 H  py                 8      0.262969  1 H  px         
 
 Vector   23  Occ=0.000000D+00  E= 1.602851D+00  Symmetry=e"
              MO Center= -2.2D-01, -1.6D-02, -2.5D-16, r^2= 1.2D+00
   Bfn.  Coefficient  Atom+Function         Bfn.  Coefficient  Atom+Function  
  ----- ------------  ---------------      ----- ------------  ---------------
    29      1.103073  2 H  pz                32     -1.026811  2 H  pz         
    48     -0.711526  3 H  pz                51      0.662333  3 H  pz         
    10     -0.391548  1 H  pz                13      0.364478  1 H  pz         
    35     -0.201430  2 H  dxz               16     -0.169447  1 H  dxz        
    54     -0.165687  3 H  dxz               56      0.100003  3 H  dyz        
 
 Vector   24  Occ=0.000000D+00  E= 1.602851D+00  Symmetry=e"
              MO Center=  2.2D-01,  1.6D-02, -1.1D-16, r^2= 1.2D+00
   Bfn.  Coefficient  Atom+Function         Bfn.  Coefficient  Atom+Function  
  ----- ------------  ---------------      ----- ------------  ---------------
    10      1.047659  1 H  pz                13     -0.975228  1 H  pz         
    48     -0.862920  3 H  pz                51      0.803261  3 H  pz         
    56      0.192022  3 H  dyz               18      0.188262  1 H  dyz        
    29     -0.184739  2 H  pz                32      0.171967  2 H  pz         
    37      0.156279  2 H  dyz               16      0.102173  1 H  dxz        
 
 Vector   25  Occ=0.000000D+00  E= 1.660128D+00  Symmetry=e'
              MO Center= -3.8D-02,  2.3D-01,  2.5D-16, r^2= 2.0D+00
   Bfn.  Coefficient  Atom+Function         Bfn.  Coefficient  Atom+Function  
  ----- ------------  ---------------      ----- ------------  ---------------
     2     10.456846  1 H  s                 21     -9.893348  2 H  s          
     3      5.271289  1 H  s                 22     -4.987231  2 H  s          
    30     -3.304051  2 H  px                27     -3.060621  2 H  px         
    11     -2.845078  1 H  px                 8     -2.644563  1 H  px         
    12     -1.977784  1 H  py                 9     -1.813822  1 H  py         
 
 Vector   26  Occ=0.000000D+00  E= 1.660128D+00  Symmetry=e'
              MO Center=  3.8D-02, -2.3D-01, -2.1D-16, r^2= 2.0D+00
   Bfn.  Coefficient  Atom+Function         Bfn.  Coefficient  Atom+Function  
  ----- ------------  ---------------      ----- ------------  ---------------
    40     11.749190  3 H  s                 21     -6.362598  2 H  s          
    41      5.922759  3 H  s                  2     -5.386591  1 H  s          
    50      3.684581  3 H  py                47      3.405572  3 H  py         
    22     -3.207382  2 H  s                  3     -2.715377  1 H  s          
    12      2.084018  1 H  py                 9      1.954663  1 H  py         
 
 Vector   27  Occ=0.000000D+00  E= 1.771321D+00  Symmetry=a1'
              MO Center= -3.3D-15,  5.3D-14,  4.4D-19, r^2= 1.7D+00
   Bfn.  Coefficient  Atom+Function         Bfn.  Coefficient  Atom+Function  
  ----- ------------  ---------------      ----- ------------  ---------------
     2      2.110937  1 H  s                 21      2.110937  2 H  s          
    40      2.110937  3 H  s                  3     -0.767318  1 H  s          
    22     -0.767318  2 H  s                 41     -0.767318  3 H  s          
     1     -0.726043  1 H  s                 20     -0.726043  2 H  s          
    39     -0.726043  3 H  s                 30     -0.675424  2 H  px         
 
 Vector   28  Occ=0.000000D+00  E= 2.140524D+00  Symmetry=a2'
              MO Center= -6.1D-16, -1.5D-15,  3.9D-18, r^2= 1.3D+00
   Bfn.  Coefficient  Atom+Function         Bfn.  Coefficient  Atom+Function  
  ----- ------------  ---------------      ----- ------------  ---------------
    31      1.553513  2 H  py                49     -1.553513  3 H  px         
    28     -1.276805  2 H  py                46      1.276805  3 H  px         
    11      1.137251  1 H  px                12     -1.137251  1 H  py         
     8     -0.934686  1 H  px                 9      0.934686  1 H  py         
    30      0.416263  2 H  px                50     -0.416263  3 H  py         
 
 Vector   29  Occ=0.000000D+00  E= 2.476599D+00  Symmetry=a1'
              MO Center= -6.2D-17,  1.5D-16, -1.0D-17, r^2= 7.9D-01
   Bfn.  Coefficient  Atom+Function         Bfn.  Coefficient  Atom+Function  
  ----- ------------  ---------------      ----- ------------  ---------------
    15      0.578959  1 H  dxy               19      0.413257  1 H  dzz        
    38      0.413257  2 H  dzz               57      0.413257  3 H  dzz        
     2     -0.359974  1 H  s                 21     -0.359974  2 H  s          
    40     -0.359974  3 H  s                 36     -0.296118  2 H  dyy        
    52     -0.296118  3 H  dxx               34     -0.289480  2 H  dxy        
 
 Vector   30  Occ=0.000000D+00  E= 2.581767D+00  Symmetry=e'
              MO Center= -2.1D-01,  9.6D-02,  7.6D-17, r^2= 1.3D+00
   Bfn.  Coefficient  Atom+Function         Bfn.  Coefficient  Atom+Function  
  ----- ------------  ---------------      ----- ------------  ---------------
    22      4.356618  2 H  s                  3     -2.502169  1 H  s          
    41     -1.854449  3 H  s                 21      1.794325  2 H  s          
    30      1.723278  2 H  px                23     -1.139242  2 H  s          
    11      1.082947  1 H  px                 2     -1.030548  1 H  s          
    27     -0.888803  2 H  px                40     -0.763777  3 H  s          
 
 Vector   31  Occ=0.000000D+00  E= 2.581767D+00  Symmetry=e'
              MO Center=  2.1D-01, -9.6D-02, -1.9D-17, r^2= 1.3D+00
   Bfn.  Coefficient  Atom+Function         Bfn.  Coefficient  Atom+Function  
  ----- ------------  ---------------      ----- ------------  ---------------
    41      3.959922  3 H  s                  3     -3.585961  1 H  s          
    40      1.630941  3 H  s                 50      1.622674  3 H  py         
     2     -1.476921  1 H  s                 12      1.284156  1 H  py         
    42     -1.035507  3 H  s                  4      0.937717  1 H  s          
    47     -0.844225  3 H  py                11      0.775832  1 H  px         
 
 Vector   32  Occ=0.000000D+00  E= 2.686480D+00  Symmetry=e"
              MO Center=  9.5D-02,  1.1D-01,  5.0D-17, r^2= 7.6D-01
   Bfn.  Coefficient  Atom+Function         Bfn.  Coefficient  Atom+Function  
  ----- ------------  ---------------      ----- ------------  ---------------
    16      0.897645  1 H  dxz               18     -0.885020  1 H  dyz        
    37     -0.580867  2 H  dyz               54      0.511276  3 H  dxz        
    35     -0.401902  2 H  dxz               56      0.392497  3 H  dyz        
    48     -0.374221  3 H  pz                29      0.360685  2 H  pz         
 
 Vector   33  Occ=0.000000D+00  E= 2.686480D+00  Symmetry=e"
              MO Center= -9.5D-02, -1.1D-01,  3.9D-17, r^2= 7.6D-01
   Bfn.  Coefficient  Atom+Function         Bfn.  Coefficient  Atom+Function  
  ----- ------------  ---------------      ----- ------------  ---------------
    54      1.108091  3 H  dxz               37      1.073248  2 H  dyz        
    10     -0.424299  1 H  pz                18     -0.226299  1 H  dyz        
    29      0.223872  2 H  pz                48      0.200426  3 H  pz         
    16     -0.169427  1 H  dxz               56      0.160070  3 H  dyz        
    35      0.134727  2 H  dxz        
 
 Vector   34  Occ=0.000000D+00  E= 3.443025D+00  Symmetry=a2"
              MO Center= -8.7D-17, -7.1D-17,  9.3D-32, r^2= 7.1D-01
   Bfn.  Coefficient  Atom+Function         Bfn.  Coefficient  Atom+Function  
  ----- ------------  ---------------      ----- ------------  ---------------
    35      0.809994  2 H  dxz               56      0.809994  3 H  dyz        
    16     -0.592957  1 H  dxz               18     -0.592957  1 H  dyz        
    37     -0.217037  2 H  dyz               54     -0.217037  3 H  dxz        
    10     -0.188575  1 H  pz                29     -0.188575  2 H  pz         
    48     -0.188575  3 H  pz                13      0.056730  1 H  pz         
 
 Vector   35  Occ=0.000000D+00  E= 3.525235D+00  Symmetry=e'
              MO Center= -3.4D-02,  2.2D-01,  6.2D-17, r^2= 8.8D-01
   Bfn.  Coefficient  Atom+Function         Bfn.  Coefficient  Atom+Function  
  ----- ------------  ---------------      ----- ------------  ---------------
     2      2.023023  1 H  s                 21     -1.899909  2 H  s          
    15     -1.213321  1 H  dxy               36     -0.878979  2 H  dyy        
    46     -0.756023  3 H  px                 8     -0.719205  1 H  px         
    27     -0.709016  2 H  px                19     -0.702362  1 H  dzz        
     3      0.663972  1 H  s                 38      0.659619  2 H  dzz        
 
 Vector   36  Occ=0.000000D+00  E= 3.525235D+00  Symmetry=e'
              MO Center=  3.4D-02, -2.2D-01,  1.7D-17, r^2= 8.8D-01
   Bfn.  Coefficient  Atom+Function         Bfn.  Coefficient  Atom+Function  
  ----- ------------  ---------------      ----- ------------  ---------------
    40      2.264906  3 H  s                 21     -1.239072  2 H  s          
     2     -1.025834  1 H  s                 52      1.009458  3 H  dxx        
    57     -0.786340  3 H  dzz               28      0.747146  2 H  py         
    41      0.743360  3 H  s                  9      0.736958  1 H  py         
    47      0.700139  3 H  py                53      0.689426  3 H  dxy        
 
 Vector   37  Occ=0.000000D+00  E= 3.530014D+00  Symmetry=a1'
              MO Center= -1.3D-13, -3.8D-14,  1.1D-18, r^2= 1.5D+00
   Bfn.  Coefficient  Atom+Function         Bfn.  Coefficient  Atom+Function  
  ----- ------------  ---------------      ----- ------------  ---------------
     2      2.195484  1 H  s                 21      2.195484  2 H  s          
    40      2.195484  3 H  s                 19     -1.126772  1 H  dzz        
    38     -1.126772  2 H  dzz               57     -1.126772  3 H  dzz        
    36     -0.796467  2 H  dyy               52     -0.796467  3 H  dxx        
     3     -0.677852  1 H  s                 22     -0.677852  2 H  s          
 
 Vector   38  Occ=0.000000D+00  E= 3.797838D+00  Symmetry=a1"
              MO Center=  1.8D-16, -2.6D-17,  3.2D-18, r^2= 9.0D-01
   Bfn.  Coefficient  Atom+Function         Bfn.  Coefficient  Atom+Function  
  ----- ------------  ---------------      ----- ------------  ---------------
    37      1.586219  2 H  dyz               54     -1.586219  3 H  dxz        
    16      1.161193  1 H  dxz               18     -1.161193  1 H  dyz        
    35      0.425026  2 H  dxz               56     -0.425026  3 H  dyz        
 
 Vector   39  Occ=0.000000D+00  E= 4.433520D+00  Symmetry=e"
              MO Center= -1.5D-01, -5.1D-02,  2.7D-17, r^2= 8.2D-01
   Bfn.  Coefficient  Atom+Function         Bfn.  Coefficient  Atom+Function  
  ----- ------------  ---------------      ----- ------------  ---------------
    35      2.578689  2 H  dxz               56     -1.828750  3 H  dyz        
    29      1.462605  2 H  pz                54      1.269928  3 H  dxz        
    16      1.222992  1 H  dxz               48     -1.112465  3 H  pz         
    37     -1.018940  2 H  dyz               10     -0.350141  1 H  pz         
    18     -0.290425  1 H  dyz               32      0.127321  2 H  pz         
 
 Vector   40  Occ=0.000000D+00  E= 4.433520D+00  Symmetry=e"
              MO Center=  1.5D-01,  5.1D-02, -6.0D-17, r^2= 8.2D-01
   Bfn.  Coefficient  Atom+Function         Bfn.  Coefficient  Atom+Function  
  ----- ------------  ---------------      ----- ------------  ---------------
    18      2.158080  1 H  dyz               56      2.111144  3 H  dyz        
    16      1.801651  1 H  dxz               10     -1.486717  1 H  pz         
    35      1.073137  2 H  dxz               48      1.046589  3 H  pz         
    37      0.802384  2 H  dyz               29      0.440128  2 H  pz         
    54      0.263327  3 H  dxz               13     -0.129420  1 H  pz         
 
 Vector   41  Occ=0.000000D+00  E= 4.465591D+00  Symmetry=e'
              MO Center= -7.1D-02,  1.6D-01, -2.1D-16, r^2= 1.0D+00
   Bfn.  Coefficient  Atom+Function         Bfn.  Coefficient  Atom+Function  
  ----- ------------  ---------------      ----- ------------  ---------------
    21     -7.206012  2 H  s                  2      6.609390  1 H  s          
    22     -3.001345  2 H  s                  3      2.752848  1 H  s          
    30     -1.986015  2 H  px                11     -1.613123  1 H  px         
    27     -1.319513  2 H  px                38      1.298640  2 H  dzz        
    19     -1.191119  1 H  dzz                8     -1.030814  1 H  px         
 
 Vector   42  Occ=0.000000D+00  E= 4.465591D+00  Symmetry=e'
              MO Center=  7.1D-02, -1.6D-01,  1.9D-16, r^2= 1.0D+00
   Bfn.  Coefficient  Atom+Function         Bfn.  Coefficient  Atom+Function  
  ----- ------------  ---------------      ----- ------------  ---------------
    40      7.976326  3 H  s                  2     -4.504853  1 H  s          
    21     -3.471473  2 H  s                 41      3.322185  3 H  s          
    50      2.107337  3 H  py                 3     -1.876297  1 H  s          
    22     -1.445888  2 H  s                 57     -1.437463  3 H  dzz        
    47      1.413443  3 H  py                12      1.370478  1 H  py         
 
 Vector   43  Occ=0.000000D+00  E= 5.066824D+00  Symmetry=a1'
              MO Center=  2.1D-15, -4.5D-15,  4.0D-19, r^2= 6.9D-01
   Bfn.  Coefficient  Atom+Function         Bfn.  Coefficient  Atom+Function  
  ----- ------------  ---------------      ----- ------------  ---------------
     2      0.924640  1 H  s                 21      0.924640  2 H  s          
    40      0.924640  3 H  s                 33     -0.759226  2 H  dxx        
    55     -0.759226  3 H  dyy               14     -0.603492  1 H  dxx        
    17     -0.603492  1 H  dyy                1      0.527130  1 H  s          
    20      0.527130  2 H  s                 39      0.527130  3 H  s          
 
 Vector   44  Occ=0.000000D+00  E= 5.071433D+00  Symmetry=e'
              MO Center= -7.4D-05,  1.7D-03, -1.4D-17, r^2= 8.1D-01
   Bfn.  Coefficient  Atom+Function         Bfn.  Coefficient  Atom+Function  
  ----- ------------  ---------------      ----- ------------  ---------------
    40      3.181354  3 H  s                 21     -1.892405  2 H  s          
    47      1.726541  3 H  py                 2     -1.288948  1 H  s          
    55      1.151612  3 H  dyy               41      1.038665  3 H  s          
    27     -1.023227  2 H  px                53     -1.004458  3 H  dxy        
    15     -0.906578  1 H  dxy               33     -0.909905  2 H  dxx        
 
 Vector   45  Occ=0.000000D+00  E= 5.071433D+00  Symmetry=e'
              MO Center=  7.4D-05, -1.7D-03, -7.3D-18, r^2= 8.1D-01
   Bfn.  Coefficient  Atom+Function         Bfn.  Coefficient  Atom+Function  
  ----- ------------  ---------------      ----- ------------  ---------------
     2      2.929336  1 H  s                 21     -2.580930  2 H  s          
    15      2.060341  1 H  dxy               34      1.528696  2 H  dxy        
    27     -1.404164  2 H  px                 8     -1.169796  1 H  px         
    53      1.166584  3 H  dxy                9     -1.158539  1 H  py         
     3      0.956385  1 H  s                 22     -0.842635  2 H  s          
 
 Vector   46  Occ=0.000000D+00  E= 5.778907D+00  Symmetry=a2'
              MO Center= -3.4D-15,  9.1D-15,  1.5D-30, r^2= 1.1D+00
   Bfn.  Coefficient  Atom+Function         Bfn.  Coefficient  Atom+Function  
  ----- ------------  ---------------      ----- ------------  ---------------
    28      5.775467  2 H  py                46     -5.775467  3 H  px         
    34      5.100458  2 H  dxy               53     -5.100458  3 H  dxy        
     8      4.227935  1 H  px                 9     -4.227935  1 H  py         
    14     -2.944751  1 H  dxx               17      2.944751  1 H  dyy        
    27      1.547532  2 H  px                47     -1.547532  3 H  py         
 
 Vector   47  Occ=0.000000D+00  E= 8.393118D+00  Symmetry=a2"
              MO Center=  2.3D-15, -4.4D-15,  8.2D-20, r^2= 4.9D-01
   Bfn.  Coefficient  Atom+Function         Bfn.  Coefficient  Atom+Function  
  ----- ------------  ---------------      ----- ------------  ---------------
     7      0.735695  1 H  pz                26      0.735695  2 H  pz         
    45      0.735695  3 H  pz                10     -0.406075  1 H  pz         
    29     -0.406075  2 H  pz                48     -0.406075  3 H  pz         
    13      0.111704  1 H  pz                32      0.111704  2 H  pz         
    51      0.111704  3 H  pz         
 
 Vector   48  Occ=0.000000D+00  E= 8.563009D+00  Symmetry=e"
              MO Center=  5.1D-02, -2.4D-01, -2.0D-17, r^2= 4.5D-01
   Bfn.  Coefficient  Atom+Function         Bfn.  Coefficient  Atom+Function  
  ----- ------------  ---------------      ----- ------------  ---------------
    45      1.062028  3 H  pz                48     -1.037088  3 H  pz         
    26     -0.555859  2 H  pz                29      0.542806  2 H  pz         
     7     -0.506169  1 H  pz                10      0.494282  1 H  pz         
    51      0.381273  3 H  pz                56     -0.377366  3 H  dyz        
    18     -0.265507  1 H  dyz               37     -0.229660  2 H  dyz        
 
 Vector   49  Occ=0.000000D+00  E= 8.563009D+00  Symmetry=e"
              MO Center= -5.1D-02,  2.4D-01,  2.8D-17, r^2= 4.5D-01
   Bfn.  Coefficient  Atom+Function         Bfn.  Coefficient  Atom+Function  
  ----- ------------  ---------------      ----- ------------  ---------------
     7      0.934088  1 H  pz                10     -0.912152  1 H  pz         
    26     -0.905399  2 H  pz                29      0.884137  2 H  pz         
    35      0.352029  2 H  dxz               13      0.335342  1 H  pz         
    32     -0.325042  2 H  pz                16      0.316182  1 H  dxz        
    54      0.204323  3 H  dxz               18      0.171692  1 H  dyz        
 
 Vector   50  Occ=0.000000D+00  E= 8.831006D+00  Symmetry=e'
              MO Center= -1.9D-01, -1.1D-01,  4.9D-18, r^2= 4.9D-01
   Bfn.  Coefficient  Atom+Function         Bfn.  Coefficient  Atom+Function  
  ----- ------------  ---------------      ----- ------------  ---------------
    28     -1.024251  2 H  py                25      0.995090  2 H  py         
    43      0.881577  3 H  px                46     -0.834843  3 H  px         
     1      0.819823  1 H  s                 34     -0.811017  2 H  dxy        
    47     -0.758606  3 H  py                53     -0.744287  3 H  dxy        
     9     -0.710485  1 H  py                27     -0.625907  2 H  px         
 
 Vector   51  Occ=0.000000D+00  E= 8.831006D+00  Symmetry=e'
              MO Center=  1.9D-01,  1.1D-01, -2.7D-17, r^2= 4.9D-01
   Bfn.  Coefficient  Atom+Function         Bfn.  Coefficient  Atom+Function  
  ----- ------------  ---------------      ----- ------------  ---------------
     8      0.951743  1 H  px                46      0.903622  3 H  px         
     9     -0.807060  1 H  py                 6      0.787611  1 H  py         
    20      0.758969  2 H  s                  5     -0.749857  1 H  px         
    28     -0.681473  2 H  py                39     -0.661006  3 H  s          
    36      0.641538  2 H  dyy               27      0.637977  2 H  px         
 
 Vector   52  Occ=0.000000D+00  E= 8.885832D+00  Symmetry=a2'
              MO Center=  4.9D-14,  6.2D-14,  2.8D-30, r^2= 5.2D-01
   Bfn.  Coefficient  Atom+Function         Bfn.  Coefficient  Atom+Function  
  ----- ------------  ---------------      ----- ------------  ---------------
    28      1.007606  2 H  py                46     -1.007606  3 H  px         
     8      0.737619  1 H  px                 9     -0.737619  1 H  py         
    25     -0.725459  2 H  py                43      0.725459  3 H  px         
    31     -0.645364  2 H  py                49      0.645364  3 H  px         
     5     -0.531073  1 H  px                 6      0.531073  1 H  py         
 
 Vector   53  Occ=0.000000D+00  E= 1.085041D+01  Symmetry=e'
              MO Center=  1.9D-01,  4.5D-02,  7.5D-18, r^2= 4.6D-01
   Bfn.  Coefficient  Atom+Function         Bfn.  Coefficient  Atom+Function  
  ----- ------------  ---------------      ----- ------------  ---------------
    47      2.805964  3 H  py                 9      2.775804  1 H  py         
     1     -2.543545  1 H  s                 55      2.326164  3 H  dyy        
     8      2.310495  1 H  px                17     -2.318701  1 H  dyy        
    14     -1.918122  1 H  dxx               39      1.894648  3 H  s          
    15     -1.523987  1 H  dxy               27      1.189660  2 H  px         
 
 Vector   54  Occ=0.000000D+00  E= 1.085041D+01  Symmetry=e'
              MO Center= -1.9D-01, -4.5D-02, -2.0D-17, r^2= 4.6D-01
   Bfn.  Coefficient  Atom+Function         Bfn.  Coefficient  Atom+Function  
  ----- ------------  ---------------      ----- ------------  ---------------
    27      3.422918  2 H  px                33      2.708553  2 H  dxx        
    20      2.562392  2 H  s                 47     -2.293081  3 H  py         
    39     -1.843158  3 H  s                 55     -1.749476  3 H  dyy        
    36      1.559664  2 H  dyy                8      1.541896  1 H  px         
    46      1.511736  3 H  px                53      1.466027  3 H  dxy        
 
 Vector   55  Occ=0.000000D+00  E= 1.172276D+01  Symmetry=a1'
              MO Center= -2.9D-15, -5.5D-15,  4.4D-20, r^2= 4.6D-01
   Bfn.  Coefficient  Atom+Function         Bfn.  Coefficient  Atom+Function  
  ----- ------------  ---------------      ----- ------------  ---------------
     1      0.983328  1 H  s                 20      0.983328  2 H  s          
    39      0.983328  3 H  s                 24      0.882650  2 H  px         
    44      0.882650  3 H  py                27     -0.735290  2 H  px         
    47     -0.735290  3 H  py                 5     -0.646145  1 H  px         
     6     -0.646145  1 H  py                 8      0.538270  1 H  px         
 
 Vector   56  Occ=0.000000D+00  E= 1.258206D+01  Symmetry=e'
              MO Center= -1.3D-01,  1.4D-01, -3.4D-18, r^2= 8.8D-01
   Bfn.  Coefficient  Atom+Function         Bfn.  Coefficient  Atom+Function  
  ----- ------------  ---------------      ----- ------------  ---------------
    27     10.184320  2 H  px                 8      7.188691  1 H  px         
    33      6.429450  2 H  dxx               20      5.517490  2 H  s          
    14     -4.704047  1 H  dxx                1     -4.209625  1 H  s          
     9      3.902061  1 H  py                46      3.829790  3 H  px         
    22     -3.271983  2 H  s                 36      3.255956  2 H  dyy        
 
 Vector   57  Occ=0.000000D+00  E= 1.258206D+01  Symmetry=e'
              MO Center=  1.3D-01, -1.4D-01, -2.8D-18, r^2= 8.8D-01
   Bfn.  Coefficient  Atom+Function         Bfn.  Coefficient  Atom+Function  
  ----- ------------  ---------------      ----- ------------  ---------------
    47     10.305411  3 H  py                 9      6.946509  1 H  py         
    55      6.493301  3 H  dyy               39      5.615953  3 H  s          
    17     -4.536838  1 H  dyy                1     -3.940621  1 H  s          
    28      3.950880  2 H  py                 8      3.435519  1 H  px         
    52      3.364946  3 H  dxx               41     -3.330373  3 H  s          
 

 center of mass
 --------------
 x =  -0.00000000 y =  -0.00000000 z =   0.00000000

 moments of inertia (a.u.)
 ------------------
           1.303468384825           0.000000000000           0.000000000000
           0.000000000000           1.303468384825           0.000000000000
           0.000000000000           0.000000000000           2.606936769650
 
     Multipole analysis of the density
     ---------------------------------
 
     L   x y z        total         alpha         beta         nuclear
     -   - - -        -----         -----         ----         -------
     0   0 0 0      1.000000     -1.000000     -1.000000      3.000000
 
     1   1 0 0     -0.000000      0.000000      0.000000     -0.000000
     1   0 1 0     -0.000000      0.000000      0.000000     -0.000000
     1   0 0 1     -0.000000     -0.000000     -0.000000      0.000000
 
     2   2 0 0     -0.179441     -0.736395     -0.736395      1.293348
     2   1 1 0     -0.000000      0.000000      0.000000     -0.000000
     2   1 0 1      0.000000      0.000000      0.000000      0.000000
     2   0 2 0     -0.179441     -0.736395     -0.736395      1.293348
     2   0 1 1     -0.000000     -0.000000     -0.000000      0.000000
     2   0 0 2     -1.042950     -0.521475     -0.521475      0.000000
 

 Parallel integral file used      16 records with       0 large values


 Task  times  cpu:        1.3s     wall:        2.0s
 
 
                                NWChem Input Module
                                -------------------
 
 
 Summary of allocated global arrays
-----------------------------------
  No active global arrays



                         GA Statistics for process    0
                         ------------------------------

       create   destroy   get      put      acc     scatter   gather  read&inc
calls:  179      179      984      441      332        0        0       93     
number of processes/call 3.31e+00 1.69e+00 4.12e+00 0.00e+00 0.00e+00
bytes total:             5.92e+06 7.17e+05 3.22e+06 0.00e+00 0.00e+00 7.44e+02
bytes remote:            4.90e+06 3.93e+05 2.63e+06 0.00e+00 0.00e+00 0.00e+00
Max memory consumed for GA by this process: 147288 bytes
 
MA_summarize_allocated_blocks: starting scan ...
MA_summarize_allocated_blocks: scan completed: 0 heap blocks, 0 stack blocks
MA usage statistics:

	allocation statistics:
					      heap	     stack
					      ----	     -----
	current number of blocks	         0	         0
	maximum number of blocks	        22	        57
	current total bytes		         0	         0
	maximum total bytes		   1268552	  22512184
	maximum total K-bytes		      1269	     22513
	maximum total M-bytes		         2	        23
 
 
                                     CITATION
                                     --------
                Please cite the following reference when publishing
                           results obtained with NWChem:
 
                 M. Valiev, E.J. Bylaska, N. Govind, K. Kowalski,
              T.P. Straatsma, H.J.J. van Dam, D. Wang, J. Nieplocha,
                        E. Apra, T.L. Windus, W.A. de Jong
                 "NWChem: a comprehensive and scalable open-source
                  solution for large scale molecular simulations"
                      Comput. Phys. Commun. 181, 1477 (2010)
                           doi:10.1016/j.cpc.2010.04.018
 
                                      AUTHORS
                                      -------
          E. Apra, E. J. Bylaska, W. A. de Jong, N. Govind, K. Kowalski,
       T. P. Straatsma, M. Valiev, H. J. J. van Dam, D. Wang, T. L. Windus,
        J. Hammond, J. Autschbach, K. Bhaskaran-Nair, J. Brabec, K. Lopata,
    S. A. Fischer, S. Krishnamoorthy, M. Jacquelin, W. Ma, M. Klemm, O. Villa,
      Y. Chen, V. Anisimov, F. Aquino, S. Hirata, M. T. Hackler, V. Konjkov,
            D. Mejia-Rodriguez, T. Risthaus, M. Malagoli, A. Marenich,
   A. Otero-de-la-Roza, J. Mullin, P. Nichols, R. Peverati, J. Pittner, Y. Zhao,
        P.-D. Fan, A. Fonari, M. J. Williamson, R. J. Harrison, J. R. Rehr,
      M. Dupuis, D. Silverstein, D. M. A. Smith, J. Nieplocha, V. Tipparaju,
    M. Krishnan, B. E. Van Kuiken, A. Vazquez-Mayagoitia, L. Jensen, M. Swart,
      Q. Wu, T. Van Voorhis, A. A. Auer, M. Nooijen, L. D. Crosby, E. Brown,
      G. Cisneros, G. I. Fann, H. Fruchtl, J. Garza, K. Hirao, R. A. Kendall,
      J. A. Nichols, K. Tsemekhman, K. Wolinski, J. Anchell, D. E. Bernholdt,
      P. Borowski, T. Clark, D. Clerc, H. Dachsel, M. J. O. Deegan, K. Dyall,
    D. Elwood, E. Glendening, M. Gutowski, A. C. Hess, J. Jaffe, B. G. Johnson,
     J. Ju, R. Kobayashi, R. Kutteh, Z. Lin, R. Littlefield, X. Long, B. Meng,
      T. Nakajima, S. Niu, L. Pollack, M. Rosing, K. Glaesemann, G. Sandrone,
      M. Stave, H. Taylor, G. Thomas, J. H. van Lenthe, A. T. Wong, Z. Zhang.

 Total times  cpu:        1.3s     wall:        2.2s
