 argument  1 = /storage/home/rabeet/work/nwc/pa8/nwtpss/H2.xyz.nw
  NWChem w/ OpenMP: maximum threads =  1
                                         
                                         
 
 
              Northwest Computational Chemistry Package (NWChem) 6.8
              ------------------------------------------------------
 
 
                    Environmental Molecular Sciences Laboratory
                       Pacific Northwest National Laboratory
                                Richland, WA 99352
 
                              Copyright (c) 1994-2018
                       Pacific Northwest National Laboratory
                            Battelle Memorial Institute
 
             NWChem is an open-source computational chemistry package
                        distributed under the terms of the
                      Educational Community License (ECL) 2.0
             A copy of the license is included with this distribution
                              in the LICENSE.TXT file
 
                                  ACKNOWLEDGMENT
                                  --------------

            This software and its documentation were developed at the
            EMSL at Pacific Northwest National Laboratory, a multiprogram
            national laboratory, operated for the U.S. Department of Energy
            by Battelle under Contract Number DE-AC05-76RL01830. Support
            for this work was provided by the Department of Energy Office
            of Biological and Environmental Research, Office of Basic
            Energy Sciences, and the Office of Advanced Scientific Computing.


           Job information
           ---------------

    hostname        = r8n4.niserhpc.org
    program         = /home/rabeet/nwchem-6.8/bin/LINUX64/nwchem
    date            = Sun Oct 27 10:45:32 2019

    compiled        = Fri_Jun_28_18:24:12_2019
    source          = /home/rabeet/nwchem-6.8
    nwchem branch   = Development
    nwchem revision = N/A
    ga revision     = 5.6.5
    use scalapack   = T
    input           = /storage/home/rabeet/work/nwc/pa8/nwtpss/H2.xyz.nw
    prefix          = H2.xyz.
    data base       = ./H2.xyz.db
    status          = startup
    nproc           =       16
    time left       =     -1s



           Memory information
           ------------------

    heap     =   13107198 doubles =    100.0 Mbytes
    stack    =   13107195 doubles =    100.0 Mbytes
    global   =   26214400 doubles =    200.0 Mbytes (distinct from heap & stack)
    total    =   52428793 doubles =    400.0 Mbytes
    verify   = yes
    hardfail = no 


           Directory information
           ---------------------
 
  0 permanent = .
  0 scratch   = .
 
 
 
 
                                NWChem Input Module
                                -------------------
 
 

 Scaling coordinates for geometry "geometry" by  1.889725989
 (inverse scale =  0.529177249)

 ORDER OF PRIMARY AXIS IS BEING SET TO 4
 D4H symmetry detected

          ------
          auto-z
          ------
  no constraints, skipping   0.000000000000000E+000
  no constraints, skipping   0.000000000000000E+000
 
 
                             Geometry "geometry" -> ""
                             -------------------------
 
 Output coordinates in angstroms (scale by  1.889725989 to convert to a.u.)
 
  No.       Tag          Charge          X              Y              Z
 ---- ---------------- ---------- -------------- -------------- --------------
    1 H                    1.0000     0.00000000     0.00000000     0.36858000
    2 H                    1.0000     0.00000000     0.00000000    -0.36858000
 
      Atomic Mass 
      ----------- 
 
      H                  1.007825
 

 Effective nuclear repulsion energy (a.u.)       0.7178594186

            Nuclear Dipole moment (a.u.) 
            ----------------------------
        X                 Y               Z
 ---------------- ---------------- ----------------
     0.0000000000     0.0000000000     0.0000000000
 
      Symmetry information
      --------------------
 
 Group name             D4h       
 Group number             28
 Group order              16
 No. of unique centers     1
 
      Symmetry unique atoms
 
     1
 


                                Z-matrix (autoz)
                                -------- 

 Units are Angstrom for bonds and degrees for angles
 
      Type          Name      I     J     K     L     M      Value
      ----------- --------  ----- ----- ----- ----- ----- ----------
    1 Stretch                  1     2                       0.73716
 
 
            XYZ format geometry
            -------------------
     2
 geometry
 H                     0.00000000     0.00000000     0.36858000
 H                     0.00000000     0.00000000    -0.36858000
 


 Summary of "ao basis" -> "" (cartesian)
 ------------------------------------------------------------------------------
       Tag                 Description            Shells   Functions and Types
 ---------------- ------------------------------  ------  ---------------------
 *                     6-311++G(3df,3pd)              on all atoms 


 
                                 NWChem DFT Module
                                 -----------------
 
 
                      Basis "ao basis" -> "ao basis" (cartesian)
                      -----
  H (Hydrogen)
  ------------
            Exponent  Coefficients 
       -------------- ---------------------------------------------------------
  1 S  3.38650000E+01  0.025494
  1 S  5.09479000E+00  0.190373
  1 S  1.15879000E+00  0.852161
 
  2 S  3.25840000E-01  1.000000
 
  3 S  1.02741000E-01  1.000000
 
  4 S  3.60000000E-02  1.000000
 
  5 P  3.00000000E+00  1.000000
 
  6 P  7.50000000E-01  1.000000
 
  7 P  1.87500000E-01  1.000000
 
  8 D  1.00000000E+00  1.000000
 


 Summary of "ao basis" -> "ao basis" (cartesian)
 ------------------------------------------------------------------------------
       Tag                 Description            Shells   Functions and Types
 ---------------- ------------------------------  ------  ---------------------
 H                     6-311++G(3df,3pd)             8       19   4s3p1d




 Summary of "ao basis" -> "ao basis" (cartesian)
 ------------------------------------------------------------------------------
       Tag                 Description            Shells   Functions and Types
 ---------------- ------------------------------  ------  ---------------------
 H                     6-311++G(3df,3pd)             8       19   4s3p1d


      Symmetry analysis of basis
      --------------------------
 
        a1g         9
        a1u         0
        a2g         0
        a2u         9
        b1g         1
        b1u         1
        b2g         1
        b2u         1
        eg          8
        eu          8
 
  Caching 1-el integrals 
 
            General Information
            -------------------
          SCF calculation type: DFT
          Wavefunction type:  closed shell.
          No. of atoms     :     2
          No. of electrons :     2
           Alpha electrons :     1
            Beta electrons :     1
          Charge           :     0
          Spin multiplicity:     1
          Use of symmetry is: on ; symmetry adaption is: on 
          Maximum number of iterations: ***
          AO basis - number of functions:    38
                     number of shells:    16
          Convergence on energy requested:  1.00D-06
          Convergence on density requested:  1.00D-05
          Convergence on gradient requested:  5.00D-04
 
              XC Information
              --------------
                  TPSS metaGGA Exchange Functional  1.000          
             TPSS03 metaGGA Correlation Functional  1.000          
 
             Grid Information
             ----------------
          Grid used for XC integration:  medium    
          Radial quadrature: Mura-Knowles        
          Angular quadrature: Lebedev. 
          Tag              B.-S. Rad. Rad. Pts. Rad. Cut. Ang. Pts.
          ---              ---------- --------- --------- ---------
          H                   0.35       45          10.0       434
          Grid pruning is: on 
          Number of quadrature shells:    45
          Spatial weights used:  Erf1
 
          Convergence Information
          -----------------------
          Convergence aids based upon iterative change in 
          total energy or number of iterations. 
          Levelshifting, if invoked, occurs when the 
          HOMO/LUMO gap drops below (HL_TOL):  1.00D-02
          DIIS, if invoked, will attempt to extrapolate 
          using up to (NFOCK): 10 stored Fock matrices.

                    Damping( 0%)  Levelshifting(0.5)       DIIS
                  --------------- ------------------- ---------------
          dE  on:    start            ASAP                start   
          dE off:    2 iters        *** iters           *** iters 

 
      Screening Tolerance Information
      -------------------------------
          Density screening/tol_rho:  1.00D-10
          AO Gaussian exp screening on grid/accAOfunc:  14
          CD Gaussian exp screening on grid/accCDfunc:  20
          XC Gaussian exp screening on grid/accXCfunc:  20
          Schwarz screening/accCoul:  1.00D-08

 
      Superposition of Atomic Density Guess
      -------------------------------------
 
 Sum of atomic energies:          -0.99963633
 
      Non-variational initial energy
      ------------------------------

 Total energy =      -0.851325
 1-e energy   =      -2.223167
 2-e energy   =       0.653983
 HOMO         =      -0.587675
 LUMO         =       0.059187
 
 
      Symmetry analysis of molecular orbitals - initial
      -------------------------------------------------
 

 !! scf_movecs_sym_adapt:    4 vectors were symmetry contaminated

  Symmetry fudging

 !! scf_movecs_sym_adapt:    4 vectors were symmetry contaminated

  Numbering of irreducible representations: 
 
     1 a1g         2 a1u         3 a2g         4 a2u         5 b1g     
     6 b1u         7 b2g         8 b2u         9 eg         10 eu      
 
  Orbital symmetries:
 
     1 a1g         2 a2u         3 a1g         4 a2u         5 eu      
     6 eu          7 a1g         8 a2u         9 eg         10 eg      
    11 a1g     
 
   Time after variat. SCF:      0.8
   Time prior to 1st pass:      0.8

 #quartets = 6.346D+03 #integrals = 5.603D+04 #direct =  0.0% #cached =100.0%


 Integral file          = ./H2.xyz.aoints.00
 Record size in doubles =    65536    No. of integs per rec  =    43688
 Max. records in memory =        2    Max. records in file   =  8902789
 No. of bits per label  =        8    No. of bits per value  =       64


File balance: exchanges=     0  moved=     0  time=   0.0


 Grid_pts file          = ./H2.xyz.gridpts.00
 Record size in doubles =  12289        No. of grid_pts per rec  =   3070
 Max. records in memory =      2        Max. recs in file   =    387964


           Memory utilization after 1st SCF pass: 
           Heap Space remaining (MW):       12.95            12950190
          Stack Space remaining (MW):       13.11            13106860

   convergence    iter        energy       DeltaE   RMS-Dens  Diis-err    time
 ---------------- ----- ----------------- --------- --------- ---------  ------
 d= 0,ls=0.0,diis     1     -1.1775556145 -1.90D+00  1.78D-03  1.20D-02     1.7
 d= 0,ls=0.0,diis     2     -1.1797252125 -2.17D-03  5.01D-04  6.92D-04     1.7
 d= 0,ls=0.0,diis     3     -1.1798587795 -1.34D-04  3.63D-05  7.89D-06     1.8
 d= 0,ls=0.0,diis     4     -1.1798603718 -1.59D-06  5.61D-07  2.44D-09     1.9
 d= 0,ls=0.0,diis     5     -1.1798603722 -3.46D-10  1.86D-08  5.21D-12     1.9


         Total DFT energy =       -1.179860372192
      One electron energy =       -2.514266604966
           Coulomb energy =        1.327735176097
          Exchange energy =       -0.669082169793
       Correlation energy =       -0.042106192110
 Nuclear repulsion energy =        0.717859418579

 Numeric. integr. density =        1.999999859398

     Total iterative time =      1.1s


 
                  Occupations of the irreducible representations
                  ----------------------------------------------
 
                     irrep           alpha         beta
                     --------     --------     --------
                     a1g               1.0          1.0
                     a1u               0.0          0.0
                     a2g               0.0          0.0
                     a2u               0.0          0.0
                     b1g               0.0          0.0
                     b1u               0.0          0.0
                     b2g               0.0          0.0
                     b2u               0.0          0.0
                     eg                0.0          0.0
                     eu                0.0          0.0
 
 
                       DFT Final Molecular Orbital Analysis
                       ------------------------------------
 
 Vector    1  Occ=2.000000D+00  E=-3.947961D-01  Symmetry=a1g
              MO Center=  3.6D-19, -1.8D-19, -8.8D-16, r^2= 7.2D-01
   Bfn.  Coefficient  Atom+Function         Bfn.  Coefficient  Atom+Function  
  ----- ------------  ---------------      ----- ------------  ---------------
     2      0.272903  1 H  s                 21      0.272903  2 H  s          
     1      0.196840  1 H  s                 20      0.196840  2 H  s          
     3      0.131242  1 H  s                 22      0.131242  2 H  s          
 
 Vector    2  Occ=0.000000D+00  E= 2.014086D-02  Symmetry=a2u
              MO Center= -2.9D-16, -3.8D-16,  1.1D-13, r^2= 7.6D+00
   Bfn.  Coefficient  Atom+Function         Bfn.  Coefficient  Atom+Function  
  ----- ------------  ---------------      ----- ------------  ---------------
     4      3.236087  1 H  s                 23     -3.236087  2 H  s          
    13      0.167021  1 H  pz                32      0.167021  2 H  pz         
     3     -0.141983  1 H  s                 22      0.141983  2 H  s          
     1      0.049900  1 H  s                 20     -0.049900  2 H  s          
    10      0.028633  1 H  pz                29      0.028633  2 H  pz         
 
 Vector    3  Occ=0.000000D+00  E= 3.086868D-02  Symmetry=a1g
              MO Center= -5.6D-17,  2.5D-16, -1.1D-13, r^2= 9.0D+00
   Bfn.  Coefficient  Atom+Function         Bfn.  Coefficient  Atom+Function  
  ----- ------------  ---------------      ----- ------------  ---------------
     4      0.779170  1 H  s                 23      0.779170  2 H  s          
     3     -0.423636  1 H  s                 22     -0.423636  2 H  s          
     1     -0.076446  1 H  s                 20     -0.076446  2 H  s          
 
 Vector    4  Occ=0.000000D+00  E= 1.370517D-01  Symmetry=a2u
              MO Center=  3.2D-31, -2.3D-30,  7.4D-15, r^2= 9.7D+00
   Bfn.  Coefficient  Atom+Function         Bfn.  Coefficient  Atom+Function  
  ----- ------------  ---------------      ----- ------------  ---------------
     4     -5.264032  1 H  s                 23      5.264032  2 H  s          
     3      4.865823  1 H  s                 22     -4.865823  2 H  s          
     2      0.754125  1 H  s                 21     -0.754125  2 H  s          
    13     -0.636449  1 H  pz                32     -0.636449  2 H  pz         
     1      0.056155  1 H  s                 20     -0.056155  2 H  s          
 
 Vector    5  Occ=0.000000D+00  E= 2.220047D-01  Symmetry=eu
              MO Center= -9.9D-16, -9.9D-16, -2.4D-15, r^2= 2.0D+00
   Bfn.  Coefficient  Atom+Function         Bfn.  Coefficient  Atom+Function  
  ----- ------------  ---------------      ----- ------------  ---------------
    11      0.382016  1 H  px                30      0.382016  2 H  px         
    12      0.374152  1 H  py                31      0.374152  2 H  py         
 
 Vector    6  Occ=0.000000D+00  E= 2.220047D-01  Symmetry=eu
              MO Center=  2.1D-16, -2.2D-16, -2.5D-16, r^2= 2.0D+00
   Bfn.  Coefficient  Atom+Function         Bfn.  Coefficient  Atom+Function  
  ----- ------------  ---------------      ----- ------------  ---------------
    12     -0.382016  1 H  py                31     -0.382016  2 H  py         
    11      0.374152  1 H  px                30      0.374152  2 H  px         
 
 Vector    7  Occ=0.000000D+00  E= 3.181411D-01  Symmetry=a1g
              MO Center=  7.0D-16,  5.9D-16,  2.1D-15, r^2= 6.0D+00
   Bfn.  Coefficient  Atom+Function         Bfn.  Coefficient  Atom+Function  
  ----- ------------  ---------------      ----- ------------  ---------------
     3      1.599507  1 H  s                 22      1.599507  2 H  s          
     2     -1.049435  1 H  s                 21     -1.049435  2 H  s          
     4     -0.781583  1 H  s                 23     -0.781583  2 H  s          
    13      0.230397  1 H  pz                32     -0.230397  2 H  pz         
    14      0.089985  1 H  dxx               17      0.089985  1 H  dyy        
 
 Vector    8  Occ=0.000000D+00  E= 4.327653D-01  Symmetry=a2u
              MO Center= -2.0D-15, -1.1D-15, -7.9D-15, r^2= 6.3D+00
   Bfn.  Coefficient  Atom+Function         Bfn.  Coefficient  Atom+Function  
  ----- ------------  ---------------      ----- ------------  ---------------
     3     10.189954  1 H  s                 22    -10.189954  2 H  s          
     4     -4.189048  1 H  s                 23      4.189048  2 H  s          
    13     -2.548964  1 H  pz                32     -2.548964  2 H  pz         
     2      1.555109  1 H  s                 21     -1.555109  2 H  s          
    10     -0.192711  1 H  pz                29     -0.192711  2 H  pz         
 
 Vector    9  Occ=0.000000D+00  E= 4.633060D-01  Symmetry=eg
              MO Center=  3.2D-16, -3.6D-16,  5.4D-17, r^2= 2.8D+00
   Bfn.  Coefficient  Atom+Function         Bfn.  Coefficient  Atom+Function  
  ----- ------------  ---------------      ----- ------------  ---------------
    12      1.326347  1 H  py                31     -1.326347  2 H  py         
    11     -1.203505  1 H  px                30      1.203505  2 H  px         
     9     -0.055721  1 H  py                28      0.055721  2 H  py         
     8      0.050560  1 H  px                27     -0.050560  2 H  px         
 
 Vector   10  Occ=0.000000D+00  E= 4.633060D-01  Symmetry=eg
              MO Center=  2.0D-15,  1.8D-15,  2.4D-15, r^2= 2.8D+00
   Bfn.  Coefficient  Atom+Function         Bfn.  Coefficient  Atom+Function  
  ----- ------------  ---------------      ----- ------------  ---------------
    11      1.326347  1 H  px                30     -1.326347  2 H  px         
    12      1.203505  1 H  py                31     -1.203505  2 H  py         
     8     -0.055721  1 H  px                27      0.055721  2 H  px         
     9     -0.050560  1 H  py                28      0.050560  2 H  py         
 
 Vector   11  Occ=0.000000D+00  E= 4.731640D-01  Symmetry=a1g
              MO Center=  1.2D-16,  3.1D-16,  5.2D-15, r^2= 2.7D+00
   Bfn.  Coefficient  Atom+Function         Bfn.  Coefficient  Atom+Function  
  ----- ------------  ---------------      ----- ------------  ---------------
    13      1.448451  1 H  pz                32     -1.448451  2 H  pz         
     2      1.130071  1 H  s                 21      1.130071  2 H  s          
     3     -0.617601  1 H  s                 22     -0.617601  2 H  s          
     4      0.114707  1 H  s                 23      0.114707  2 H  s          
    19     -0.092903  1 H  dzz               38     -0.092903  2 H  dzz        
 
 Vector   12  Occ=0.000000D+00  E= 9.494847D-01  Symmetry=a2u
              MO Center=  4.5D-17, -1.4D-17,  9.2D-15, r^2= 3.9D+00
   Bfn.  Coefficient  Atom+Function         Bfn.  Coefficient  Atom+Function  
  ----- ------------  ---------------      ----- ------------  ---------------
     3     10.649045  1 H  s                 22    -10.649045  2 H  s          
     2      7.555136  1 H  s                 21     -7.555136  2 H  s          
    13     -4.724812  1 H  pz                32     -4.724812  2 H  pz         
     4     -2.485676  1 H  s                 23      2.485676  2 H  s          
    10     -0.752164  1 H  pz                29     -0.752164  2 H  pz         
 
 Vector   13  Occ=0.000000D+00  E= 1.483821D+00  Symmetry=a1g
              MO Center=  5.1D-18, -3.4D-18,  4.2D-15, r^2= 2.4D+00
   Bfn.  Coefficient  Atom+Function         Bfn.  Coefficient  Atom+Function  
  ----- ------------  ---------------      ----- ------------  ---------------
     2      2.474792  1 H  s                 21      2.474792  2 H  s          
     3     -1.277770  1 H  s                 22     -1.277770  2 H  s          
     1     -0.878681  1 H  s                 20     -0.878681  2 H  s          
    19     -0.471499  1 H  dzz               38     -0.471499  2 H  dzz        
    14     -0.456264  1 H  dxx               17     -0.456264  1 H  dyy        
 
 Vector   14  Occ=0.000000D+00  E= 1.550685D+00  Symmetry=eu
              MO Center=  2.4D-16, -3.5D-16,  1.1D-15, r^2= 1.1D+00
   Bfn.  Coefficient  Atom+Function         Bfn.  Coefficient  Atom+Function  
  ----- ------------  ---------------      ----- ------------  ---------------
     8      0.696194  1 H  px                27      0.696194  2 H  px         
     9     -0.376060  1 H  py                28     -0.376060  2 H  py         
    11     -0.355867  1 H  px                30     -0.355867  2 H  px         
    12      0.192227  1 H  py                31      0.192227  2 H  py         
    16      0.078887  1 H  dxz               35     -0.078887  2 H  dxz        
 
 Vector   15  Occ=0.000000D+00  E= 1.550685D+00  Symmetry=eu
              MO Center= -9.3D-17, -4.3D-17,  5.0D-16, r^2= 1.1D+00
   Bfn.  Coefficient  Atom+Function         Bfn.  Coefficient  Atom+Function  
  ----- ------------  ---------------      ----- ------------  ---------------
     9      0.696194  1 H  py                28      0.696194  2 H  py         
     8      0.376060  1 H  px                27      0.376060  2 H  px         
    12     -0.355867  1 H  py                31     -0.355867  2 H  py         
    11     -0.192227  1 H  px                30     -0.192227  2 H  px         
    18      0.078887  1 H  dyz               37     -0.078887  2 H  dyz        
 
 Vector   16  Occ=0.000000D+00  E= 1.953601D+00  Symmetry=a2u
              MO Center=  1.4D-18,  1.5D-17,  5.9D-15, r^2= 1.7D+00
   Bfn.  Coefficient  Atom+Function         Bfn.  Coefficient  Atom+Function  
  ----- ------------  ---------------      ----- ------------  ---------------
     2      9.832417  1 H  s                 21     -9.832417  2 H  s          
     3      3.976692  1 H  s                 22     -3.976692  2 H  s          
    13     -2.954659  1 H  pz                32     -2.954659  2 H  pz         
    10     -2.674989  1 H  pz                29     -2.674989  2 H  pz         
    14     -0.412199  1 H  dxx               17     -0.412199  1 H  dyy        
 
 Vector   17  Occ=0.000000D+00  E= 2.062717D+00  Symmetry=a1g
              MO Center=  9.7D-19,  4.1D-19, -5.9D-15, r^2= 1.4D+00
   Bfn.  Coefficient  Atom+Function         Bfn.  Coefficient  Atom+Function  
  ----- ------------  ---------------      ----- ------------  ---------------
     2      1.932195  1 H  s                 21      1.932195  2 H  s          
    13      0.765630  1 H  pz                32     -0.765630  2 H  pz         
     3     -0.694392  1 H  s                 10     -0.696221  1 H  pz         
    29      0.696221  2 H  pz                19     -0.691138  1 H  dzz        
    22     -0.694392  2 H  s                 38     -0.691138  2 H  dzz        
 
 Vector   18  Occ=0.000000D+00  E= 2.110482D+00  Symmetry=eg
              MO Center= -4.5D-17, -3.7D-16, -7.1D-16, r^2= 1.1D+00
   Bfn.  Coefficient  Atom+Function         Bfn.  Coefficient  Atom+Function  
  ----- ------------  ---------------      ----- ------------  ---------------
     8      0.922273  1 H  px                27     -0.922273  2 H  px         
    11     -0.768650  1 H  px                30      0.768650  2 H  px         
     9      0.609957  1 H  py                28     -0.609957  2 H  py         
    12     -0.508356  1 H  py                31      0.508356  2 H  py         
    16      0.122070  1 H  dxz               35      0.122070  2 H  dxz        
 
 Vector   19  Occ=0.000000D+00  E= 2.110482D+00  Symmetry=eg
              MO Center=  1.2D-16,  5.4D-17, -1.2D-15, r^2= 1.1D+00
   Bfn.  Coefficient  Atom+Function         Bfn.  Coefficient  Atom+Function  
  ----- ------------  ---------------      ----- ------------  ---------------
     9      0.922273  1 H  py                28     -0.922273  2 H  py         
    12     -0.768650  1 H  py                31      0.768650  2 H  py         
     8     -0.609957  1 H  px                27      0.609957  2 H  px         
    11      0.508356  1 H  px                30     -0.508356  2 H  px         
    18      0.122070  1 H  dyz               37      0.122070  2 H  dyz        
 
 Vector   20  Occ=0.000000D+00  E= 2.737552D+00  Symmetry=b1g
              MO Center= -3.8D-17, -1.3D-17, -9.4D-18, r^2= 5.9D-01
   Bfn.  Coefficient  Atom+Function         Bfn.  Coefficient  Atom+Function  
  ----- ------------  ---------------      ----- ------------  ---------------
    14      0.521478  1 H  dxx               17     -0.521478  1 H  dyy        
    33      0.521478  2 H  dxx               36     -0.521478  2 H  dyy        
 
 Vector   21  Occ=0.000000D+00  E= 2.737553D+00  Symmetry=b2g
              MO Center= -1.6D-16,  4.3D-16, -2.2D-16, r^2= 5.9D-01
   Bfn.  Coefficient  Atom+Function         Bfn.  Coefficient  Atom+Function  
  ----- ------------  ---------------      ----- ------------  ---------------
    15      1.042957  1 H  dxy               34      1.042957  2 H  dxy        
 
 Vector   22  Occ=0.000000D+00  E= 3.037079D+00  Symmetry=a2u
              MO Center= -9.9D-18, -1.2D-17, -2.3D-16, r^2= 1.2D+00
   Bfn.  Coefficient  Atom+Function         Bfn.  Coefficient  Atom+Function  
  ----- ------------  ---------------      ----- ------------  ---------------
     3      3.879873  1 H  s                 22     -3.879873  2 H  s          
     2      2.210932  1 H  s                 21     -2.210932  2 H  s          
    13     -1.669635  1 H  pz                32     -1.669635  2 H  pz         
     4     -1.032525  1 H  s                 23      1.032525  2 H  s          
    10      0.735887  1 H  pz                29      0.735887  2 H  pz         
 
 Vector   23  Occ=0.000000D+00  E= 3.561033D+00  Symmetry=eu
              MO Center=  4.6D-17,  3.5D-17,  8.9D-16, r^2= 6.7D-01
   Bfn.  Coefficient  Atom+Function         Bfn.  Coefficient  Atom+Function  
  ----- ------------  ---------------      ----- ------------  ---------------
    18      0.906951  1 H  dyz               37     -0.906951  2 H  dyz        
    16      0.688562  1 H  dxz               35     -0.688562  2 H  dxz        
     9      0.183363  1 H  py                28      0.183363  2 H  py         
     8      0.139210  1 H  px                27      0.139210  2 H  px         
    12     -0.059061  1 H  py                31     -0.059061  2 H  py         
 
 Vector   24  Occ=0.000000D+00  E= 3.561033D+00  Symmetry=eu
              MO Center=  3.3D-17, -4.3D-17, -1.0D-16, r^2= 6.7D-01
   Bfn.  Coefficient  Atom+Function         Bfn.  Coefficient  Atom+Function  
  ----- ------------  ---------------      ----- ------------  ---------------
    16      0.906951  1 H  dxz               35     -0.906951  2 H  dxz        
    18     -0.688562  1 H  dyz               37      0.688562  2 H  dyz        
     8      0.183363  1 H  px                27      0.183363  2 H  px         
     9     -0.139210  1 H  py                28     -0.139210  2 H  py         
    11     -0.059061  1 H  px                30     -0.059061  2 H  px         
 
 Vector   25  Occ=0.000000D+00  E= 3.613537D+00  Symmetry=b1u
              MO Center=  3.9D-17,  3.3D-16,  1.5D-16, r^2= 7.1D-01
   Bfn.  Coefficient  Atom+Function         Bfn.  Coefficient  Atom+Function  
  ----- ------------  ---------------      ----- ------------  ---------------
    15      1.554152  1 H  dxy               34     -1.554152  2 H  dxy        
 
 Vector   26  Occ=0.000000D+00  E= 3.613538D+00  Symmetry=b2u
              MO Center= -2.3D-16,  7.6D-17, -1.8D-16, r^2= 7.1D-01
   Bfn.  Coefficient  Atom+Function         Bfn.  Coefficient  Atom+Function  
  ----- ------------  ---------------      ----- ------------  ---------------
    14      0.777076  1 H  dxx               17     -0.777076  1 H  dyy        
    33     -0.777076  2 H  dxx               36      0.777076  2 H  dyy        
 
 Vector   27  Occ=0.000000D+00  E= 4.149438D+00  Symmetry=a1g
              MO Center= -3.9D-18,  7.2D-18,  2.3D-15, r^2= 1.2D+00
   Bfn.  Coefficient  Atom+Function         Bfn.  Coefficient  Atom+Function  
  ----- ------------  ---------------      ----- ------------  ---------------
     2      2.682120  1 H  s                 21      2.682120  2 H  s          
    14     -1.212968  1 H  dxx               17     -1.212968  1 H  dyy        
    33     -1.212968  2 H  dxx               36     -1.212968  2 H  dyy        
     3     -0.858953  1 H  s                 22     -0.858953  2 H  s          
    19     -0.511956  1 H  dzz               38     -0.511956  2 H  dzz        
 
 Vector   28  Occ=0.000000D+00  E= 4.815307D+00  Symmetry=eg
              MO Center=  1.9D-17, -4.5D-17,  4.3D-16, r^2= 7.9D-01
   Bfn.  Coefficient  Atom+Function         Bfn.  Coefficient  Atom+Function  
  ----- ------------  ---------------      ----- ------------  ---------------
    16      2.744311  1 H  dxz               35      2.744311  2 H  dxz        
    18     -1.675113  1 H  dyz               37     -1.675113  2 H  dyz        
     8     -1.633277  1 H  px                27      1.633277  2 H  px         
     9      0.996944  1 H  py                28     -0.996944  2 H  py         
     5      0.055337  1 H  px                24     -0.055337  2 H  px         
 
 Vector   29  Occ=0.000000D+00  E= 4.815307D+00  Symmetry=eg
              MO Center= -1.6D-17, -3.7D-17, -8.2D-16, r^2= 7.9D-01
   Bfn.  Coefficient  Atom+Function         Bfn.  Coefficient  Atom+Function  
  ----- ------------  ---------------      ----- ------------  ---------------
    18      2.744311  1 H  dyz               37      2.744311  2 H  dyz        
    16      1.675113  1 H  dxz               35      1.675113  2 H  dxz        
     9     -1.633277  1 H  py                28      1.633277  2 H  py         
     8     -0.996944  1 H  px                27      0.996944  2 H  px         
     6      0.055337  1 H  py                25     -0.055337  2 H  py         
 
 Vector   30  Occ=0.000000D+00  E= 4.937396D+00  Symmetry=a2u
              MO Center=  4.6D-20, -1.2D-17,  1.3D-14, r^2= 9.4D-01
   Bfn.  Coefficient  Atom+Function         Bfn.  Coefficient  Atom+Function  
  ----- ------------  ---------------      ----- ------------  ---------------
     2      7.705483  1 H  s                 21     -7.705483  2 H  s          
     3      2.974974  1 H  s                 22     -2.974974  2 H  s          
    13     -2.125965  1 H  pz                32     -2.125965  2 H  pz         
    14     -1.343137  1 H  dxx               17     -1.343137  1 H  dyy        
    33      1.343137  2 H  dxx               36      1.343137  2 H  dyy        
 
 Vector   31  Occ=0.000000D+00  E= 5.606892D+00  Symmetry=a1g
              MO Center=  1.9D-20,  1.7D-19, -6.1D-16, r^2= 5.5D-01
   Bfn.  Coefficient  Atom+Function         Bfn.  Coefficient  Atom+Function  
  ----- ------------  ---------------      ----- ------------  ---------------
    19      1.260993  1 H  dzz               38      1.260993  2 H  dzz        
     1     -1.080297  1 H  s                 20     -1.080297  2 H  s          
     2     -0.314487  1 H  s                 21     -0.314487  2 H  s          
    10     -0.298183  1 H  pz                29      0.298183  2 H  pz         
    13     -0.269898  1 H  pz                32      0.269898  2 H  pz         
 
 Vector   32  Occ=0.000000D+00  E= 8.696316D+00  Symmetry=eu
              MO Center=  4.8D-19,  4.6D-20,  1.8D-17, r^2= 3.9D-01
   Bfn.  Coefficient  Atom+Function         Bfn.  Coefficient  Atom+Function  
  ----- ------------  ---------------      ----- ------------  ---------------
     6      0.864552  1 H  py                25      0.864552  2 H  py         
     9     -0.498953  1 H  py                28     -0.498953  2 H  py         
     5      0.233789  1 H  px                24      0.233789  2 H  px         
    12      0.146908  1 H  py                31      0.146908  2 H  py         
     8     -0.134925  1 H  px                27     -0.134925  2 H  px         
 
 Vector   33  Occ=0.000000D+00  E= 8.696316D+00  Symmetry=eu
              MO Center= -7.5D-18,  2.8D-17,  3.2D-15, r^2= 3.9D-01
   Bfn.  Coefficient  Atom+Function         Bfn.  Coefficient  Atom+Function  
  ----- ------------  ---------------      ----- ------------  ---------------
     5      0.864552  1 H  px                24      0.864552  2 H  px         
     8     -0.498953  1 H  px                27     -0.498953  2 H  px         
     6     -0.233789  1 H  py                25     -0.233789  2 H  py         
    11      0.146908  1 H  px                30      0.146908  2 H  px         
     9      0.134925  1 H  py                28      0.134925  2 H  py         
 
 Vector   34  Occ=0.000000D+00  E= 8.931330D+00  Symmetry=a1g
              MO Center= -1.2D-19,  1.9D-19,  5.8D-17, r^2= 4.6D-01
   Bfn.  Coefficient  Atom+Function         Bfn.  Coefficient  Atom+Function  
  ----- ------------  ---------------      ----- ------------  ---------------
    10      1.079751  1 H  pz                29     -1.079751  2 H  pz         
     7     -1.037451  1 H  pz                26      1.037451  2 H  pz         
     1      0.959302  1 H  s                 20      0.959302  2 H  s          
    19     -0.697849  1 H  dzz               38     -0.697849  2 H  dzz        
     2     -0.680510  1 H  s                 21     -0.680510  2 H  s          
 
 Vector   35  Occ=0.000000D+00  E= 8.986170D+00  Symmetry=eg
              MO Center= -3.0D-18,  2.6D-17, -1.4D-15, r^2= 4.0D-01
   Bfn.  Coefficient  Atom+Function         Bfn.  Coefficient  Atom+Function  
  ----- ------------  ---------------      ----- ------------  ---------------
     6      0.908410  1 H  py                25     -0.908410  2 H  py         
     9     -0.869642  1 H  py                28      0.869642  2 H  py         
    12      0.373399  1 H  py                31     -0.373399  2 H  py         
    18      0.244644  1 H  dyz               37      0.244644  2 H  dyz        
     5     -0.027159  1 H  px                24      0.027159  2 H  px         
 
 Vector   36  Occ=0.000000D+00  E= 8.986170D+00  Symmetry=eg
              MO Center=  2.0D-18,  4.3D-18, -1.6D-15, r^2= 4.0D-01
   Bfn.  Coefficient  Atom+Function         Bfn.  Coefficient  Atom+Function  
  ----- ------------  ---------------      ----- ------------  ---------------
     5      0.908410  1 H  px                24     -0.908410  2 H  px         
     8     -0.869642  1 H  px                27      0.869642  2 H  px         
    11      0.373399  1 H  px                30     -0.373399  2 H  px         
    16      0.244644  1 H  dxz               35      0.244644  2 H  dxz        
     6      0.027159  1 H  py                25     -0.027159  2 H  py         
 
 Vector   37  Occ=0.000000D+00  E= 1.164452D+01  Symmetry=a2u
              MO Center= -1.5D-18,  8.6D-18,  3.6D-16, r^2= 3.5D-01
   Bfn.  Coefficient  Atom+Function         Bfn.  Coefficient  Atom+Function  
  ----- ------------  ---------------      ----- ------------  ---------------
    10      1.413934  1 H  pz                29      1.413934  2 H  pz         
     3      1.203976  1 H  s                 22     -1.203976  2 H  s          
     7     -0.971441  1 H  pz                26     -0.971441  2 H  pz         
     1     -0.438638  1 H  s                 20      0.438638  2 H  s          
    13     -0.421800  1 H  pz                32     -0.421800  2 H  pz         
 
 Vector   38  Occ=0.000000D+00  E= 1.523678D+01  Symmetry=a2u
              MO Center=  6.6D-20, -1.6D-17,  7.1D-15, r^2= 7.1D-01
   Bfn.  Coefficient  Atom+Function         Bfn.  Coefficient  Atom+Function  
  ----- ------------  ---------------      ----- ------------  ---------------
    10      8.608510  1 H  pz                29      8.608510  2 H  pz         
     1     -6.427217  1 H  s                 20      6.427217  2 H  s          
    19     -5.724929  1 H  dzz               38      5.724929  2 H  dzz        
     3      3.114383  1 H  s                 22     -3.114383  2 H  s          
     2      1.956073  1 H  s                 14     -1.963577  1 H  dxx        
 

 center of mass
 --------------
 x =   0.00000000 y =   0.00000000 z =   0.00000000

 moments of inertia (a.u.)
 ------------------
           0.977859199422           0.000000000000           0.000000000000
           0.000000000000           0.977859199422           0.000000000000
           0.000000000000           0.000000000000           0.000000000000
 
     Multipole analysis of the density
     ---------------------------------
 
     L   x y z        total         alpha         beta         nuclear
     -   - - -        -----         -----         ----         -------
     0   0 0 0     -0.000000     -1.000000     -1.000000      2.000000
 
     1   1 0 0      0.000000      0.000000      0.000000      0.000000
     1   0 1 0      0.000000      0.000000      0.000000      0.000000
     1   0 0 1      0.000000      0.000000      0.000000      0.000000
 
     2   2 0 0     -1.526997     -0.763498     -0.763498      0.000000
     2   1 1 0      0.000000      0.000000      0.000000      0.000000
     2   1 0 1      0.000000      0.000000      0.000000      0.000000
     2   0 2 0     -1.526997     -0.763498     -0.763498      0.000000
     2   0 1 1      0.000000      0.000000      0.000000      0.000000
     2   0 0 2     -1.083309     -1.026788     -1.026788      0.970267
 

 Parallel integral file used      16 records with       0 large values


 Task  times  cpu:        0.8s     wall:        1.5s
 
 
                                NWChem Input Module
                                -------------------
 
 
 Summary of allocated global arrays
-----------------------------------
  No active global arrays



                         GA Statistics for process    0
                         ------------------------------

       create   destroy   get      put      acc     scatter   gather  read&inc
calls:  183      183     1159      451      419        0        0       75     
number of processes/call 2.81e+00 1.57e+00 4.24e+00 0.00e+00 0.00e+00
bytes total:             3.68e+06 5.11e+05 2.35e+06 0.00e+00 0.00e+00 6.00e+02
bytes remote:            2.60e+06 1.94e+05 1.62e+06 0.00e+00 0.00e+00 0.00e+00
Max memory consumed for GA by this process: 118408 bytes
 
MA_summarize_allocated_blocks: starting scan ...
MA_summarize_allocated_blocks: scan completed: 0 heap blocks, 0 stack blocks
MA usage statistics:

	allocation statistics:
					      heap	     stack
					      ----	     -----
	current number of blocks	         0	         0
	maximum number of blocks	        22	        57
	current total bytes		         0	         0
	maximum total bytes		   1255976	  22511288
	maximum total K-bytes		      1256	     22512
	maximum total M-bytes		         2	        23
 
 
                                     CITATION
                                     --------
                Please cite the following reference when publishing
                           results obtained with NWChem:
 
                 M. Valiev, E.J. Bylaska, N. Govind, K. Kowalski,
              T.P. Straatsma, H.J.J. van Dam, D. Wang, J. Nieplocha,
                        E. Apra, T.L. Windus, W.A. de Jong
                 "NWChem: a comprehensive and scalable open-source
                  solution for large scale molecular simulations"
                      Comput. Phys. Commun. 181, 1477 (2010)
                           doi:10.1016/j.cpc.2010.04.018
 
                                      AUTHORS
                                      -------
          E. Apra, E. J. Bylaska, W. A. de Jong, N. Govind, K. Kowalski,
       T. P. Straatsma, M. Valiev, H. J. J. van Dam, D. Wang, T. L. Windus,
        J. Hammond, J. Autschbach, K. Bhaskaran-Nair, J. Brabec, K. Lopata,
    S. A. Fischer, S. Krishnamoorthy, M. Jacquelin, W. Ma, M. Klemm, O. Villa,
      Y. Chen, V. Anisimov, F. Aquino, S. Hirata, M. T. Hackler, V. Konjkov,
            D. Mejia-Rodriguez, T. Risthaus, M. Malagoli, A. Marenich,
   A. Otero-de-la-Roza, J. Mullin, P. Nichols, R. Peverati, J. Pittner, Y. Zhao,
        P.-D. Fan, A. Fonari, M. J. Williamson, R. J. Harrison, J. R. Rehr,
      M. Dupuis, D. Silverstein, D. M. A. Smith, J. Nieplocha, V. Tipparaju,
    M. Krishnan, B. E. Van Kuiken, A. Vazquez-Mayagoitia, L. Jensen, M. Swart,
      Q. Wu, T. Van Voorhis, A. A. Auer, M. Nooijen, L. D. Crosby, E. Brown,
      G. Cisneros, G. I. Fann, H. Fruchtl, J. Garza, K. Hirao, R. A. Kendall,
      J. A. Nichols, K. Tsemekhman, K. Wolinski, J. Anchell, D. E. Bernholdt,
      P. Borowski, T. Clark, D. Clerc, H. Dachsel, M. J. O. Deegan, K. Dyall,
    D. Elwood, E. Glendening, M. Gutowski, A. C. Hess, J. Jaffe, B. G. Johnson,
     J. Ju, R. Kobayashi, R. Kutteh, Z. Lin, R. Littlefield, X. Long, B. Meng,
      T. Nakajima, S. Niu, L. Pollack, M. Rosing, K. Glaesemann, G. Sandrone,
      M. Stave, H. Taylor, G. Thomas, J. H. van Lenthe, A. T. Wong, Z. Zhang.

 Total times  cpu:        0.9s     wall:        2.1s
