 argument  1 = /storage/home/rabeet/work/nwc/pa8/nwtpss/H2O.xyz.nw
  NWChem w/ OpenMP: maximum threads =  1
                                         
                                         
 
 
              Northwest Computational Chemistry Package (NWChem) 6.8
              ------------------------------------------------------
 
 
                    Environmental Molecular Sciences Laboratory
                       Pacific Northwest National Laboratory
                                Richland, WA 99352
 
                              Copyright (c) 1994-2018
                       Pacific Northwest National Laboratory
                            Battelle Memorial Institute
 
             NWChem is an open-source computational chemistry package
                        distributed under the terms of the
                      Educational Community License (ECL) 2.0
             A copy of the license is included with this distribution
                              in the LICENSE.TXT file
 
                                  ACKNOWLEDGMENT
                                  --------------

            This software and its documentation were developed at the
            EMSL at Pacific Northwest National Laboratory, a multiprogram
            national laboratory, operated for the U.S. Department of Energy
            by Battelle under Contract Number DE-AC05-76RL01830. Support
            for this work was provided by the Department of Energy Office
            of Biological and Environmental Research, Office of Basic
            Energy Sciences, and the Office of Advanced Scientific Computing.


           Job information
           ---------------

    hostname        = r8n4.niserhpc.org
    program         = /home/rabeet/nwchem-6.8/bin/LINUX64/nwchem
    date            = Sun Oct 27 10:45:19 2019

    compiled        = Fri_Jun_28_18:24:12_2019
    source          = /home/rabeet/nwchem-6.8
    nwchem branch   = Development
    nwchem revision = N/A
    ga revision     = 5.6.5
    use scalapack   = T
    input           = /storage/home/rabeet/work/nwc/pa8/nwtpss/H2O.xyz.nw
    prefix          = H2O.xyz.
    data base       = ./H2O.xyz.db
    status          = startup
    nproc           =       16
    time left       =     -1s



           Memory information
           ------------------

    heap     =   13107198 doubles =    100.0 Mbytes
    stack    =   13107195 doubles =    100.0 Mbytes
    global   =   26214400 doubles =    200.0 Mbytes (distinct from heap & stack)
    total    =   52428793 doubles =    400.0 Mbytes
    verify   = yes
    hardfail = no 


           Directory information
           ---------------------
 
  0 permanent = .
  0 scratch   = .
 
 
 
 
                                NWChem Input Module
                                -------------------
 
 

 Scaling coordinates for geometry "geometry" by  1.889725989
 (inverse scale =  0.529177249)

 C2V symmetry detected

          ------
          auto-z
          ------
  no constraints, skipping   0.000000000000000E+000
  no constraints, skipping   0.000000000000000E+000
 
 
                             Geometry "geometry" -> ""
                             -------------------------
 
 Output coordinates in angstroms (scale by  1.889725989 to convert to a.u.)
 
  No.       Tag          Charge          X              Y              Z
 ---- ---------------- ---------- -------------- -------------- --------------
    1 O                    8.0000     0.00000000     0.00000000     0.11926200
    2 H                    1.0000    -0.76324000     0.00000000    -0.47704800
    3 H                    1.0000     0.76324000     0.00000000    -0.47704800
 
      Atomic Mass 
      ----------- 
 
      O                 15.994910
      H                  1.007825
 

 Effective nuclear repulsion energy (a.u.)       9.0882813003

            Nuclear Dipole moment (a.u.) 
            ----------------------------
        X                 Y               Z
 ---------------- ---------------- ----------------
     0.0000000000     0.0000000000     0.0000000000
 
      Symmetry information
      --------------------
 
 Group name             C2v       
 Group number             16
 Group order               4
 No. of unique centers     2
 
      Symmetry unique atoms
 
     1    2
 


                                Z-matrix (autoz)
                                -------- 

 Units are Angstrom for bonds and degrees for angles
 
      Type          Name      I     J     K     L     M      Value
      ----------- --------  ----- ----- ----- ----- ----- ----------
    1 Stretch                  1     2                       0.96857
    2 Stretch                  1     3                       0.96857
    3 Bend                     2     1     3               103.99985
 
 
            XYZ format geometry
            -------------------
     3
 geometry
 O                     0.00000000     0.00000000     0.11926200
 H                    -0.76324000     0.00000000    -0.47704800
 H                     0.76324000     0.00000000    -0.47704800
 
 ==============================================================================
                                internuclear distances
 ------------------------------------------------------------------------------
       center one      |      center two      | atomic units |  angstroms
 ------------------------------------------------------------------------------
    2 H                |   1 O                |     1.83033  |     0.96857
    3 H                |   1 O                |     1.83033  |     0.96857
 ------------------------------------------------------------------------------
                         number of included internuclear distances:          2
 ==============================================================================



 ==============================================================================
                                 internuclear angles
 ------------------------------------------------------------------------------
        center 1       |       center 2       |       center 3       |  degrees
 ------------------------------------------------------------------------------
    2 H                |   1 O                |   3 H                |   104.00
 ------------------------------------------------------------------------------
                            number of included internuclear angles:          1
 ==============================================================================





 Summary of "ao basis" -> "" (cartesian)
 ------------------------------------------------------------------------------
       Tag                 Description            Shells   Functions and Types
 ---------------- ------------------------------  ------  ---------------------
 *                     6-311++G(3df,3pd)              on all atoms 


 
                                 NWChem DFT Module
                                 -----------------
 
 
                      Basis "ao basis" -> "ao basis" (cartesian)
                      -----
  O (Oxygen)
  ----------
            Exponent  Coefficients 
       -------------- ---------------------------------------------------------
  1 S  8.58850000E+03  0.001895
  1 S  1.29723000E+03  0.014386
  1 S  2.99296000E+02  0.070732
  1 S  8.73771000E+01  0.240001
  1 S  2.56789000E+01  0.594797
  1 S  3.74004000E+00  0.280802
 
  2 S  4.21175000E+01  0.113889
  2 S  9.62837000E+00  0.920811
  2 S  2.85332000E+00 -0.003274
 
  3 P  4.21175000E+01  0.036511
  3 P  9.62837000E+00  0.237153
  3 P  2.85332000E+00  0.819702
 
  4 S  9.05661000E-01  1.000000
 
  5 P  9.05661000E-01  1.000000
 
  6 S  2.55611000E-01  1.000000
 
  7 P  2.55611000E-01  1.000000
 
  8 S  8.45000000E-02  1.000000
 
  9 P  8.45000000E-02  1.000000
 
 10 D  5.16000000E+00  1.000000
 
 11 D  1.29200000E+00  1.000000
 
 12 D  3.22500000E-01  1.000000
 
 13 F  1.40000000E+00  1.000000
 
  H (Hydrogen)
  ------------
            Exponent  Coefficients 
       -------------- ---------------------------------------------------------
  1 S  3.38650000E+01  0.025494
  1 S  5.09479000E+00  0.190373
  1 S  1.15879000E+00  0.852161
 
  2 S  3.25840000E-01  1.000000
 
  3 S  1.02741000E-01  1.000000
 
  4 S  3.60000000E-02  1.000000
 
  5 P  3.00000000E+00  1.000000
 
  6 P  7.50000000E-01  1.000000
 
  7 P  1.87500000E-01  1.000000
 
  8 D  1.00000000E+00  1.000000
 


 Summary of "ao basis" -> "ao basis" (cartesian)
 ------------------------------------------------------------------------------
       Tag                 Description            Shells   Functions and Types
 ---------------- ------------------------------  ------  ---------------------
 O                     6-311++G(3df,3pd)            13       45   5s4p3d1f
 H                     6-311++G(3df,3pd)             8       19   4s3p1d




 Summary of "ao basis" -> "ao basis" (cartesian)
 ------------------------------------------------------------------------------
       Tag                 Description            Shells   Functions and Types
 ---------------- ------------------------------  ------  ---------------------
 O                     6-311++G(3df,3pd)            13       45   5s4p3d1f
 H                     6-311++G(3df,3pd)             8       19   4s3p1d


      Symmetry analysis of basis
      --------------------------
 
        a1         35
        a2          9
        b1         24
        b2         15
 
  Caching 1-el integrals 
 
            General Information
            -------------------
          SCF calculation type: DFT
          Wavefunction type:  closed shell.
          No. of atoms     :     3
          No. of electrons :    10
           Alpha electrons :     5
            Beta electrons :     5
          Charge           :     0
          Spin multiplicity:     1
          Use of symmetry is: on ; symmetry adaption is: on 
          Maximum number of iterations: ***
          AO basis - number of functions:    83
                     number of shells:    29
          Convergence on energy requested:  1.00D-06
          Convergence on density requested:  1.00D-05
          Convergence on gradient requested:  5.00D-04
 
              XC Information
              --------------
                  TPSS metaGGA Exchange Functional  1.000          
             TPSS03 metaGGA Correlation Functional  1.000          
 
             Grid Information
             ----------------
          Grid used for XC integration:  medium    
          Radial quadrature: Mura-Knowles        
          Angular quadrature: Lebedev. 
          Tag              B.-S. Rad. Rad. Pts. Rad. Cut. Ang. Pts.
          ---              ---------- --------- --------- ---------
          O                   0.60       49           8.0       434
          H                   0.35       45          11.0       434
          Grid pruning is: on 
          Number of quadrature shells:    94
          Spatial weights used:  Erf1
 
          Convergence Information
          -----------------------
          Convergence aids based upon iterative change in 
          total energy or number of iterations. 
          Levelshifting, if invoked, occurs when the 
          HOMO/LUMO gap drops below (HL_TOL):  1.00D-02
          DIIS, if invoked, will attempt to extrapolate 
          using up to (NFOCK): 10 stored Fock matrices.

                    Damping( 0%)  Levelshifting(0.5)       DIIS
                  --------------- ------------------- ---------------
          dE  on:    start            ASAP                start   
          dE off:    2 iters        *** iters           *** iters 

 
      Screening Tolerance Information
      -------------------------------
          Density screening/tol_rho:  1.00D-10
          AO Gaussian exp screening on grid/accAOfunc:  14
          CD Gaussian exp screening on grid/accCDfunc:  20
          XC Gaussian exp screening on grid/accXCfunc:  20
          Schwarz screening/accCoul:  1.00D-08

 
      Superposition of Atomic Density Guess
      -------------------------------------
 
 Sum of atomic energies:         -75.77742205
 
      Non-variational initial energy
      ------------------------------

 Total energy =     -75.918683
 1-e energy   =    -121.537839
 2-e energy   =      36.530875
 HOMO         =      -0.479167
 LUMO         =       0.014894
 
 
      Symmetry analysis of molecular orbitals - initial
      -------------------------------------------------
 
  Numbering of irreducible representations: 
 
     1 a1          2 a2          3 b1          4 b2      
 
  Orbital symmetries:
 
     1 a1          2 a1          3 b1          4 a1          5 b2      
     6 a1          7 b1          8 a1          9 a1         10 b1      
    11 b2         12 a1         13 b1         14 a1         15 a2      
 
   Time after variat. SCF:      0.7
   Time prior to 1st pass:      0.7

 Integral file          = ./H2O.xyz.aoints.00
 Record size in doubles =  65536        No. of integs per rec  =  43688
 Max. records in memory =      5        Max. records in file   = 271841
 No. of bits per label  =      8        No. of bits per value  =     64


 #quartets = 5.952D+04 #integrals = 1.893D+06 #direct =  0.0% #cached =100.0%


File balance: exchanges=     0  moved=     0  time=   0.0


 Grid_pts file          = ./H2O.xyz.gridpts.00
 Record size in doubles =  12289        No. of grid_pts per rec  =   3070
 Max. records in memory =      2        Max. recs in file   =  47472677


           Memory utilization after 1st SCF pass: 
           Heap Space remaining (MW):       12.75            12751998
          Stack Space remaining (MW):       13.11            13106644

   convergence    iter        energy       DeltaE   RMS-Dens  Diis-err    time
 ---------------- ----- ----------------- --------- --------- ---------  ------
 d= 0,ls=0.0,diis     1    -76.4229055739 -8.55D+01  8.92D-03  4.86D-01     2.3
 d= 0,ls=0.0,diis     2    -76.3632113414  5.97D-02  5.69D-03  1.12D+00     2.4
 d= 0,ls=0.0,diis     3    -76.4632876870 -1.00D-01  7.05D-04  3.70D-02     2.5
 d= 0,ls=0.0,diis     4    -76.4660762919 -2.79D-03  1.43D-04  8.02D-04     2.6
 d= 0,ls=0.0,diis     5    -76.4661436080 -6.73D-05  1.34D-05  1.18D-05     2.7
  Resetting Diis
 d= 0,ls=0.0,diis     6    -76.4661447730 -1.16D-06  2.93D-06  1.15D-07     3.1
 d= 0,ls=0.0,diis     7    -76.4661447828 -9.84D-09  2.58D-07  5.74D-10     3.2


         Total DFT energy =      -76.466144782793
      One electron energy =     -122.845001570186
           Coulomb energy =       46.617649234173
          Exchange energy =       -9.000029550688
       Correlation energy =       -0.327044196422
 Nuclear repulsion energy =        9.088281300329

 Numeric. integr. density =       10.000001408189

     Total iterative time =      2.5s


 
                  Occupations of the irreducible representations
                  ----------------------------------------------
 
                     irrep           alpha         beta
                     --------     --------     --------
                     a1                3.0          3.0
                     a2                0.0          0.0
                     b1                1.0          1.0
                     b2                1.0          1.0
 
 
                       DFT Final Molecular Orbital Analysis
                       ------------------------------------
 
 Vector    1  Occ=2.000000D+00  E=-1.888936D+01  Symmetry=a1
              MO Center= -7.2D-18,  1.8D-24,  1.2D-01, r^2= 1.5D-02
   Bfn.  Coefficient  Atom+Function         Bfn.  Coefficient  Atom+Function  
  ----- ------------  ---------------      ----- ------------  ---------------
     1      0.551836  1 O  s                  2      0.470166  1 O  s          
 
 Vector    2  Occ=2.000000D+00  E=-9.490450D-01  Symmetry=a1
              MO Center= -6.9D-15,  3.5D-16, -8.2D-02, r^2= 5.0D-01
   Bfn.  Coefficient  Atom+Function         Bfn.  Coefficient  Atom+Function  
  ----- ------------  ---------------      ----- ------------  ---------------
     6      0.565287  1 O  s                 10      0.535201  1 O  s          
     2     -0.203977  1 O  s                  1     -0.113737  1 O  s          
    46      0.097596  2 H  s                 65      0.097596  3 H  s          
     9     -0.081658  1 O  pz                47      0.065914  2 H  s          
    66      0.065914  3 H  s                 33     -0.060819  1 O  dyy        
 
 Vector    3  Occ=2.000000D+00  E=-4.853969D-01  Symmetry=b1
              MO Center=  6.8D-15, -1.8D-32, -9.9D-02, r^2= 7.8D-01
   Bfn.  Coefficient  Atom+Function         Bfn.  Coefficient  Atom+Function  
  ----- ------------  ---------------      ----- ------------  ---------------
     7      0.334290  1 O  px                11      0.275426  1 O  px         
     3      0.245480  1 O  px                46     -0.157307  2 H  s          
    65      0.157307  3 H  s                 47     -0.126016  2 H  s          
    66      0.126016  3 H  s                 32     -0.043000  1 O  dxz        
    26     -0.041242  1 O  dxz        
 
 Vector    4  Occ=2.000000D+00  E=-3.478556D-01  Symmetry=a1
              MO Center=  9.9D-16,  7.6D-16,  1.8D-01, r^2= 7.5D-01
   Bfn.  Coefficient  Atom+Function         Bfn.  Coefficient  Atom+Function  
  ----- ------------  ---------------      ----- ------------  ---------------
    10      0.357111  1 O  s                  9      0.354282  1 O  pz         
    13      0.315256  1 O  pz                 5      0.263003  1 O  pz         
     6      0.214399  1 O  s                 46     -0.096149  2 H  s          
    65     -0.096149  3 H  s                 47     -0.084552  2 H  s          
    66     -0.084552  3 H  s                  2     -0.080783  1 O  s          
 
 Vector    5  Occ=2.000000D+00  E=-2.686420D-01  Symmetry=b2
              MO Center=  1.6D-16, -1.7D-15,  7.7D-02, r^2= 7.1D-01
   Bfn.  Coefficient  Atom+Function         Bfn.  Coefficient  Atom+Function  
  ----- ------------  ---------------      ----- ------------  ---------------
     8      0.416391  1 O  py                12      0.388790  1 O  py         
     4      0.300626  1 O  py                16      0.099789  1 O  py         
    34     -0.036065  1 O  dyz        
 
 Vector    6  Occ=0.000000D+00  E=-2.704147D-02  Symmetry=a1
              MO Center=  1.0D-15,  1.6D-15, -7.7D-01, r^2= 6.3D+00
   Bfn.  Coefficient  Atom+Function         Bfn.  Coefficient  Atom+Function  
  ----- ------------  ---------------      ----- ------------  ---------------
    14      0.788288  1 O  s                 49     -0.564527  2 H  s          
    68     -0.564527  3 H  s                 10      0.341484  1 O  s          
    48     -0.341144  2 H  s                 67     -0.341144  3 H  s          
     6      0.171457  1 O  s                 13     -0.163017  1 O  pz         
     9     -0.116079  1 O  pz                47     -0.112455  2 H  s          
 
 Vector    7  Occ=0.000000D+00  E= 2.761998D-02  Symmetry=b1
              MO Center= -4.3D-14,  4.4D-16, -7.1D-01, r^2= 9.8D+00
   Bfn.  Coefficient  Atom+Function         Bfn.  Coefficient  Atom+Function  
  ----- ------------  ---------------      ----- ------------  ---------------
    49      2.009167  2 H  s                 68     -2.009167  3 H  s          
    15      0.388573  1 O  px                48      0.233646  2 H  s          
    67     -0.233646  3 H  s                  7      0.141456  1 O  px         
    11      0.100643  1 O  px                 3      0.096996  1 O  px         
    56     -0.073520  2 H  px                75     -0.073520  3 H  px         
 
 Vector    8  Occ=0.000000D+00  E= 1.271674D-01  Symmetry=a1
              MO Center=  1.4D-13,  1.2D-14, -5.4D-01, r^2= 8.0D+00
   Bfn.  Coefficient  Atom+Function         Bfn.  Coefficient  Atom+Function  
  ----- ------------  ---------------      ----- ------------  ---------------
    48      2.188677  2 H  s                 67      2.188677  3 H  s          
    14     -1.393671  1 O  s                 49     -0.920625  2 H  s          
    68     -0.920625  3 H  s                 17      0.438759  1 O  pz         
    10     -0.385300  1 O  s                 13      0.330084  1 O  pz         
     6     -0.246674  1 O  s                 33     -0.186607  1 O  dyy        
 
 Vector    9  Occ=0.000000D+00  E= 1.383904D-01  Symmetry=b1
              MO Center= -1.5D-13, -2.1D-29, -1.1D-02, r^2= 6.4D+00
   Bfn.  Coefficient  Atom+Function         Bfn.  Coefficient  Atom+Function  
  ----- ------------  ---------------      ----- ------------  ---------------
    48      3.844170  2 H  s                 67     -3.844170  3 H  s          
    15      1.874425  1 O  px                49     -1.435282  2 H  s          
    68      1.435282  3 H  s                 11      0.773618  1 O  px         
    56      0.386482  2 H  px                75      0.386482  3 H  px         
    47      0.337244  2 H  s                 66     -0.337244  3 H  s          
 
 Vector   10  Occ=0.000000D+00  E= 1.450276D-01  Symmetry=a1
              MO Center=  1.5D-16, -7.4D-20,  6.1D-01, r^2= 5.1D+00
   Bfn.  Coefficient  Atom+Function         Bfn.  Coefficient  Atom+Function  
  ----- ------------  ---------------      ----- ------------  ---------------
    17      1.976484  1 O  pz                14     -1.764915  1 O  s          
    48      1.765074  2 H  s                 67      1.765074  3 H  s          
    13     -0.351508  1 O  pz                 6     -0.257350  1 O  s          
    49     -0.251495  2 H  s                 68     -0.251495  3 H  s          
    35     -0.226501  1 O  dzz               33     -0.216092  1 O  dyy        
 
 Vector   11  Occ=0.000000D+00  E= 1.452958D-01  Symmetry=b2
              MO Center= -1.3D-15,  4.6D-15,  1.7D-01, r^2= 5.0D+00
   Bfn.  Coefficient  Atom+Function         Bfn.  Coefficient  Atom+Function  
  ----- ------------  ---------------      ----- ------------  ---------------
    16      1.296500  1 O  py                12     -0.457266  1 O  py         
     8     -0.163773  1 O  py                 4     -0.137264  1 O  py         
    57     -0.074444  2 H  py                76     -0.074444  3 H  py         
    34     -0.056326  1 O  dyz        
 
 Vector   12  Occ=0.000000D+00  E= 1.983434D-01  Symmetry=a1
              MO Center=  3.5D-14, -1.7D-14, -2.7D-01, r^2= 6.4D+00
   Bfn.  Coefficient  Atom+Function         Bfn.  Coefficient  Atom+Function  
  ----- ------------  ---------------      ----- ------------  ---------------
    14     11.919645  1 O  s                 48     -6.095948  2 H  s          
    67     -6.095948  3 H  s                 17     -3.219204  1 O  pz         
    10      1.312989  1 O  s                 13     -0.784862  1 O  pz         
    56     -0.599755  2 H  px                75      0.599755  3 H  px         
    47     -0.564792  2 H  s                 66     -0.564792  3 H  s          
 
 Vector   13  Occ=0.000000D+00  E= 2.115972D-01  Symmetry=b1
              MO Center=  3.8D-15, -2.0D-15,  9.8D-02, r^2= 7.9D+00
   Bfn.  Coefficient  Atom+Function         Bfn.  Coefficient  Atom+Function  
  ----- ------------  ---------------      ----- ------------  ---------------
    15      3.108684  1 O  px                48      2.214025  2 H  s          
    67     -2.214025  3 H  s                 49      2.012793  2 H  s          
    68     -2.012793  3 H  s                 58      0.345041  2 H  pz         
    77     -0.345041  3 H  pz                56      0.317058  2 H  px         
    75      0.317058  3 H  px                47      0.315253  2 H  s          
 
 Vector   14  Occ=0.000000D+00  E= 3.168333D-01  Symmetry=a1
              MO Center=  3.6D-15,  1.5D-16, -2.9D-01, r^2= 3.6D+00
   Bfn.  Coefficient  Atom+Function         Bfn.  Coefficient  Atom+Function  
  ----- ------------  ---------------      ----- ------------  ---------------
    14      4.559697  1 O  s                 48     -2.696366  2 H  s          
    67     -2.696366  3 H  s                 17     -2.147838  1 O  pz         
    13     -0.829886  1 O  pz                56     -0.801937  2 H  px         
    75      0.801937  3 H  px                58      0.637787  2 H  pz         
    77      0.637787  3 H  pz                10      0.502514  1 O  s          
 
 Vector   15  Occ=0.000000D+00  E= 3.449230D-01  Symmetry=a2
              MO Center= -8.0D-15,  8.4D-16, -5.1D-01, r^2= 3.1D+00
   Bfn.  Coefficient  Atom+Function         Bfn.  Coefficient  Atom+Function  
  ----- ------------  ---------------      ----- ------------  ---------------
    57      1.031712  2 H  py                76     -1.031712  3 H  py         
    31      0.169085  1 O  dxy               25     -0.058281  1 O  dxy        
 
 Vector   16  Occ=0.000000D+00  E= 3.832717D-01  Symmetry=b2
              MO Center=  9.6D-15, -5.3D-16, -3.1D-01, r^2= 3.5D+00
   Bfn.  Coefficient  Atom+Function         Bfn.  Coefficient  Atom+Function  
  ----- ------------  ---------------      ----- ------------  ---------------
    57      1.180294  2 H  py                76      1.180294  3 H  py         
    16     -1.034547  1 O  py                12     -0.724310  1 O  py         
    34      0.097187  1 O  dyz                8     -0.078155  1 O  py         
     4     -0.072994  1 O  py                28     -0.043751  1 O  dyz        
    60      0.031486  2 H  dxy               79     -0.031486  3 H  dxy        
 
 Vector   17  Occ=0.000000D+00  E= 4.102155D-01  Symmetry=b1
              MO Center= -6.5D-13,  5.5D-16, -1.4D-01, r^2= 5.6D+00
   Bfn.  Coefficient  Atom+Function         Bfn.  Coefficient  Atom+Function  
  ----- ------------  ---------------      ----- ------------  ---------------
    48      7.324981  2 H  s                 67     -7.324981  3 H  s          
    15      2.838790  1 O  px                11      1.656724  1 O  px         
    56      1.481615  2 H  px                75      1.481615  3 H  px         
    49     -1.273345  2 H  s                 68      1.273345  3 H  s          
    58      1.259249  2 H  pz                77     -1.259249  3 H  pz         
 
 Vector   18  Occ=0.000000D+00  E= 4.693099D-01  Symmetry=a1
              MO Center=  7.4D-13, -2.9D-17, -4.0D-01, r^2= 4.7D+00
   Bfn.  Coefficient  Atom+Function         Bfn.  Coefficient  Atom+Function  
  ----- ------------  ---------------      ----- ------------  ---------------
    14      8.093415  1 O  s                 48     -6.936652  2 H  s          
    67     -6.936652  3 H  s                 17     -2.301790  1 O  pz         
    10      1.955941  1 O  s                 56     -1.238003  2 H  px         
    75      1.238003  3 H  px                58     -1.132946  2 H  pz         
    77     -1.132946  3 H  pz                30      1.051935  1 O  dxx        
 
 Vector   19  Occ=0.000000D+00  E= 5.447240D-01  Symmetry=b1
              MO Center= -2.7D-16,  4.3D-16, -5.0D-01, r^2= 4.1D+00
   Bfn.  Coefficient  Atom+Function         Bfn.  Coefficient  Atom+Function  
  ----- ------------  ---------------      ----- ------------  ---------------
    15      1.822136  1 O  px                58      1.289845  2 H  pz         
    77     -1.289845  3 H  pz                56     -1.247195  2 H  px         
    75     -1.247195  3 H  px                11      0.805409  1 O  px         
    49      0.801438  2 H  s                 68     -0.801438  3 H  s          
    47      0.572242  2 H  s                 66     -0.572242  3 H  s          
 
 Vector   20  Occ=0.000000D+00  E= 6.315150D-01  Symmetry=a1
              MO Center= -5.2D-14, -1.4D-16, -7.3D-01, r^2= 4.2D+00
   Bfn.  Coefficient  Atom+Function         Bfn.  Coefficient  Atom+Function  
  ----- ------------  ---------------      ----- ------------  ---------------
    14      9.786543  1 O  s                 10      7.227205  1 O  s          
    48     -6.209478  2 H  s                 67     -6.209478  3 H  s          
    47     -3.264793  2 H  s                 66     -3.264793  3 H  s          
    13     -2.807098  1 O  pz                56     -2.648932  2 H  px         
    75      2.648932  3 H  px                17     -2.047857  1 O  pz         
 
 Vector   21  Occ=0.000000D+00  E= 7.077899D-01  Symmetry=b1
              MO Center= -6.2D-14, -1.9D-16, -7.1D-01, r^2= 4.2D+00
   Bfn.  Coefficient  Atom+Function         Bfn.  Coefficient  Atom+Function  
  ----- ------------  ---------------      ----- ------------  ---------------
    48      7.686812  2 H  s                 67     -7.686812  3 H  s          
    11      4.363092  1 O  px                47      3.868762  2 H  s          
    66     -3.868762  3 H  s                 56      3.627921  2 H  px         
    75      3.627921  3 H  px                15      2.463458  1 O  px         
    58      2.384273  2 H  pz                77     -2.384273  3 H  pz         
 
 Vector   22  Occ=0.000000D+00  E= 8.628824D-01  Symmetry=a1
              MO Center=  1.8D-15,  2.4D-15, -6.7D-02, r^2= 2.9D+00
   Bfn.  Coefficient  Atom+Function         Bfn.  Coefficient  Atom+Function  
  ----- ------------  ---------------      ----- ------------  ---------------
    14      3.548801  1 O  s                 33     -2.428452  1 O  dyy        
    10      1.414458  1 O  s                 35     -1.340920  1 O  dzz        
    17     -0.810773  1 O  pz                30     -0.812312  1 O  dxx        
    56      0.424660  2 H  px                75     -0.424660  3 H  px         
    49     -0.403553  2 H  s                 68     -0.403553  3 H  s          
 
 Vector   23  Occ=0.000000D+00  E= 9.041889D-01  Symmetry=b2
              MO Center=  2.2D-16,  3.5D-14,  4.8D-01, r^2= 2.0D+00
   Bfn.  Coefficient  Atom+Function         Bfn.  Coefficient  Atom+Function  
  ----- ------------  ---------------      ----- ------------  ---------------
    34      1.851841  1 O  dyz               16     -0.923720  1 O  py         
    57      0.649859  2 H  py                76      0.649859  3 H  py         
    12      0.355159  1 O  py                 8     -0.336364  1 O  py         
     4     -0.152652  1 O  py                44     -0.055493  1 O  fyzz       
    37     -0.039678  1 O  fxxy              22      0.027392  1 O  dyz        
 
 Vector   24  Occ=0.000000D+00  E= 9.132482D-01  Symmetry=a1
              MO Center=  2.2D-15, -3.7D-14,  8.6D-01, r^2= 1.8D+00
   Bfn.  Coefficient  Atom+Function         Bfn.  Coefficient  Atom+Function  
  ----- ------------  ---------------      ----- ------------  ---------------
    48     -1.680145  2 H  s                 67     -1.680145  3 H  s          
    35      1.661130  1 O  dzz               14      1.573247  1 O  s          
    17     -1.418387  1 O  pz                10     -1.182162  1 O  s          
    30      0.985681  1 O  dxx               13      0.909707  1 O  pz         
    33      0.814064  1 O  dyy               56     -0.548453  2 H  px         
 
 Vector   25  Occ=0.000000D+00  E= 9.611768D-01  Symmetry=a2
              MO Center= -7.7D-15,  5.8D-15, -1.0D-02, r^2= 2.2D+00
   Bfn.  Coefficient  Atom+Function         Bfn.  Coefficient  Atom+Function  
  ----- ------------  ---------------      ----- ------------  ---------------
    31      2.495917  1 O  dxy               57      0.945009  2 H  py         
    76     -0.945009  3 H  py                40     -0.101296  1 O  fxyz       
    60      0.061764  2 H  dxy               79      0.061764  3 H  dxy        
    63      0.050564  2 H  dyz               82     -0.050564  3 H  dyz        
    25      0.037267  1 O  dxy               19      0.029053  1 O  dxy        
 
 Vector   26  Occ=0.000000D+00  E= 9.953134D-01  Symmetry=b1
              MO Center= -7.3D-14, -6.3D-15,  3.8D-01, r^2= 2.5D+00
   Bfn.  Coefficient  Atom+Function         Bfn.  Coefficient  Atom+Function  
  ----- ------------  ---------------      ----- ------------  ---------------
    32      1.503494  1 O  dxz               11      1.257883  1 O  px         
    49     -0.901280  2 H  s                 68      0.901280  3 H  s          
    15     -0.838982  1 O  px                47     -0.811218  2 H  s          
    66      0.811218  3 H  s                 48      0.539823  2 H  s          
    67     -0.539823  3 H  s                  7     -0.465343  1 O  px         
 
 Vector   27  Occ=0.000000D+00  E= 1.006480D+00  Symmetry=a1
              MO Center=  7.8D-14,  1.4D-15, -2.7D-01, r^2= 2.2D+00
   Bfn.  Coefficient  Atom+Function         Bfn.  Coefficient  Atom+Function  
  ----- ------------  ---------------      ----- ------------  ---------------
    14      2.245017  1 O  s                 13     -1.670464  1 O  pz         
    30     -1.466392  1 O  dxx               10      1.177077  1 O  s          
    35      1.092301  1 O  dzz               48     -1.042501  2 H  s          
    67     -1.042501  3 H  s                 17     -0.923249  1 O  pz         
    58      0.837517  2 H  pz                77      0.837517  3 H  pz         
 
 Vector   28  Occ=0.000000D+00  E= 1.048422D+00  Symmetry=b2
              MO Center=  8.7D-15, -2.4D-15, -3.4D-01, r^2= 1.9D+00
   Bfn.  Coefficient  Atom+Function         Bfn.  Coefficient  Atom+Function  
  ----- ------------  ---------------      ----- ------------  ---------------
    12      2.128624  1 O  py                34     -1.514103  1 O  dyz        
    57     -0.873979  2 H  py                76     -0.873979  3 H  py         
     8     -0.617467  1 O  py                 4     -0.257059  1 O  py         
    42     -0.088610  1 O  fyyy              60     -0.085892  2 H  dxy        
    79      0.085892  3 H  dxy               63     -0.068878  2 H  dyz        
 
 Vector   29  Occ=0.000000D+00  E= 1.367451D+00  Symmetry=a1
              MO Center= -7.7D-13, -1.3D-16, -1.4D-01, r^2= 2.7D+00
   Bfn.  Coefficient  Atom+Function         Bfn.  Coefficient  Atom+Function  
  ----- ------------  ---------------      ----- ------------  ---------------
    10      8.225445  1 O  s                 14      7.878240  1 O  s          
    48     -6.427859  2 H  s                 67     -6.427859  3 H  s          
    13     -5.822371  1 O  pz                47     -5.543315  2 H  s          
    66     -5.543315  3 H  s                 30      4.068102  1 O  dxx        
    35      2.737270  1 O  dzz               56     -2.602984  2 H  px         
 
 Vector   30  Occ=0.000000D+00  E= 1.455976D+00  Symmetry=b1
              MO Center=  7.9D-13,  2.7D-16, -5.6D-02, r^2= 2.7D+00
   Bfn.  Coefficient  Atom+Function         Bfn.  Coefficient  Atom+Function  
  ----- ------------  ---------------      ----- ------------  ---------------
    11     10.030814  1 O  px                47      7.874602  2 H  s          
    66     -7.874602  3 H  s                 32     -7.058563  1 O  dxz        
    48      6.292199  2 H  s                 67     -6.292199  3 H  s          
    56      2.729902  2 H  px                75      2.729902  3 H  px         
    58      2.487461  2 H  pz                77     -2.487461  3 H  pz         
 
 Vector   31  Occ=0.000000D+00  E= 1.766755D+00  Symmetry=a2
              MO Center= -8.8D-15,  1.7D-16, -3.2D-01, r^2= 1.5D+00
   Bfn.  Coefficient  Atom+Function         Bfn.  Coefficient  Atom+Function  
  ----- ------------  ---------------      ----- ------------  ---------------
    31      1.159335  1 O  dxy               54      0.982030  2 H  py         
    73     -0.982030  3 H  py                57     -0.275345  2 H  py         
    76      0.275345  3 H  py                25     -0.140408  1 O  dxy        
    51     -0.056245  2 H  py                70      0.056245  3 H  py         
    63     -0.033447  2 H  dyz               82      0.033447  3 H  dyz        
 
 Vector   32  Occ=0.000000D+00  E= 1.831857D+00  Symmetry=a1
              MO Center= -1.8D-14,  4.8D-18, -6.1D-01, r^2= 2.7D+00
   Bfn.  Coefficient  Atom+Function         Bfn.  Coefficient  Atom+Function  
  ----- ------------  ---------------      ----- ------------  ---------------
    10      8.601094  1 O  s                 47     -6.394131  2 H  s          
    66     -6.394131  3 H  s                 13     -3.503280  1 O  pz         
    14      2.407717  1 O  s                 56     -1.513013  2 H  px         
    75      1.513013  3 H  px                46      1.141001  2 H  s          
    65      1.141001  3 H  s                 58     -1.107917  2 H  pz         
 
 Vector   33  Occ=0.000000D+00  E= 1.864010D+00  Symmetry=b1
              MO Center=  7.3D-14, -8.4D-17, -5.1D-01, r^2= 2.3D+00
   Bfn.  Coefficient  Atom+Function         Bfn.  Coefficient  Atom+Function  
  ----- ------------  ---------------      ----- ------------  ---------------
    47      5.798851  2 H  s                 66     -5.798851  3 H  s          
    11      4.154842  1 O  px                56      2.228590  2 H  px         
    75      2.228590  3 H  px                48      1.973580  2 H  s          
    67     -1.973580  3 H  s                 58      1.152492  2 H  pz         
    77     -1.152492  3 H  pz                46     -1.113660  2 H  s          
 
 Vector   34  Occ=0.000000D+00  E= 1.866691D+00  Symmetry=b2
              MO Center=  7.7D-15, -5.0D-17, -4.1D-01, r^2= 1.5D+00
   Bfn.  Coefficient  Atom+Function         Bfn.  Coefficient  Atom+Function  
  ----- ------------  ---------------      ----- ------------  ---------------
    54      1.015173  2 H  py                73      1.015173  3 H  py         
    34      0.855784  1 O  dyz               12     -0.525970  1 O  py         
    16      0.361553  1 O  py                57     -0.330783  2 H  py         
    76     -0.330783  3 H  py                28     -0.138688  1 O  dyz        
    51     -0.057273  2 H  py                70     -0.057273  3 H  py         
 
 Vector   35  Occ=0.000000D+00  E= 1.916894D+00  Symmetry=b1
              MO Center= -4.5D-15,  1.7D-16, -4.7D-01, r^2= 1.9D+00
   Bfn.  Coefficient  Atom+Function         Bfn.  Coefficient  Atom+Function  
  ----- ------------  ---------------      ----- ------------  ---------------
    32      0.890648  1 O  dxz               47      0.875302  2 H  s          
    66     -0.875302  3 H  s                 55     -0.749318  2 H  pz         
    74      0.749318  3 H  pz                15      0.662780  1 O  px         
    48     -0.662416  2 H  s                 67      0.662416  3 H  s          
    46     -0.649002  2 H  s                 65      0.649002  3 H  s          
 
 Vector   36  Occ=0.000000D+00  E= 2.067382D+00  Symmetry=a1
              MO Center=  7.6D-16, -2.3D-17, -3.1D-01, r^2= 1.6D+00
   Bfn.  Coefficient  Atom+Function         Bfn.  Coefficient  Atom+Function  
  ----- ------------  ---------------      ----- ------------  ---------------
    35      1.710400  1 O  dzz               13     -1.362582  1 O  pz         
    55      0.978103  2 H  pz                74      0.978103  3 H  pz         
    53     -0.723254  2 H  px                72      0.723254  3 H  px         
    30     -0.714554  1 O  dxx               48     -0.530539  2 H  s          
    67     -0.530539  3 H  s                 14      0.440833  1 O  s          
 
 Vector   37  Occ=0.000000D+00  E= 2.564922D+00  Symmetry=a1
              MO Center=  9.5D-15,  1.7D-18,  1.2D-01, r^2= 1.6D+00
   Bfn.  Coefficient  Atom+Function         Bfn.  Coefficient  Atom+Function  
  ----- ------------  ---------------      ----- ------------  ---------------
    10     12.440416  1 O  s                 33     -3.774082  1 O  dyy        
     6     -2.738312  1 O  s                 47     -2.622212  2 H  s          
    66     -2.622212  3 H  s                 13     -2.335917  1 O  pz         
    35     -2.207197  1 O  dzz               30     -1.982772  1 O  dxx        
    14      1.940651  1 O  s                 53     -1.461948  2 H  px         
 
 Vector   38  Occ=0.000000D+00  E= 2.728190D+00  Symmetry=b1
              MO Center= -3.1D-14, -1.1D-16, -5.1D-01, r^2= 1.8D+00
   Bfn.  Coefficient  Atom+Function         Bfn.  Coefficient  Atom+Function  
  ----- ------------  ---------------      ----- ------------  ---------------
    47      8.420260  2 H  s                 66     -8.420260  3 H  s          
    11      7.447398  1 O  px                32     -5.006245  1 O  dxz        
    48      1.686129  2 H  s                 67     -1.686129  3 H  s          
    56      1.601521  2 H  px                75      1.601521  3 H  px         
    58      1.213280  2 H  pz                77     -1.213280  3 H  pz         
 
 Vector   39  Occ=0.000000D+00  E= 2.801322D+00  Symmetry=a1
              MO Center=  1.2D-14, -2.6D-17, -3.2D-01, r^2= 1.3D+00
   Bfn.  Coefficient  Atom+Function         Bfn.  Coefficient  Atom+Function  
  ----- ------------  ---------------      ----- ------------  ---------------
    47      2.966499  2 H  s                 66      2.966499  3 H  s          
    13      2.789416  1 O  pz                35     -2.725889  1 O  dzz        
    30     -1.882912  1 O  dxx               14     -1.523803  1 O  s          
    48      1.444945  2 H  s                 67      1.444945  3 H  s          
     6     -1.332320  1 O  s                 56      0.968246  2 H  px         
 
 Vector   40  Occ=0.000000D+00  E= 2.906831D+00  Symmetry=b2
              MO Center=  6.5D-17,  1.3D-16, -3.5D-01, r^2= 1.1D+00
   Bfn.  Coefficient  Atom+Function         Bfn.  Coefficient  Atom+Function  
  ----- ------------  ---------------      ----- ------------  ---------------
    34      1.055816  1 O  dyz               63     -0.863598  2 H  dyz        
    82     -0.863598  3 H  dyz               60      0.795095  2 H  dxy        
    79     -0.795095  3 H  dxy               28     -0.332441  1 O  dyz        
    12     -0.329251  1 O  py                44      0.281039  1 O  fyzz       
    37     -0.230409  1 O  fxxy              57      0.206770  2 H  py         
 
 Vector   41  Occ=0.000000D+00  E= 2.974886D+00  Symmetry=a1
              MO Center=  1.8D-14, -1.0D-17, -3.0D-01, r^2= 1.9D+00
   Bfn.  Coefficient  Atom+Function         Bfn.  Coefficient  Atom+Function  
  ----- ------------  ---------------      ----- ------------  ---------------
    47      7.099511  2 H  s                 66      7.099511  3 H  s          
    13      4.808962  1 O  pz                30     -4.442613  1 O  dxx        
    35     -3.652650  1 O  dzz                6     -2.473680  1 O  s          
    33     -2.314466  1 O  dyy               10     -1.743546  1 O  s          
    48      1.515604  2 H  s                 67      1.515604  3 H  s          
 
 Vector   42  Occ=0.000000D+00  E= 3.045580D+00  Symmetry=a2
              MO Center= -1.8D-15,  1.5D-16, -1.9D-01, r^2= 1.2D+00
   Bfn.  Coefficient  Atom+Function         Bfn.  Coefficient  Atom+Function  
  ----- ------------  ---------------      ----- ------------  ---------------
    31      1.543348  1 O  dxy               25     -1.063823  1 O  dxy        
    63      0.742380  2 H  dyz               82     -0.742380  3 H  dyz        
    60      0.618159  2 H  dxy               79      0.618159  3 H  dxy        
    57      0.518478  2 H  py                76     -0.518478  3 H  py         
    40     -0.326115  1 O  fxyz              54      0.037017  2 H  py         
 
 Vector   43  Occ=0.000000D+00  E= 3.138215D+00  Symmetry=a1
              MO Center= -1.5D-13,  5.3D-18, -2.9D-01, r^2= 1.2D+00
   Bfn.  Coefficient  Atom+Function         Bfn.  Coefficient  Atom+Function  
  ----- ------------  ---------------      ----- ------------  ---------------
    30      1.885186  1 O  dxx               10     -1.661398  1 O  s          
     6      0.759665  1 O  s                 33      0.631582  1 O  dyy        
    29      0.600547  1 O  dzz               64     -0.558161  2 H  dzz        
    83     -0.558161  3 H  dzz               58     -0.542595  2 H  pz         
    77     -0.542595  3 H  pz                62      0.537066  2 H  dyy        
 
 Vector   44  Occ=0.000000D+00  E= 3.152196D+00  Symmetry=b2
              MO Center=  2.0D-15,  2.1D-17, -1.9D-01, r^2= 1.1D+00
   Bfn.  Coefficient  Atom+Function         Bfn.  Coefficient  Atom+Function  
  ----- ------------  ---------------      ----- ------------  ---------------
    34     -1.232473  1 O  dyz               28      1.161625  1 O  dyz        
    63     -0.729782  2 H  dyz               82     -0.729782  3 H  dyz        
    12      0.649598  1 O  py                60     -0.622851  2 H  dxy        
    79      0.622851  3 H  dxy               57     -0.524015  2 H  py         
    76     -0.524015  3 H  py                16      0.280939  1 O  py         
 
 Vector   45  Occ=0.000000D+00  E= 3.172756D+00  Symmetry=b1
              MO Center=  1.5D-13, -1.2D-16, -3.6D-01, r^2= 1.3D+00
   Bfn.  Coefficient  Atom+Function         Bfn.  Coefficient  Atom+Function  
  ----- ------------  ---------------      ----- ------------  ---------------
    47      3.105814  2 H  s                 66     -3.105814  3 H  s          
    11      2.769821  1 O  px                32     -2.773163  1 O  dxz        
    48      1.206235  2 H  s                 67     -1.206235  3 H  s          
    56      0.810861  2 H  px                75      0.810861  3 H  px         
    61      0.643990  2 H  dxz               80      0.643990  3 H  dxz        
 
 Vector   46  Occ=0.000000D+00  E= 3.272758D+00  Symmetry=a2
              MO Center= -3.5D-16,  1.1D-17, -4.6D-01, r^2= 1.2D+00
   Bfn.  Coefficient  Atom+Function         Bfn.  Coefficient  Atom+Function  
  ----- ------------  ---------------      ----- ------------  ---------------
    60      0.961848  2 H  dxy               79      0.961848  3 H  dxy        
    63     -0.875049  2 H  dyz               82      0.875049  3 H  dyz        
    31     -0.566189  1 O  dxy               54     -0.122180  2 H  py         
    73      0.122180  3 H  py         
 
 Vector   47  Occ=0.000000D+00  E= 3.569798D+00  Symmetry=a1
              MO Center= -5.0D-15, -2.3D-18,  1.1D-01, r^2= 9.2D-01
   Bfn.  Coefficient  Atom+Function         Bfn.  Coefficient  Atom+Function  
  ----- ------------  ---------------      ----- ------------  ---------------
    14      2.369402  1 O  s                 48     -1.708052  2 H  s          
    67     -1.708052  3 H  s                 30      1.611567  1 O  dxx        
    35      1.507345  1 O  dzz               47     -1.472831  2 H  s          
    66     -1.472831  3 H  s                 27      1.356310  1 O  dyy        
    10     -1.300318  1 O  s                  6      1.159676  1 O  s          
 
 Vector   48  Occ=0.000000D+00  E= 3.615318D+00  Symmetry=b1
              MO Center=  1.8D-15,  3.4D-17, -1.0D-01, r^2= 1.2D+00
   Bfn.  Coefficient  Atom+Function         Bfn.  Coefficient  Atom+Function  
  ----- ------------  ---------------      ----- ------------  ---------------
    11      1.284877  1 O  px                26     -0.859709  1 O  dxz        
    62      0.805031  2 H  dyy               81     -0.805031  3 H  dyy        
    41     -0.737516  1 O  fxzz              32     -0.587467  1 O  dxz        
    61     -0.494680  2 H  dxz               80     -0.494680  3 H  dxz        
    15     -0.393131  1 O  px                36     -0.387782  1 O  fxxx       
 
 Vector   49  Occ=0.000000D+00  E= 3.916189D+00  Symmetry=b1
              MO Center= -9.8D-17,  5.2D-17, -4.0D-01, r^2= 1.2D+00
   Bfn.  Coefficient  Atom+Function         Bfn.  Coefficient  Atom+Function  
  ----- ------------  ---------------      ----- ------------  ---------------
    11      2.832602  1 O  px                47      2.013386  2 H  s          
    66     -2.013386  3 H  s                 32     -1.783327  1 O  dxz        
    48      1.493943  2 H  s                 67     -1.493943  3 H  s          
    61      1.322823  2 H  dxz               80      1.322823  3 H  dxz        
    58      0.818614  2 H  pz                77     -0.818614  3 H  pz         
 
 Vector   50  Occ=0.000000D+00  E= 3.989540D+00  Symmetry=b2
              MO Center=  1.2D-15,  1.9D-18, -2.5D-02, r^2= 8.9D-01
   Bfn.  Coefficient  Atom+Function         Bfn.  Coefficient  Atom+Function  
  ----- ------------  ---------------      ----- ------------  ---------------
    28      1.524291  1 O  dyz               60      0.900064  2 H  dxy        
    79     -0.900064  3 H  dxy               12     -0.690913  1 O  py         
    63      0.515738  2 H  dyz               82      0.515738  3 H  dyz        
    44      0.457377  1 O  fyzz              37      0.438781  1 O  fxxy       
     4     -0.366266  1 O  py                 8     -0.258165  1 O  py         
 
 Vector   51  Occ=0.000000D+00  E= 4.135363D+00  Symmetry=a1
              MO Center=  2.4D-15, -3.5D-18, -2.8D-01, r^2= 1.4D+00
   Bfn.  Coefficient  Atom+Function         Bfn.  Coefficient  Atom+Function  
  ----- ------------  ---------------      ----- ------------  ---------------
    47      2.045128  2 H  s                 66      2.045128  3 H  s          
    10      1.513991  1 O  s                 48     -1.432962  2 H  s          
    59     -1.439398  2 H  dxx               67     -1.432962  3 H  s          
    78     -1.439398  3 H  dxx               14      1.319312  1 O  s          
    62     -0.973965  2 H  dyy               81     -0.973965  3 H  dyy        
 
 Vector   52  Occ=0.000000D+00  E= 4.243518D+00  Symmetry=a2
              MO Center= -9.1D-16,  3.5D-17, -7.6D-02, r^2= 8.7D-01
   Bfn.  Coefficient  Atom+Function         Bfn.  Coefficient  Atom+Function  
  ----- ------------  ---------------      ----- ------------  ---------------
    25      1.756560  1 O  dxy               40      0.842660  1 O  fxyz       
    63      0.820933  2 H  dyz               82     -0.820933  3 H  dyz        
    60      0.742240  2 H  dxy               79      0.742240  3 H  dxy        
    54      0.205295  2 H  py                73     -0.205295  3 H  py         
    31     -0.149731  1 O  dxy               57      0.032662  2 H  py         
 
 Vector   53  Occ=0.000000D+00  E= 4.264680D+00  Symmetry=a1
              MO Center= -4.8D-14,  1.4D-17, -3.7D-01, r^2= 1.3D+00
   Bfn.  Coefficient  Atom+Function         Bfn.  Coefficient  Atom+Function  
  ----- ------------  ---------------      ----- ------------  ---------------
    47      3.712510  2 H  s                 66      3.712510  3 H  s          
    10     -3.053444  1 O  s                 13      1.843914  1 O  pz         
    14     -1.337788  1 O  s                 61      1.217618  2 H  dxz        
    80     -1.217618  3 H  dxz                6     -1.039103  1 O  s          
    29     -0.966799  1 O  dzz               53      0.917919  2 H  px         
 
 Vector   54  Occ=0.000000D+00  E= 4.310611D+00  Symmetry=b1
              MO Center=  3.4D-14, -5.6D-19, -4.2D-01, r^2= 1.5D+00
   Bfn.  Coefficient  Atom+Function         Bfn.  Coefficient  Atom+Function  
  ----- ------------  ---------------      ----- ------------  ---------------
    47      4.196253  2 H  s                 66     -4.196253  3 H  s          
    11      1.438436  1 O  px                62     -1.189464  2 H  dyy        
    81      1.189464  3 H  dyy               64     -1.095663  2 H  dzz        
    83      1.095663  3 H  dzz               59     -1.011412  2 H  dxx        
    78      1.011412  3 H  dxx               56      0.714235  2 H  px         
 
 Vector   55  Occ=0.000000D+00  E= 4.761585D+00  Symmetry=b1
              MO Center=  1.6D-14, -4.3D-17, -1.4D-01, r^2= 9.2D-01
   Bfn.  Coefficient  Atom+Function         Bfn.  Coefficient  Atom+Function  
  ----- ------------  ---------------      ----- ------------  ---------------
    11      1.902847  1 O  px                26     -1.613651  1 O  dxz        
    48      1.456661  2 H  s                 67     -1.456661  3 H  s          
    39     -1.396484  1 O  fxyy              47      1.402031  2 H  s          
    66     -1.402031  3 H  s                  7      1.261617  1 O  px         
    59      0.994698  2 H  dxx               78     -0.994698  3 H  dxx        
 
 Vector   56  Occ=0.000000D+00  E= 4.811747D+00  Symmetry=b2
              MO Center=  3.4D-17,  3.1D-18,  4.3D-02, r^2= 5.6D-01
   Bfn.  Coefficient  Atom+Function         Bfn.  Coefficient  Atom+Function  
  ----- ------------  ---------------      ----- ------------  ---------------
    42      1.390913  1 O  fyyy              12     -0.638379  1 O  py         
     4     -0.615425  1 O  py                44      0.548492  1 O  fyzz       
    28     -0.485092  1 O  dyz               60     -0.372032  2 H  dxy        
    79      0.372032  3 H  dxy                8     -0.366722  1 O  py         
    37      0.342566  1 O  fxxy              63     -0.243225  2 H  dyz        
 
 Vector   57  Occ=0.000000D+00  E= 4.873915D+00  Symmetry=a1
              MO Center=  3.0D-15, -4.7D-18, -9.4D-02, r^2= 8.2D-01
   Bfn.  Coefficient  Atom+Function         Bfn.  Coefficient  Atom+Function  
  ----- ------------  ---------------      ----- ------------  ---------------
    10      2.921173  1 O  s                 43      1.461807  1 O  fyyz       
    24      1.287590  1 O  dxx               61     -0.959910  2 H  dxz        
    80      0.959910  3 H  dxz               64     -0.879043  2 H  dzz        
    83     -0.879043  3 H  dzz               14      0.842318  1 O  s          
    55     -0.840839  2 H  pz                74     -0.840839  3 H  pz         
 
 Vector   58  Occ=0.000000D+00  E= 5.511645D+00  Symmetry=b2
              MO Center= -3.8D-17,  6.2D-19,  5.5D-02, r^2= 6.0D-01
   Bfn.  Coefficient  Atom+Function         Bfn.  Coefficient  Atom+Function  
  ----- ------------  ---------------      ----- ------------  ---------------
    44      2.432610  1 O  fyzz              37     -1.478701  1 O  fxxy       
    60     -0.452956  2 H  dxy               79      0.452956  3 H  dxy        
    63      0.410236  2 H  dyz               82      0.410236  3 H  dyz        
    34     -0.375132  1 O  dyz               42     -0.226820  1 O  fyyy       
    12      0.109828  1 O  py                28     -0.087860  1 O  dyz        
 
 Vector   59  Occ=0.000000D+00  E= 5.758717D+00  Symmetry=a1
              MO Center= -9.7D-14,  1.3D-18, -2.5D-02, r^2= 7.9D-01
   Bfn.  Coefficient  Atom+Function         Bfn.  Coefficient  Atom+Function  
  ----- ------------  ---------------      ----- ------------  ---------------
    43      2.368896  1 O  fyyz              47     -2.186541  2 H  s          
    66     -2.186541  3 H  s                 13     -1.928907  1 O  pz         
    35      1.815658  1 O  dzz               30      1.343905  1 O  dxx        
    61      1.333681  2 H  dxz               80     -1.333681  3 H  dxz        
    14      1.058311  1 O  s                 24     -0.957938  1 O  dxx        
 
 Vector   60  Occ=0.000000D+00  E= 5.795290D+00  Symmetry=b1
              MO Center=  9.8D-14, -2.7D-17, -1.3D-02, r^2= 7.4D-01
   Bfn.  Coefficient  Atom+Function         Bfn.  Coefficient  Atom+Function  
  ----- ------------  ---------------      ----- ------------  ---------------
    47      3.137317  2 H  s                 66     -3.137317  3 H  s          
    11      3.100114  1 O  px                39     -2.462882  1 O  fxyy       
    32     -2.202555  1 O  dxz               48      1.078687  2 H  s          
    67     -1.078687  3 H  s                 26      0.775790  1 O  dxz        
    59     -0.699055  2 H  dxx               78      0.699055  3 H  dxx        
 
 Vector   61  Occ=0.000000D+00  E= 6.170737D+00  Symmetry=a1
              MO Center= -2.3D-16,  3.2D-18, -8.9D-02, r^2= 7.4D-01
   Bfn.  Coefficient  Atom+Function         Bfn.  Coefficient  Atom+Function  
  ----- ------------  ---------------      ----- ------------  ---------------
    47      1.752222  2 H  s                 66      1.752222  3 H  s          
    38      1.679630  1 O  fxxz              45     -1.451160  1 O  fzzz       
    30     -1.424341  1 O  dxx               59     -1.027411  2 H  dxx        
    78     -1.027411  3 H  dxx               53     -0.548865  2 H  px         
    72      0.548865  3 H  px                29      0.499504  1 O  dzz        
 
 Vector   62  Occ=0.000000D+00  E= 6.237259D+00  Symmetry=b2
              MO Center=  3.8D-17,  2.3D-20, -7.0D-04, r^2= 6.9D-01
   Bfn.  Coefficient  Atom+Function         Bfn.  Coefficient  Atom+Function  
  ----- ------------  ---------------      ----- ------------  ---------------
    37      2.900085  1 O  fxxy              44      1.561004  1 O  fyzz       
    60     -0.947669  2 H  dxy               79      0.947669  3 H  dxy        
    28     -0.841978  1 O  dyz               34     -0.763829  1 O  dyz        
    63     -0.748601  2 H  dyz               82     -0.748601  3 H  dyz        
    54     -0.665415  2 H  py                73     -0.665415  3 H  py         
 
 Vector   63  Occ=0.000000D+00  E= 6.325572D+00  Symmetry=a2
              MO Center=  7.6D-17,  1.9D-17, -2.1D-03, r^2= 6.8D-01
   Bfn.  Coefficient  Atom+Function         Bfn.  Coefficient  Atom+Function  
  ----- ------------  ---------------      ----- ------------  ---------------
    40      4.856830  1 O  fxyz              25     -1.028549  1 O  dxy        
    31     -0.961777  1 O  dxy               60     -0.916733  2 H  dxy        
    79     -0.916733  3 H  dxy               63     -0.724419  2 H  dyz        
    82      0.724419  3 H  dyz               54     -0.681447  2 H  py         
    73      0.681447  3 H  py                57     -0.150588  2 H  py         
 
 Vector   64  Occ=0.000000D+00  E= 6.549093D+00  Symmetry=a1
              MO Center= -5.0D-15,  2.7D-18,  1.9D-01, r^2= 9.1D-01
   Bfn.  Coefficient  Atom+Function         Bfn.  Coefficient  Atom+Function  
  ----- ------------  ---------------      ----- ------------  ---------------
    10     13.766399  1 O  s                 33     -3.795462  1 O  dyy        
    38     -3.342514  1 O  fxxz              35     -2.897629  1 O  dzz        
    30     -2.873799  1 O  dxx               53     -2.523800  2 H  px         
    72      2.523800  3 H  px                27     -2.189260  1 O  dyy        
    55     -1.734050  2 H  pz                74     -1.734050  3 H  pz         
 
 Vector   65  Occ=0.000000D+00  E= 6.579371D+00  Symmetry=b1
              MO Center=  4.2D-15,  4.7D-18, -5.0D-02, r^2= 7.5D-01
   Bfn.  Coefficient  Atom+Function         Bfn.  Coefficient  Atom+Function  
  ----- ------------  ---------------      ----- ------------  ---------------
    41      3.491349  1 O  fxzz              47      2.519261  2 H  s          
    66     -2.519261  3 H  s                 11      1.913518  1 O  px         
    32     -1.826774  1 O  dxz               26     -1.756754  1 O  dxz        
    53      1.513950  2 H  px                72      1.513950  3 H  px         
    59      0.898465  2 H  dxx               78     -0.898465  3 H  dxx        
 
 Vector   66  Occ=0.000000D+00  E= 6.883366D+00  Symmetry=b1
              MO Center=  1.9D-15,  6.5D-17, -1.0D-01, r^2= 8.9D-01
   Bfn.  Coefficient  Atom+Function         Bfn.  Coefficient  Atom+Function  
  ----- ------------  ---------------      ----- ------------  ---------------
    26     -3.736328  1 O  dxz               47      3.692624  2 H  s          
    66     -3.692624  3 H  s                 11      3.664881  1 O  px         
    53      2.559575  2 H  px                72      2.559575  3 H  px         
    32     -2.494619  1 O  dxz               55      2.462408  2 H  pz         
    74     -2.462408  3 H  pz                36      2.377877  1 O  fxxx       
 
 Vector   67  Occ=0.000000D+00  E= 7.426767D+00  Symmetry=a1
              MO Center=  4.1D-15, -7.6D-16, -1.4D-01, r^2= 8.4D-01
   Bfn.  Coefficient  Atom+Function         Bfn.  Coefficient  Atom+Function  
  ----- ------------  ---------------      ----- ------------  ---------------
    24      4.747112  1 O  dxx               29      4.243775  1 O  dzz        
    47     -4.073462  2 H  s                 66     -4.073462  3 H  s          
     6     -3.649911  1 O  s                 27      3.221678  1 O  dyy        
    13     -2.965466  1 O  pz                30      2.901976  1 O  dxx        
    35      2.685266  1 O  dzz               53     -2.178188  2 H  px         
 
 Vector   68  Occ=0.000000D+00  E= 8.432655D+00  Symmetry=a2
              MO Center= -1.3D-13, -5.8D-17, -4.6D-01, r^2= 8.4D-01
   Bfn.  Coefficient  Atom+Function         Bfn.  Coefficient  Atom+Function  
  ----- ------------  ---------------      ----- ------------  ---------------
    51      0.906312  2 H  py                70     -0.906312  3 H  py         
    54     -0.667455  2 H  py                73      0.667455  3 H  py         
    31     -0.275513  1 O  dxy               40     -0.168258  1 O  fxyz       
    57      0.168042  2 H  py                76     -0.168042  3 H  py         
    25     -0.141184  1 O  dxy               63     -0.107569  2 H  dyz        
 
 Vector   69  Occ=0.000000D+00  E= 8.468425D+00  Symmetry=b2
              MO Center=  1.3D-13,  7.6D-16, -4.7D-01, r^2= 8.5D-01
   Bfn.  Coefficient  Atom+Function         Bfn.  Coefficient  Atom+Function  
  ----- ------------  ---------------      ----- ------------  ---------------
    51      0.917187  2 H  py                70      0.917187  3 H  py         
    54     -0.760238  2 H  py                73     -0.760238  3 H  py         
    34     -0.326432  1 O  dyz               12      0.258514  1 O  py         
    44      0.235077  1 O  fyzz              60     -0.210387  2 H  dxy        
    79      0.210387  3 H  dxy               37      0.179219  1 O  fxxy       
 
 Vector   70  Occ=0.000000D+00  E= 8.567531D+00  Symmetry=a1
              MO Center=  1.1D-14, -1.5D-19, -4.5D-01, r^2= 8.7D-01
   Bfn.  Coefficient  Atom+Function         Bfn.  Coefficient  Atom+Function  
  ----- ------------  ---------------      ----- ------------  ---------------
    13      1.100022  1 O  pz                47      0.911335  2 H  s          
    66      0.911335  3 H  s                 35     -0.859424  1 O  dzz        
    55     -0.754012  2 H  pz                74     -0.754012  3 H  pz         
    52      0.711226  2 H  pz                71      0.711226  3 H  pz         
    50     -0.602157  2 H  px                69      0.602157  3 H  px         
 
 Vector   71  Occ=0.000000D+00  E= 8.662730D+00  Symmetry=b1
              MO Center= -9.4D-15, -5.7D-18, -4.8D-01, r^2= 8.6D-01
   Bfn.  Coefficient  Atom+Function         Bfn.  Coefficient  Atom+Function  
  ----- ------------  ---------------      ----- ------------  ---------------
    11      1.124470  1 O  px                47      1.010573  2 H  s          
    66     -1.010573  3 H  s                 52     -0.784398  2 H  pz         
    71      0.784398  3 H  pz                32     -0.653221  1 O  dxz        
    53     -0.534845  2 H  px                72     -0.534845  3 H  px         
    56      0.504746  2 H  px                75      0.504746  3 H  px         
 
 Vector   72  Occ=0.000000D+00  E= 9.704734D+00  Symmetry=b1
              MO Center= -2.1D-14,  5.3D-18, -4.0D-01, r^2= 7.9D-01
   Bfn.  Coefficient  Atom+Function         Bfn.  Coefficient  Atom+Function  
  ----- ------------  ---------------      ----- ------------  ---------------
    47      2.590797  2 H  s                 66     -2.590797  3 H  s          
    11      2.158528  1 O  px                32     -1.201489  1 O  dxz        
    53      0.926270  2 H  px                72      0.926270  3 H  px         
    50     -0.847830  2 H  px                69     -0.847830  3 H  px         
    41     -0.699782  1 O  fxzz              55      0.685222  2 H  pz         
 
 Vector   73  Occ=0.000000D+00  E= 9.901347D+00  Symmetry=a1
              MO Center=  1.2D-14,  1.0D-18, -3.4D-01, r^2= 7.9D-01
   Bfn.  Coefficient  Atom+Function         Bfn.  Coefficient  Atom+Function  
  ----- ------------  ---------------      ----- ------------  ---------------
    10      2.010555  1 O  s                 38      1.642549  1 O  fxxz       
     6      1.601558  1 O  s                 47     -1.481759  2 H  s          
    66     -1.481759  3 H  s                 24     -1.142496  1 O  dxx        
    29     -0.936351  1 O  dzz               13     -0.876284  1 O  pz         
    50      0.718496  2 H  px                69     -0.718496  3 H  px         
 
 Vector   74  Occ=0.000000D+00  E= 1.447974D+01  Symmetry=b2
              MO Center=  8.3D-16, -9.2D-18,  1.0D-01, r^2= 1.8D-01
   Bfn.  Coefficient  Atom+Function         Bfn.  Coefficient  Atom+Function  
  ----- ------------  ---------------      ----- ------------  ---------------
    22      2.004783  1 O  dyz               28     -1.288937  1 O  dyz        
    37      0.497038  1 O  fxxy              44      0.401905  1 O  fyzz       
     8     -0.352325  1 O  py                34      0.263966  1 O  dyz        
    60     -0.237587  2 H  dxy               79      0.237587  3 H  dxy        
    42      0.174271  1 O  fyyy              63     -0.144342  2 H  dyz        
 
 Vector   75  Occ=0.000000D+00  E= 1.462414D+01  Symmetry=a2
              MO Center= -8.3D-16, -5.8D-17,  1.0D-01, r^2= 1.9D-01
   Bfn.  Coefficient  Atom+Function         Bfn.  Coefficient  Atom+Function  
  ----- ------------  ---------------      ----- ------------  ---------------
    19      2.019080  1 O  dxy               25     -1.400960  1 O  dxy        
    40      0.649403  1 O  fxyz              60     -0.255746  2 H  dxy        
    79     -0.255746  3 H  dxy               63     -0.234707  2 H  dyz        
    82      0.234707  3 H  dyz               31      0.220982  1 O  dxy        
    54     -0.159781  2 H  py                73      0.159781  3 H  py         
 
 Vector   76  Occ=0.000000D+00  E= 1.465962D+01  Symmetry=a1
              MO Center= -2.8D-17,  8.8D-20,  9.0D-02, r^2= 2.0D-01
   Bfn.  Coefficient  Atom+Function         Bfn.  Coefficient  Atom+Function  
  ----- ------------  ---------------      ----- ------------  ---------------
    10      1.386320  1 O  s                 23     -1.222922  1 O  dzz        
    29      0.804501  1 O  dzz               21      0.670697  1 O  dyy        
    27     -0.602457  1 O  dyy               53     -0.425284  2 H  px         
    72      0.425284  3 H  px                59     -0.367384  2 H  dxx        
    78     -0.367384  3 H  dxx               38     -0.351135  1 O  fxxz       
 
 Vector   77  Occ=0.000000D+00  E= 1.532414D+01  Symmetry=a1
              MO Center=  2.1D-15,  2.9D-19,  8.4D-02, r^2= 2.2D-01
   Bfn.  Coefficient  Atom+Function         Bfn.  Coefficient  Atom+Function  
  ----- ------------  ---------------      ----- ------------  ---------------
    10      3.255816  1 O  s                  9     -2.609851  1 O  pz         
    18     -1.364508  1 O  dxx               27     -1.205095  1 O  dyy        
    35     -1.054556  1 O  dzz               43      1.043493  1 O  fyyz       
    30     -1.006196  1 O  dxx               45      0.977969  1 O  fzzz       
    33     -0.923257  1 O  dyy               24      0.882238  1 O  dxx        
 
 Vector   78  Occ=0.000000D+00  E= 1.571868D+01  Symmetry=b1
              MO Center= -2.2D-15,  2.8D-20,  8.8D-02, r^2= 2.1D-01
   Bfn.  Coefficient  Atom+Function         Bfn.  Coefficient  Atom+Function  
  ----- ------------  ---------------      ----- ------------  ---------------
     7      6.245527  1 O  px                39     -2.953133  1 O  fxyy       
    36     -2.552559  1 O  fxxx              26     -2.368326  1 O  dxz        
    41     -2.028691  1 O  fxzz              20      1.876584  1 O  dxz        
     3     -1.581769  1 O  px                53      0.763844  2 H  px         
    72      0.763844  3 H  px                61      0.625821  2 H  dxz        
 
 Vector   79  Occ=0.000000D+00  E= 1.638735D+01  Symmetry=b2
              MO Center=  2.1D-17, -1.8D-18,  1.2D-01, r^2= 3.0D-01
   Bfn.  Coefficient  Atom+Function         Bfn.  Coefficient  Atom+Function  
  ----- ------------  ---------------      ----- ------------  ---------------
     8     12.834539  1 O  py                37     -6.908935  1 O  fxxy       
    42     -6.933873  1 O  fyyy              44     -6.920002  1 O  fyzz       
     4     -3.455841  1 O  py                12     -0.781423  1 O  py         
    16      0.121123  1 O  py                57      0.076936  2 H  py         
    76      0.076936  3 H  py                28     -0.063074  1 O  dyz        
 
 Vector   80  Occ=0.000000D+00  E= 1.660136D+01  Symmetry=a1
              MO Center= -1.5D-16,  2.5D-18,  1.8D-01, r^2= 3.0D-01
   Bfn.  Coefficient  Atom+Function         Bfn.  Coefficient  Atom+Function  
  ----- ------------  ---------------      ----- ------------  ---------------
     9     12.540789  1 O  pz                38     -7.306223  1 O  fxxz       
    45     -6.891199  1 O  fzzz              43     -6.850922  1 O  fyyz       
     5     -3.396915  1 O  pz                 6      1.916473  1 O  s          
    10      1.126656  1 O  s                 13     -0.885927  1 O  pz         
    27     -0.761961  1 O  dyy               29     -0.580453  1 O  dzz        
 
 Vector   81  Occ=0.000000D+00  E= 1.704367D+01  Symmetry=b1
              MO Center=  4.2D-15,  8.6D-19,  7.6D-02, r^2= 3.5D-01
   Bfn.  Coefficient  Atom+Function         Bfn.  Coefficient  Atom+Function  
  ----- ------------  ---------------      ----- ------------  ---------------
     7     11.306264  1 O  px                41     -7.327313  1 O  fxzz       
    36     -6.831931  1 O  fxxx              39     -6.410799  1 O  fxyy       
     3     -3.140037  1 O  px                11     -1.824970  1 O  px         
    26      1.761642  1 O  dxz               47     -1.212122  2 H  s          
    66      1.212122  3 H  s                 20     -1.010347  1 O  dxz        
 
 Vector   82  Occ=0.000000D+00  E= 1.950891D+01  Symmetry=a1
              MO Center=  2.2D-15, -2.1D-19,  6.1D-02, r^2= 5.0D-01
   Bfn.  Coefficient  Atom+Function         Bfn.  Coefficient  Atom+Function  
  ----- ------------  ---------------      ----- ------------  ---------------
     6     17.293285  1 O  s                 24     -7.588718  1 O  dxx        
    29     -7.221182  1 O  dzz               27     -6.699951  1 O  dyy        
     2     -3.952638  1 O  s                 21     -3.735525  1 O  dyy        
    23     -3.533146  1 O  dzz               18     -3.383173  1 O  dxx        
    10      3.159798  1 O  s                 30     -2.376633  1 O  dxx        
 
 Vector   83  Occ=0.000000D+00  E= 6.115503D+01  Symmetry=a1
              MO Center= -2.1D-17,  3.6D-20,  1.2D-01, r^2= 4.3D-02
   Bfn.  Coefficient  Atom+Function         Bfn.  Coefficient  Atom+Function  
  ----- ------------  ---------------      ----- ------------  ---------------
     6      5.316930  1 O  s                  1     -2.202655  1 O  s          
     2      1.599869  1 O  s                 24     -1.567884  1 O  dxx        
    27     -1.571021  1 O  dyy               29     -1.568803  1 O  dzz        
    18     -1.210843  1 O  dxx               21     -1.212299  1 O  dyy        
    23     -1.211508  1 O  dzz               10      0.199712  1 O  s          
 

 center of mass
 --------------
 x =   0.00000000 y =   0.00000000 z =   0.09925980

 moments of inertia (a.u.)
 ------------------
           2.273063475243           0.000000000000           0.000000000000
           0.000000000000           6.466161739956           0.000000000000
           0.000000000000           0.000000000000           4.193098264713
 
     Multipole analysis of the density
     ---------------------------------
 
     L   x y z        total         alpha         beta         nuclear
     -   - - -        -----         -----         ----         -------
     0   0 0 0     -0.000000     -5.000000     -5.000000     10.000000
 
     1   1 0 0      0.000000      0.000000      0.000000      0.000000
     1   0 1 0     -0.000000     -0.000000     -0.000000      0.000000
     1   0 0 1     -0.729623     -0.364811     -0.364811      0.000000
 
     2   2 0 0     -3.328332     -3.744437     -3.744437      4.160542
     2   1 1 0     -0.000000     -0.000000     -0.000000      0.000000
     2   1 0 1     -0.000000     -0.000000     -0.000000      0.000000
     2   0 2 0     -5.788616     -2.894308     -2.894308      0.000000
     2   0 1 1      0.000000      0.000000      0.000000      0.000000
     2   0 0 2     -4.787503     -3.409607     -3.409607      2.031711
 

------------------------------------------------------------
EAF file 0: "./H2O.xyz.aoints.00" size=524288 bytes
------------------------------------------------------------
               write      read    awrite     aread      wait
               -----      ----    ------     -----      ----
     calls:        1         6         0         0         0
   data(b): 5.24e+05  3.15e+06  0.00e+00  0.00e+00
   time(s): 0.00e+00  0.00e+00  0.00e+00  0.00e+00  0.00e+00
rate(mb/s): 0.00e+00  0.00e+00
------------------------------------------------------------


 Parallel integral file used      51 records with       0 large values


 Task  times  cpu:        2.0s     wall:        3.0s
 
 
                                NWChem Input Module
                                -------------------
 
 
 Summary of allocated global arrays
-----------------------------------
  No active global arrays



                         GA Statistics for process    0
                         ------------------------------

       create   destroy   get      put      acc     scatter   gather  read&inc
calls:  241      241     1715      704      520        0        0      132     
number of processes/call 2.58e+00 1.69e+00 3.34e+00 0.00e+00 0.00e+00
bytes total:             1.81e+07 3.08e+06 9.50e+06 0.00e+00 0.00e+00 1.06e+03
bytes remote:            1.02e+07 9.81e+05 5.03e+06 0.00e+00 0.00e+00 0.00e+00
Max memory consumed for GA by this process: 644824 bytes
 
MA_summarize_allocated_blocks: starting scan ...
MA_summarize_allocated_blocks: scan completed: 0 heap blocks, 0 stack blocks
MA usage statistics:

	allocation statistics:
					      heap	     stack
					      ----	     -----
	current number of blocks	         0	         0
	maximum number of blocks	        22	        57
	current total bytes		         0	         0
	maximum total bytes		   2840808	  23477560
	maximum total K-bytes		      2841	     23478
	maximum total M-bytes		         3	        24
 
 
                                     CITATION
                                     --------
                Please cite the following reference when publishing
                           results obtained with NWChem:
 
                 M. Valiev, E.J. Bylaska, N. Govind, K. Kowalski,
              T.P. Straatsma, H.J.J. van Dam, D. Wang, J. Nieplocha,
                        E. Apra, T.L. Windus, W.A. de Jong
                 "NWChem: a comprehensive and scalable open-source
                  solution for large scale molecular simulations"
                      Comput. Phys. Commun. 181, 1477 (2010)
                           doi:10.1016/j.cpc.2010.04.018
 
                                      AUTHORS
                                      -------
          E. Apra, E. J. Bylaska, W. A. de Jong, N. Govind, K. Kowalski,
       T. P. Straatsma, M. Valiev, H. J. J. van Dam, D. Wang, T. L. Windus,
        J. Hammond, J. Autschbach, K. Bhaskaran-Nair, J. Brabec, K. Lopata,
    S. A. Fischer, S. Krishnamoorthy, M. Jacquelin, W. Ma, M. Klemm, O. Villa,
      Y. Chen, V. Anisimov, F. Aquino, S. Hirata, M. T. Hackler, V. Konjkov,
            D. Mejia-Rodriguez, T. Risthaus, M. Malagoli, A. Marenich,
   A. Otero-de-la-Roza, J. Mullin, P. Nichols, R. Peverati, J. Pittner, Y. Zhao,
        P.-D. Fan, A. Fonari, M. J. Williamson, R. J. Harrison, J. R. Rehr,
      M. Dupuis, D. Silverstein, D. M. A. Smith, J. Nieplocha, V. Tipparaju,
    M. Krishnan, B. E. Van Kuiken, A. Vazquez-Mayagoitia, L. Jensen, M. Swart,
      Q. Wu, T. Van Voorhis, A. A. Auer, M. Nooijen, L. D. Crosby, E. Brown,
      G. Cisneros, G. I. Fann, H. Fruchtl, J. Garza, K. Hirao, R. A. Kendall,
      J. A. Nichols, K. Tsemekhman, K. Wolinski, J. Anchell, D. E. Bernholdt,
      P. Borowski, T. Clark, D. Clerc, H. Dachsel, M. J. O. Deegan, K. Dyall,
    D. Elwood, E. Glendening, M. Gutowski, A. C. Hess, J. Jaffe, B. G. Johnson,
     J. Ju, R. Kobayashi, R. Kutteh, Z. Lin, R. Littlefield, X. Long, B. Meng,
      T. Nakajima, S. Niu, L. Pollack, M. Rosing, K. Glaesemann, G. Sandrone,
      M. Stave, H. Taylor, G. Thomas, J. H. van Lenthe, A. T. Wong, Z. Zhang.

 Total times  cpu:        2.2s     wall:        3.4s
