 argument  1 = /storage/home/rabeet/work/nwc/pa8/nwtpss/H2S.xyz.nw
  NWChem w/ OpenMP: maximum threads =  1
                                         
                                         
 
 
              Northwest Computational Chemistry Package (NWChem) 6.8
              ------------------------------------------------------
 
 
                    Environmental Molecular Sciences Laboratory
                       Pacific Northwest National Laboratory
                                Richland, WA 99352
 
                              Copyright (c) 1994-2018
                       Pacific Northwest National Laboratory
                            Battelle Memorial Institute
 
             NWChem is an open-source computational chemistry package
                        distributed under the terms of the
                      Educational Community License (ECL) 2.0
             A copy of the license is included with this distribution
                              in the LICENSE.TXT file
 
                                  ACKNOWLEDGMENT
                                  --------------

            This software and its documentation were developed at the
            EMSL at Pacific Northwest National Laboratory, a multiprogram
            national laboratory, operated for the U.S. Department of Energy
            by Battelle under Contract Number DE-AC05-76RL01830. Support
            for this work was provided by the Department of Energy Office
            of Biological and Environmental Research, Office of Basic
            Energy Sciences, and the Office of Advanced Scientific Computing.


           Job information
           ---------------

    hostname        = r8n4.niserhpc.org
    program         = /home/rabeet/nwchem-6.8/bin/LINUX64/nwchem
    date            = Sun Oct 27 10:45:25 2019

    compiled        = Fri_Jun_28_18:24:12_2019
    source          = /home/rabeet/nwchem-6.8
    nwchem branch   = Development
    nwchem revision = N/A
    ga revision     = 5.6.5
    use scalapack   = T
    input           = /storage/home/rabeet/work/nwc/pa8/nwtpss/H2S.xyz.nw
    prefix          = H2S.xyz.
    data base       = ./H2S.xyz.db
    status          = startup
    nproc           =       16
    time left       =     -1s



           Memory information
           ------------------

    heap     =   13107194 doubles =    100.0 Mbytes
    stack    =   13107199 doubles =    100.0 Mbytes
    global   =   26214400 doubles =    200.0 Mbytes (distinct from heap & stack)
    total    =   52428793 doubles =    400.0 Mbytes
    verify   = yes
    hardfail = no 


           Directory information
           ---------------------
 
  0 permanent = .
  0 scratch   = .
 
 
 
 
                                NWChem Input Module
                                -------------------
 
 

 Scaling coordinates for geometry "geometry" by  1.889725989
 (inverse scale =  0.529177249)

 C2V symmetry detected

          ------
          auto-z
          ------
  no constraints, skipping   0.000000000000000E+000
  no constraints, skipping   0.000000000000000E+000
 
 
                             Geometry "geometry" -> ""
                             -------------------------
 
 Output coordinates in angstroms (scale by  1.889725989 to convert to a.u.)
 
  No.       Tag          Charge          X              Y              Z
 ---- ---------------- ---------- -------------- -------------- --------------
    1 S                   16.0000     0.00000000     0.00000000     0.10213556
    2 H                    1.0000    -0.97427000     0.00000000    -0.81708444
    3 H                    1.0000     0.97427000     0.00000000    -0.81708444
 
      Atomic Mass 
      ----------- 
 
      S                 31.972070
      H                  1.007825
 

 Effective nuclear repulsion energy (a.u.)      12.9136889622

            Nuclear Dipole moment (a.u.) 
            ----------------------------
        X                 Y               Z
 ---------------- ---------------- ----------------
     0.0000000000     0.0000000000    -0.0000000000
 
      Symmetry information
      --------------------
 
 Group name             C2v       
 Group number             16
 Group order               4
 No. of unique centers     2
 
      Symmetry unique atoms
 
     1    2
 


                                Z-matrix (autoz)
                                -------- 

 Units are Angstrom for bonds and degrees for angles
 
      Type          Name      I     J     K     L     M      Value
      ----------- --------  ----- ----- ----- ----- ----- ----------
    1 Stretch                  1     2                       1.33947
    2 Stretch                  1     3                       1.33947
    3 Bend                     2     1     3                93.33062
 
 
            XYZ format geometry
            -------------------
     3
 geometry
 S                     0.00000000     0.00000000     0.10213556
 H                    -0.97427000     0.00000000    -0.81708444
 H                     0.97427000     0.00000000    -0.81708444
 
 ==============================================================================
                                internuclear distances
 ------------------------------------------------------------------------------
       center one      |      center two      | atomic units |  angstroms
 ------------------------------------------------------------------------------
    2 H                |   1 S                |     2.53122  |     1.33947
    3 H                |   1 S                |     2.53122  |     1.33947
 ------------------------------------------------------------------------------
                         number of included internuclear distances:          2
 ==============================================================================



 ==============================================================================
                                 internuclear angles
 ------------------------------------------------------------------------------
        center 1       |       center 2       |       center 3       |  degrees
 ------------------------------------------------------------------------------
    2 H                |   1 S                |   3 H                |    93.33
 ------------------------------------------------------------------------------
                            number of included internuclear angles:          1
 ==============================================================================





 Summary of "ao basis" -> "" (cartesian)
 ------------------------------------------------------------------------------
       Tag                 Description            Shells   Functions and Types
 ---------------- ------------------------------  ------  ---------------------
 *                     6-311++G(3df,3pd)              on all atoms 


 
                                 NWChem DFT Module
                                 -----------------
 
 
                      Basis "ao basis" -> "ao basis" (cartesian)
                      -----
  S (Sulphur)
  -----------
            Exponent  Coefficients 
       -------------- ---------------------------------------------------------
  1 S  9.34134000E+04  0.000743
  1 S  1.39617000E+04  0.005793
  1 S  3.16991000E+03  0.029954
  1 S  9.02456000E+02  0.119028
  1 S  2.97158000E+02  0.368432
  1 S  1.08702000E+02  0.577299
 
  2 S  1.08702000E+02  0.143186
  2 S  4.31553000E+01  0.624465
  2 S  1.81079000E+01  0.283366
 
  3 S  5.56009000E+00  1.000000
 
  4 S  2.13183000E+00  1.000000
 
  5 S  4.20403000E-01  1.000000
 
  6 S  1.36045000E-01  1.000000
 
  7 P  4.95040000E+02  0.008309
  7 P  1.17221000E+02  0.064024
  7 P  3.77749000E+01  0.277614
  7 P  1.40584000E+01  0.745076
 
  8 P  5.56574000E+00  0.613712
  8 P  2.26297000E+00  0.443818
 
  9 P  8.07994000E-01  1.000000
 
 10 P  2.77460000E-01  1.000000
 
 11 P  7.71410000E-02  1.000000
 
 12 S  4.05000000E-02  1.000000
 
 13 P  4.05000000E-02  1.000000
 
 14 D  2.60000000E+00  1.000000
 
 15 D  6.50000000E-01  1.000000
 
 16 D  1.62500000E-01  1.000000
 
 17 F  5.50000000E-01  1.000000
 
  H (Hydrogen)
  ------------
            Exponent  Coefficients 
       -------------- ---------------------------------------------------------
  1 S  3.38650000E+01  0.025494
  1 S  5.09479000E+00  0.190373
  1 S  1.15879000E+00  0.852161
 
  2 S  3.25840000E-01  1.000000
 
  3 S  1.02741000E-01  1.000000
 
  4 S  3.60000000E-02  1.000000
 
  5 P  3.00000000E+00  1.000000
 
  6 P  7.50000000E-01  1.000000
 
  7 P  1.87500000E-01  1.000000
 
  8 D  1.00000000E+00  1.000000
 


 Summary of "ao basis" -> "ao basis" (cartesian)
 ------------------------------------------------------------------------------
       Tag                 Description            Shells   Functions and Types
 ---------------- ------------------------------  ------  ---------------------
 S                     6-311++G(3df,3pd)            17       53   7s6p3d1f
 H                     6-311++G(3df,3pd)             8       19   4s3p1d




 Summary of "ao basis" -> "ao basis" (cartesian)
 ------------------------------------------------------------------------------
       Tag                 Description            Shells   Functions and Types
 ---------------- ------------------------------  ------  ---------------------
 S                     6-311++G(3df,3pd)            17       53   7s6p3d1f
 H                     6-311++G(3df,3pd)             8       19   4s3p1d


      Symmetry analysis of basis
      --------------------------
 
        a1         39
        a2          9
        b1         26
        b2         17
 
  Caching 1-el integrals 
 
            General Information
            -------------------
          SCF calculation type: DFT
          Wavefunction type:  closed shell.
          No. of atoms     :     3
          No. of electrons :    18
           Alpha electrons :     9
            Beta electrons :     9
          Charge           :     0
          Spin multiplicity:     1
          Use of symmetry is: on ; symmetry adaption is: on 
          Maximum number of iterations: ***
          AO basis - number of functions:    91
                     number of shells:    33
          Convergence on energy requested:  1.00D-06
          Convergence on density requested:  1.00D-05
          Convergence on gradient requested:  5.00D-04
 
              XC Information
              --------------
                  TPSS metaGGA Exchange Functional  1.000          
             TPSS03 metaGGA Correlation Functional  1.000          
 
             Grid Information
             ----------------
          Grid used for XC integration:  medium    
          Radial quadrature: Mura-Knowles        
          Angular quadrature: Lebedev. 
          Tag              B.-S. Rad. Rad. Pts. Rad. Cut. Ang. Pts.
          ---              ---------- --------- --------- ---------
          S                   1.00       88          11.0       590
          H                   0.35       45          11.0       434
          Grid pruning is: on 
          Number of quadrature shells:   133
          Spatial weights used:  Erf1
 
          Convergence Information
          -----------------------
          Convergence aids based upon iterative change in 
          total energy or number of iterations. 
          Levelshifting, if invoked, occurs when the 
          HOMO/LUMO gap drops below (HL_TOL):  1.00D-02
          DIIS, if invoked, will attempt to extrapolate 
          using up to (NFOCK): 10 stored Fock matrices.

                    Damping( 0%)  Levelshifting(0.5)       DIIS
                  --------------- ------------------- ---------------
          dE  on:    start            ASAP                start   
          dE off:    2 iters        *** iters           *** iters 

 
      Screening Tolerance Information
      -------------------------------
          Density screening/tol_rho:  1.00D-10
          AO Gaussian exp screening on grid/accAOfunc:  14
          CD Gaussian exp screening on grid/accCDfunc:  20
          XC Gaussian exp screening on grid/accXCfunc:  20
          Schwarz screening/accCoul:  1.00D-08

 
      Superposition of Atomic Density Guess
      -------------------------------------
 
 Sum of atomic energies:        -398.47988734
 
      Non-variational initial energy
      ------------------------------

 Total energy =    -398.642923
 1-e energy   =    -575.673457
 2-e energy   =     164.116845
 HOMO         =      -0.322797
 LUMO         =       0.027025
 
 
      Symmetry analysis of molecular orbitals - initial
      -------------------------------------------------
 
  Numbering of irreducible representations: 
 
     1 a1          2 a2          3 b1          4 b2      
 
  Orbital symmetries:
 
     1 a1          2 a1          3 b1          4 a1          5 b2      
     6 a1          7 b1          8 a1          9 b2         10 a1      
    11 b1         12 b1         13 a1         14 b2         15 b1      
    16 a1         17 a1         18 a1         19 a2      
 
   Time after variat. SCF:      0.6
   Time prior to 1st pass:      0.6

 Integral file          = ./H2S.xyz.aoints.00
 Record size in doubles =    65536    No. of integs per rec  =    43688
 Max. records in memory =        7    Max. records in file   =  8902734
 No. of bits per label  =        8    No. of bits per value  =       64


 #quartets = 1.003D+05 #integrals = 2.621D+06 #direct =  0.0% #cached =100.0%


File balance: exchanges=     0  moved=     0  time=   0.0


 Grid_pts file          = ./H2S.xyz.gridpts.00
 Record size in doubles =  12289        No. of grid_pts per rec  =   3070
 Max. records in memory =      3        Max. recs in file   =   1543971


           Memory utilization after 1st SCF pass: 
           Heap Space remaining (MW):       12.61            12607930
          Stack Space remaining (MW):       13.11            13106604

   convergence    iter        energy       DeltaE   RMS-Dens  Diis-err    time
 ---------------- ----- ----------------- --------- --------- ---------  ------
 d= 0,ls=0.0,diis     1   -399.4114248951 -4.12D+02  5.39D-03  6.26D-01     1.4
 d= 0,ls=0.0,diis     2   -399.4228140951 -1.14D-02  3.82D-03  6.97D-02     1.5
 d= 0,ls=0.0,diis     3   -399.4245578554 -1.74D-03  1.78D-03  6.42D-02     2.0
 d= 0,ls=0.0,diis     4   -399.4337778890 -9.22D-03  1.93D-04  3.02D-04     2.1
 d= 0,ls=0.0,diis     5   -399.4338130347 -3.51D-05  3.25D-05  3.03D-05     2.3
  Resetting Diis
 d= 0,ls=0.0,diis     6   -399.4338157290 -2.69D-06  4.31D-06  1.04D-07     2.4
 d= 0,ls=0.0,diis     7   -399.4338157463 -1.73D-08  1.24D-06  4.97D-09     2.5


         Total DFT energy =     -399.433815746258
      One electron energy =     -576.796083502571
           Coulomb energy =      190.880518597540
          Exchange energy =      -25.761841836568
       Correlation energy =       -0.670097966893
 Nuclear repulsion energy =       12.913688962234

 Numeric. integr. density =       17.999993633618

     Total iterative time =      1.9s


 
                  Occupations of the irreducible representations
                  ----------------------------------------------
 
                     irrep           alpha         beta
                     --------     --------     --------
                     a1                5.0          5.0
                     a2                0.0          0.0
                     b1                2.0          2.0
                     b2                2.0          2.0
 
 
                       DFT Final Molecular Orbital Analysis
                       ------------------------------------
 
 Vector    1  Occ=2.000000D+00  E=-8.835772D+01  Symmetry=a1
              MO Center= -7.0D-19, -4.9D-26,  1.0D-01, r^2= 3.6D-03
   Bfn.  Coefficient  Atom+Function         Bfn.  Coefficient  Atom+Function  
  ----- ------------  ---------------      ----- ------------  ---------------
     2      0.653577  1 S  s                  1      0.411431  1 S  s          
 
 Vector    2  Occ=2.000000D+00  E=-7.746470D+00  Symmetry=a1
              MO Center= -8.9D-16,  1.6D-16,  1.0D-01, r^2= 7.7D-02
   Bfn.  Coefficient  Atom+Function         Bfn.  Coefficient  Atom+Function  
  ----- ------------  ---------------      ----- ------------  ---------------
     4      0.589735  1 S  s                  3      0.511991  1 S  s          
     2     -0.320368  1 S  s                  5      0.124327  1 S  s          
     1     -0.119400  1 S  s                  6     -0.048607  1 S  s          
 
 Vector    3  Occ=2.000000D+00  E=-5.727301D+00  Symmetry=b1
              MO Center=  2.9D-16,  6.6D-18,  1.0D-01, r^2= 6.9D-02
   Bfn.  Coefficient  Atom+Function         Bfn.  Coefficient  Atom+Function  
  ----- ------------  ---------------      ----- ------------  ---------------
    10      0.706920  1 S  px                 7      0.377328  1 S  px         
    13      0.056949  1 S  px         
 
 Vector    4  Occ=2.000000D+00  E=-5.723714D+00  Symmetry=a1
              MO Center=  5.0D-16,  1.7D-16,  1.0D-01, r^2= 6.9D-02
   Bfn.  Coefficient  Atom+Function         Bfn.  Coefficient  Atom+Function  
  ----- ------------  ---------------      ----- ------------  ---------------
    12      0.706948  1 S  pz                 9      0.377454  1 S  pz         
    15      0.056750  1 S  pz         
 
 Vector    5  Occ=2.000000D+00  E=-5.716751D+00  Symmetry=b2
              MO Center=  3.0D-18, -3.5D-16,  1.0D-01, r^2= 6.9D-02
   Bfn.  Coefficient  Atom+Function         Bfn.  Coefficient  Atom+Function  
  ----- ------------  ---------------      ----- ------------  ---------------
    11      0.707141  1 S  py                 8      0.377744  1 S  py         
    14      0.056783  1 S  py         
 
 Vector    6  Occ=2.000000D+00  E=-6.928431D-01  Symmetry=a1
              MO Center= -3.8D-15, -5.3D-16, -2.2D-01, r^2= 1.0D+00
   Bfn.  Coefficient  Atom+Function         Bfn.  Coefficient  Atom+Function  
  ----- ------------  ---------------      ----- ------------  ---------------
     5      0.578757  1 S  s                  6      0.504830  1 S  s          
     4     -0.342427  1 S  s                  3     -0.202242  1 S  s          
    55      0.100187  2 H  s                 74      0.100187  3 H  s          
     2      0.092152  1 S  s                 54      0.090145  2 H  s          
    73      0.090145  3 H  s                 41     -0.062784  1 S  dyy        
 
 Vector    7  Occ=2.000000D+00  E=-4.156466D-01  Symmetry=b1
              MO Center=  3.3D-15,  3.4D-14, -3.9D-01, r^2= 1.5D+00
   Bfn.  Coefficient  Atom+Function         Bfn.  Coefficient  Atom+Function  
  ----- ------------  ---------------      ----- ------------  ---------------
    16      0.318569  1 S  px                13      0.224643  1 S  px         
    55     -0.222645  2 H  s                 74      0.222645  3 H  s          
    10     -0.152921  1 S  px                54     -0.142501  2 H  s          
    73      0.142501  3 H  s                 19      0.109533  1 S  px         
    34     -0.106788  1 S  dxz               56     -0.100755  2 H  s          
 
 Vector    8  Occ=2.000000D+00  E=-3.373737D-01  Symmetry=a1
              MO Center= -2.3D-16,  1.7D-18,  1.5D-01, r^2= 1.5D+00
   Bfn.  Coefficient  Atom+Function         Bfn.  Coefficient  Atom+Function  
  ----- ------------  ---------------      ----- ------------  ---------------
     6      0.448213  1 S  s                 18      0.411012  1 S  pz         
     5      0.264845  1 S  s                 15      0.234788  1 S  pz         
    55     -0.169313  2 H  s                 74     -0.169313  3 H  s          
    12     -0.164162  1 S  pz                21      0.161917  1 S  pz         
     4     -0.157728  1 S  s                 22      0.111094  1 S  s          
 
 Vector    9  Occ=2.000000D+00  E=-2.349382D-01  Symmetry=b2
              MO Center=  3.1D-16,  3.4D-16,  4.4D-02, r^2= 1.5D+00
   Bfn.  Coefficient  Atom+Function         Bfn.  Coefficient  Atom+Function  
  ----- ------------  ---------------      ----- ------------  ---------------
    17      0.624402  1 S  py                20      0.291766  1 S  py         
    14      0.269043  1 S  py                11     -0.195529  1 S  py         
     8     -0.102982  1 S  py                65      0.028270  2 H  py         
    84      0.028270  3 H  py                36     -0.025688  1 S  dyz        
    50     -0.025340  1 S  fyyy       
 
 Vector   10  Occ=0.000000D+00  E=-2.376446D-02  Symmetry=a1
              MO Center=  8.1D-14,  5.3D-15, -7.9D-01, r^2= 8.5D+00
   Bfn.  Coefficient  Atom+Function         Bfn.  Coefficient  Atom+Function  
  ----- ------------  ---------------      ----- ------------  ---------------
    22      1.399548  1 S  s                 57     -1.213438  2 H  s          
    76     -1.213438  3 H  s                 25     -0.569790  1 S  pz         
     5      0.264691  1 S  s                  6      0.250559  1 S  s          
    18     -0.184162  1 S  pz                 4     -0.133051  1 S  s          
    15     -0.092346  1 S  pz                38     -0.084099  1 S  dxx        
 
 Vector   11  Occ=0.000000D+00  E=-1.501391D-02  Symmetry=b1
              MO Center= -6.4D-14, -1.1D-29, -2.1D-01, r^2= 4.0D+00
   Bfn.  Coefficient  Atom+Function         Bfn.  Coefficient  Atom+Function  
  ----- ------------  ---------------      ----- ------------  ---------------
    57      1.172848  2 H  s                 76     -1.172848  3 H  s          
    23      0.716055  1 S  px                16      0.566007  1 S  px         
    56      0.494180  2 H  s                 75     -0.494180  3 H  s          
    19      0.384873  1 S  px                40      0.294147  1 S  dxz        
    34      0.233677  1 S  dxz               55      0.184225  2 H  s          
 
 Vector   12  Occ=0.000000D+00  E= 3.463058D-02  Symmetry=b1
              MO Center= -1.8D-14, -1.2D-30, -5.1D-01, r^2= 1.2D+01
   Bfn.  Coefficient  Atom+Function         Bfn.  Coefficient  Atom+Function  
  ----- ------------  ---------------      ----- ------------  ---------------
    57      1.543278  2 H  s                 76     -1.543278  3 H  s          
    56     -0.618391  2 H  s                 75      0.618391  3 H  s          
    23     -0.322176  1 S  px                16     -0.253715  1 S  px         
    13      0.106983  1 S  px                34     -0.107176  1 S  dxz        
    49      0.104608  1 S  fxzz              64     -0.104224  2 H  px         
 
 Vector   13  Occ=0.000000D+00  E= 4.517839D-02  Symmetry=a1
              MO Center=  8.3D-14, -2.6D-14,  8.7D-01, r^2= 1.1D+01
   Bfn.  Coefficient  Atom+Function         Bfn.  Coefficient  Atom+Function  
  ----- ------------  ---------------      ----- ------------  ---------------
    25      1.521265  1 S  pz                21     -1.228799  1 S  pz         
    22      1.039089  1 S  s                 56     -0.456659  2 H  s          
    75     -0.456659  3 H  s                  6      0.287995  1 S  s          
    57     -0.152968  2 H  s                 76     -0.152968  3 H  s          
    18     -0.135699  1 S  pz                 5     -0.134450  1 S  s          
 
 Vector   14  Occ=0.000000D+00  E= 5.112312D-02  Symmetry=b2
              MO Center=  6.8D-17,  1.9D-14,  7.7D-02, r^2= 1.2D+01
   Bfn.  Coefficient  Atom+Function         Bfn.  Coefficient  Atom+Function  
  ----- ------------  ---------------      ----- ------------  ---------------
    24      1.725842  1 S  py                20     -1.025763  1 S  py         
    14     -0.157226  1 S  py                45     -0.099397  1 S  fxxy       
    52     -0.097123  1 S  fyzz              50     -0.088788  1 S  fyyy       
    17      0.063124  1 S  py                11      0.062014  1 S  py         
    65      0.052005  2 H  py                84      0.052005  3 H  py         
 
 Vector   15  Occ=0.000000D+00  E= 6.983625D-02  Symmetry=a1
              MO Center=  3.2D-16, -2.4D-14, -4.6D-01, r^2= 5.9D+00
   Bfn.  Coefficient  Atom+Function         Bfn.  Coefficient  Atom+Function  
  ----- ------------  ---------------      ----- ------------  ---------------
    56      2.321958  2 H  s                 75      2.321958  3 H  s          
    22     -2.108782  1 S  s                 21      1.630261  1 S  pz         
     6     -1.588067  1 S  s                 18      0.827265  1 S  pz         
    43     -0.258137  1 S  dzz               41     -0.212422  1 S  dyy        
    55      0.207830  2 H  s                 74      0.207830  3 H  s          
 
 Vector   16  Occ=0.000000D+00  E= 1.006894D-01  Symmetry=b1
              MO Center=  2.2D-12,  1.5D-16, -3.1D-01, r^2= 1.6D+01
   Bfn.  Coefficient  Atom+Function         Bfn.  Coefficient  Atom+Function  
  ----- ------------  ---------------      ----- ------------  ---------------
    57      5.779905  2 H  s                 76     -5.779905  3 H  s          
    23      4.917808  1 S  px                19     -2.725409  1 S  px         
    56     -1.892468  2 H  s                 75      1.892468  3 H  s          
    16     -0.579249  1 S  px                40      0.466780  1 S  dxz        
    55     -0.249891  2 H  s                 74      0.249891  3 H  s          
 
 Vector   17  Occ=0.000000D+00  E= 1.033897D-01  Symmetry=a1
              MO Center= -2.3D-12,  1.1D-14, -9.4D-01, r^2= 1.4D+01
   Bfn.  Coefficient  Atom+Function         Bfn.  Coefficient  Atom+Function  
  ----- ------------  ---------------      ----- ------------  ---------------
    22      9.275404  1 S  s                 57     -4.265399  2 H  s          
    76     -4.265399  3 H  s                 25     -3.080252  1 S  pz         
    21      0.492381  1 S  pz                38     -0.438276  1 S  dxx        
    41     -0.435993  1 S  dyy                5     -0.433559  1 S  s          
    43     -0.423983  1 S  dzz                6     -0.321365  1 S  s          
 
 Vector   18  Occ=0.000000D+00  E= 1.519318D-01  Symmetry=a1
              MO Center=  3.9D-15,  1.5D-13, -1.5D-01, r^2= 3.0D+00
   Bfn.  Coefficient  Atom+Function         Bfn.  Coefficient  Atom+Function  
  ----- ------------  ---------------      ----- ------------  ---------------
    56      0.793053  2 H  s                 75      0.793053  3 H  s          
    21      0.723057  1 S  pz                22     -0.717925  1 S  s          
     6     -0.533756  1 S  s                 18      0.474827  1 S  pz         
    38     -0.435667  1 S  dxx               64      0.304514  2 H  px         
    83     -0.304514  3 H  px                43      0.278179  1 S  dzz        
 
 Vector   19  Occ=0.000000D+00  E= 1.777611D-01  Symmetry=a2
              MO Center= -1.1D-14, -3.5D-14, -1.5D-01, r^2= 2.7D+00
   Bfn.  Coefficient  Atom+Function         Bfn.  Coefficient  Atom+Function  
  ----- ------------  ---------------      ----- ------------  ---------------
    39      1.080186  1 S  dxy               33      0.353491  1 S  dxy        
    65     -0.256713  2 H  py                84      0.256713  3 H  py         
    27      0.103945  1 S  dxy               48     -0.031992  1 S  fxyz       
 
 Vector   20  Occ=0.000000D+00  E= 1.865165D-01  Symmetry=b2
              MO Center=  1.2D-14, -8.6D-14, -1.3D-02, r^2= 2.7D+00
   Bfn.  Coefficient  Atom+Function         Bfn.  Coefficient  Atom+Function  
  ----- ------------  ---------------      ----- ------------  ---------------
    42      1.119867  1 S  dyz               36      0.351219  1 S  dyz        
    17      0.258178  1 S  py                65     -0.251872  2 H  py         
    84     -0.251872  3 H  py                20      0.179741  1 S  py         
    30      0.105015  1 S  dyz               52     -0.074757  1 S  fyzz       
    50     -0.049615  1 S  fyyy              45     -0.047221  1 S  fxxy       
 
 Vector   21  Occ=0.000000D+00  E= 2.608381D-01  Symmetry=b1
              MO Center= -3.0D-14, -9.9D-16, -2.8D-01, r^2= 8.8D+00
   Bfn.  Coefficient  Atom+Function         Bfn.  Coefficient  Atom+Function  
  ----- ------------  ---------------      ----- ------------  ---------------
    56      2.017786  2 H  s                 75     -2.017786  3 H  s          
    16      1.521817  1 S  px                23      1.151548  1 S  px         
    19     -0.971323  1 S  px                40     -0.798661  1 S  dxz        
    57     -0.770350  2 H  s                 76      0.770350  3 H  s          
    55     -0.446285  2 H  s                 74      0.446285  3 H  s          
 
 Vector   22  Occ=0.000000D+00  E= 2.732320D-01  Symmetry=a1
              MO Center=  2.8D-13,  3.0D-13,  6.5D-01, r^2= 7.8D+00
   Bfn.  Coefficient  Atom+Function         Bfn.  Coefficient  Atom+Function  
  ----- ------------  ---------------      ----- ------------  ---------------
    21     -4.944826  1 S  pz                56     -4.700965  2 H  s          
    75     -4.700965  3 H  s                  6      4.551678  1 S  s          
    22      3.124178  1 S  s                 25      1.053013  1 S  pz         
    43      0.949950  1 S  dzz               64     -0.798770  2 H  px         
    83      0.798770  3 H  px                38      0.762198  1 S  dxx        
 
 Vector   23  Occ=0.000000D+00  E= 2.852286D-01  Symmetry=a1
              MO Center= -1.9D-13,  4.5D-13,  1.2D-02, r^2= 7.6D+00
   Bfn.  Coefficient  Atom+Function         Bfn.  Coefficient  Atom+Function  
  ----- ------------  ---------------      ----- ------------  ---------------
    22      4.498429  1 S  s                 25     -2.658175  1 S  pz         
    56     -1.816063  2 H  s                 75     -1.816063  3 H  s          
    21      1.437817  1 S  pz                57     -1.394446  2 H  s          
    76     -1.394446  3 H  s                 18     -1.379593  1 S  pz         
    41     -0.586611  1 S  dyy               55      0.431381  2 H  s          
 
 Vector   24  Occ=0.000000D+00  E= 3.038678D-01  Symmetry=b2
              MO Center= -1.2D-15, -5.4D-13,  1.3D-01, r^2= 8.3D+00
   Bfn.  Coefficient  Atom+Function         Bfn.  Coefficient  Atom+Function  
  ----- ------------  ---------------      ----- ------------  ---------------
    20      3.105918  1 S  py                17     -2.023704  1 S  py         
    24     -1.929776  1 S  py                50      0.477796  1 S  fyyy       
    45      0.470272  1 S  fxxy              52      0.472495  1 S  fyzz       
    11      0.132940  1 S  py                65     -0.088235  2 H  py         
    84     -0.088235  3 H  py                42     -0.080024  1 S  dyz        
 
 Vector   25  Occ=0.000000D+00  E= 3.381726D-01  Symmetry=b1
              MO Center= -3.2D-14,  3.0D-17, -1.4D-01, r^2= 1.0D+01
   Bfn.  Coefficient  Atom+Function         Bfn.  Coefficient  Atom+Function  
  ----- ------------  ---------------      ----- ------------  ---------------
    19      7.561308  1 S  px                56      6.595922  2 H  s          
    75     -6.595922  3 H  s                 23     -5.000958  1 S  px         
    57     -4.861927  2 H  s                 76      4.861927  3 H  s          
    40     -2.865934  1 S  dxz               66      0.815904  2 H  pz         
    85     -0.815904  3 H  pz                64      0.758551  2 H  px         
 
 Vector   26  Occ=0.000000D+00  E= 4.032744D-01  Symmetry=a1
              MO Center= -1.1D-14, -6.5D-16, -5.7D-01, r^2= 5.6D+00
   Bfn.  Coefficient  Atom+Function         Bfn.  Coefficient  Atom+Function  
  ----- ------------  ---------------      ----- ------------  ---------------
    56      3.304925  2 H  s                 75      3.304925  3 H  s          
    22      2.630696  1 S  s                  6     -2.036950  1 S  s          
    21      1.640818  1 S  pz                43     -1.621123  1 S  dzz        
    57     -1.576218  2 H  s                 76     -1.576218  3 H  s          
    41     -1.451214  1 S  dyy               18      1.433378  1 S  pz         
 
 Vector   27  Occ=0.000000D+00  E= 4.367221D-01  Symmetry=b1
              MO Center=  1.4D-14, -1.8D-17, -3.9D-01, r^2= 4.3D+00
   Bfn.  Coefficient  Atom+Function         Bfn.  Coefficient  Atom+Function  
  ----- ------------  ---------------      ----- ------------  ---------------
    56      1.755680  2 H  s                 75     -1.755680  3 H  s          
    19      1.644805  1 S  px                66      1.172663  2 H  pz         
    85     -1.172663  3 H  pz                16      1.106602  1 S  px         
    57     -0.979736  2 H  s                 76      0.979736  3 H  s          
    23     -0.833682  1 S  px                40      0.559295  1 S  dxz        
 
 Vector   28  Occ=0.000000D+00  E= 4.534534D-01  Symmetry=a1
              MO Center=  2.0D-14,  2.0D-15, -4.7D-01, r^2= 5.9D+00
   Bfn.  Coefficient  Atom+Function         Bfn.  Coefficient  Atom+Function  
  ----- ------------  ---------------      ----- ------------  ---------------
    22      5.363857  1 S  s                 38     -2.831253  1 S  dxx        
     6      2.496252  1 S  s                 57     -2.164482  2 H  s          
    76     -2.164482  3 H  s                 41     -1.731353  1 S  dyy        
    25     -1.717564  1 S  pz                43     -1.157696  1 S  dzz        
    18     -1.034793  1 S  pz                21      1.035373  1 S  pz         
 
 Vector   29  Occ=0.000000D+00  E= 4.616181D-01  Symmetry=a2
              MO Center=  1.0D-14,  8.2D-16, -5.5D-01, r^2= 3.9D+00
   Bfn.  Coefficient  Atom+Function         Bfn.  Coefficient  Atom+Function  
  ----- ------------  ---------------      ----- ------------  ---------------
    39      2.107203  1 S  dxy               65      1.257687  2 H  py         
    84     -1.257687  3 H  py                33      0.207070  1 S  dxy        
    27      0.070207  1 S  dxy               62     -0.047032  2 H  py         
    81      0.047032  3 H  py                48      0.038502  1 S  fxyz       
 
 Vector   30  Occ=0.000000D+00  E= 4.961488D-01  Symmetry=b2
              MO Center= -1.0D-14, -3.0D-13, -5.7D-01, r^2= 4.1D+00
   Bfn.  Coefficient  Atom+Function         Bfn.  Coefficient  Atom+Function  
  ----- ------------  ---------------      ----- ------------  ---------------
    42      2.226240  1 S  dyz               20     -1.616617  1 S  py         
    65      1.464187  2 H  py                84      1.464187  3 H  py         
    17     -0.920606  1 S  py                24      0.425094  1 S  py         
    45      0.254788  1 S  fxxy              52      0.226434  1 S  fyzz       
    36      0.224665  1 S  dyz               50      0.209558  1 S  fyyy       
 
 Vector   31  Occ=0.000000D+00  E= 5.326192D-01  Symmetry=a1
              MO Center=  1.6D-15, -5.6D-16, -3.3D-01, r^2= 4.5D+00
   Bfn.  Coefficient  Atom+Function         Bfn.  Coefficient  Atom+Function  
  ----- ------------  ---------------      ----- ------------  ---------------
     6      2.770332  1 S  s                 43     -2.659912  1 S  dzz        
    22      2.233354  1 S  s                 21      2.157763  1 S  pz         
    66     -1.516332  2 H  pz                85     -1.516332  3 H  pz         
    25     -1.243549  1 S  pz                57     -0.811973  2 H  s          
    76     -0.811973  3 H  s                 55      0.700639  2 H  s          
 
 Vector   32  Occ=0.000000D+00  E= 5.428922D-01  Symmetry=b1
              MO Center=  6.2D-15,  1.1D-15, -7.1D-01, r^2= 4.2D+00
   Bfn.  Coefficient  Atom+Function         Bfn.  Coefficient  Atom+Function  
  ----- ------------  ---------------      ----- ------------  ---------------
    56      2.288066  2 H  s                 75     -2.288066  3 H  s          
    64      1.519754  2 H  px                83      1.519754  3 H  px         
    40      1.502472  1 S  dxz               55     -1.266500  2 H  s          
    74      1.266500  3 H  s                 16      0.851043  1 S  px         
    57     -0.767944  2 H  s                 76      0.767944  3 H  s          
 
 Vector   33  Occ=0.000000D+00  E= 7.458320D-01  Symmetry=a1
              MO Center=  5.2D-15, -1.7D-14, -1.6D-01, r^2= 6.0D+00
   Bfn.  Coefficient  Atom+Function         Bfn.  Coefficient  Atom+Function  
  ----- ------------  ---------------      ----- ------------  ---------------
     6     12.061671  1 S  s                 56     -6.857223  2 H  s          
    75     -6.857223  3 H  s                 18     -5.434082  1 S  pz         
    21     -4.670079  1 S  pz                55     -2.520420  2 H  s          
    74     -2.520420  3 H  s                 64     -2.395195  2 H  px         
    83      2.395195  3 H  px                66     -2.151859  2 H  pz         
 
 Vector   34  Occ=0.000000D+00  E= 7.893608D-01  Symmetry=b1
              MO Center= -4.0D-14,  2.2D-17, -2.6D-01, r^2= 6.6D+00
   Bfn.  Coefficient  Atom+Function         Bfn.  Coefficient  Atom+Function  
  ----- ------------  ---------------      ----- ------------  ---------------
    56      9.489165  2 H  s                 75     -9.489165  3 H  s          
    19      7.602458  1 S  px                16      6.551211  1 S  px         
    40     -6.539841  1 S  dxz               57     -3.184540  2 H  s          
    76      3.184540  3 H  s                 23     -3.162444  1 S  px         
    66      2.606082  2 H  pz                85     -2.606082  3 H  pz         
 
 Vector   35  Occ=0.000000D+00  E= 9.343874D-01  Symmetry=a2
              MO Center=  1.5D-15, -3.4D-15,  1.2D-01, r^2= 1.7D+00
   Bfn.  Coefficient  Atom+Function         Bfn.  Coefficient  Atom+Function  
  ----- ------------  ---------------      ----- ------------  ---------------
    33      1.610197  1 S  dxy               39     -1.503070  1 S  dxy        
    27      0.271740  1 S  dxy               62     -0.162104  2 H  py         
    81      0.162104  3 H  py                48     -0.137592  1 S  fxyz       
    65     -0.116364  2 H  py                84      0.116364  3 H  py         
    71     -0.047111  2 H  dyz               90      0.047111  3 H  dyz        
 
 Vector   36  Occ=0.000000D+00  E= 9.374247D-01  Symmetry=a1
              MO Center= -3.8D-17,  2.0D-16,  2.8D-01, r^2= 2.0D+00
   Bfn.  Coefficient  Atom+Function         Bfn.  Coefficient  Atom+Function  
  ----- ------------  ---------------      ----- ------------  ---------------
    43      1.476595  1 S  dzz               21     -1.246489  1 S  pz         
    22     -0.945946  1 S  s                 32      0.876273  1 S  dxx        
    25      0.723049  1 S  pz                38     -0.657722  1 S  dxx        
    18      0.601877  1 S  pz                37     -0.587453  1 S  dzz        
    51     -0.472881  1 S  fyyz              64     -0.404013  2 H  px         
 
 Vector   37  Occ=0.000000D+00  E= 9.480678D-01  Symmetry=b1
              MO Center=  2.2D-15,  3.3D-15, -2.4D-01, r^2= 3.1D+00
   Bfn.  Coefficient  Atom+Function         Bfn.  Coefficient  Atom+Function  
  ----- ------------  ---------------      ----- ------------  ---------------
    16      3.029180  1 S  px                47     -1.323462  1 S  fxyy       
    44     -1.283195  1 S  fxxx              40     -1.255864  1 S  dxz        
    19     -1.185530  1 S  px                13     -1.156468  1 S  px         
    34      1.086330  1 S  dxz               49     -1.048206  1 S  fxzz       
    23      0.852400  1 S  px                64     -0.660625  2 H  px         
 
 Vector   38  Occ=0.000000D+00  E= 9.489767D-01  Symmetry=b2
              MO Center= -1.1D-15,  4.7D-14,  1.3D-01, r^2= 1.6D+00
   Bfn.  Coefficient  Atom+Function         Bfn.  Coefficient  Atom+Function  
  ----- ------------  ---------------      ----- ------------  ---------------
    36      1.627150  1 S  dyz               42     -1.610760  1 S  dyz        
    30      0.274198  1 S  dyz               17      0.256545  1 S  py         
    20      0.224753  1 S  py                65     -0.209209  2 H  py         
    84     -0.209209  3 H  py                62     -0.145637  2 H  py         
    81     -0.145637  3 H  py                52     -0.125148  1 S  fyzz       
 
 Vector   39  Occ=0.000000D+00  E= 9.920625D-01  Symmetry=a1
              MO Center=  4.1D-15,  4.6D-15, -8.5D-02, r^2= 2.4D+00
   Bfn.  Coefficient  Atom+Function         Bfn.  Coefficient  Atom+Function  
  ----- ------------  ---------------      ----- ------------  ---------------
    18      2.701403  1 S  pz                22     -2.639330  1 S  s          
     6     -2.093635  1 S  s                 41      1.498133  1 S  dyy        
    53     -1.008917  1 S  fzzz              25      0.989993  1 S  pz         
    51     -0.942908  1 S  fyyz              15     -0.849142  1 S  pz         
    57      0.812902  2 H  s                 76      0.812902  3 H  s          
 
 Vector   40  Occ=0.000000D+00  E= 1.095381D+00  Symmetry=b2
              MO Center= -4.1D-17, -1.1D-16,  6.8D-02, r^2= 3.6D+00
   Bfn.  Coefficient  Atom+Function         Bfn.  Coefficient  Atom+Function  
  ----- ------------  ---------------      ----- ------------  ---------------
    17      6.095419  1 S  py                45     -2.393724  1 S  fxxy       
    52     -2.381536  1 S  fyzz              50     -2.330871  1 S  fyyy       
    20     -2.065569  1 S  py                14     -2.039992  1 S  py         
    24      1.011844  1 S  py                42     -0.236173  1 S  dyz        
    11      0.191751  1 S  py                65     -0.157731  2 H  py         
 
 Vector   41  Occ=0.000000D+00  E= 1.169764D+00  Symmetry=a1
              MO Center= -7.0D-15,  6.3D-17,  6.9D-02, r^2= 3.3D+00
   Bfn.  Coefficient  Atom+Function         Bfn.  Coefficient  Atom+Function  
  ----- ------------  ---------------      ----- ------------  ---------------
    18      7.832139  1 S  pz                46     -3.311056  1 S  fxxz       
    53     -2.644180  1 S  fzzz              56      2.434114  2 H  s          
    75      2.434114  3 H  s                  6     -2.389832  1 S  s          
    51     -2.261864  1 S  fyyz              15     -2.127432  1 S  pz         
    43     -1.394634  1 S  dzz               64      1.105127  2 H  px         
 
 Vector   42  Occ=0.000000D+00  E= 1.231645D+00  Symmetry=b1
              MO Center= -5.2D-15,  1.0D-16,  9.4D-02, r^2= 2.9D+00
   Bfn.  Coefficient  Atom+Function         Bfn.  Coefficient  Atom+Function  
  ----- ------------  ---------------      ----- ------------  ---------------
    16      7.905325  1 S  px                49     -3.407789  1 S  fxzz       
    56      2.622684  2 H  s                 75     -2.622684  3 H  s          
    44     -2.590212  1 S  fxxx              47     -2.091296  1 S  fxyy       
    13     -2.049758  1 S  px                66      1.253628  2 H  pz         
    85     -1.253628  3 H  pz                40     -1.093511  1 S  dxz        
 
 Vector   43  Occ=0.000000D+00  E= 1.362677D+00  Symmetry=a1
              MO Center=  4.1D-15, -2.1D-19, -2.3D-01, r^2= 3.5D+00
   Bfn.  Coefficient  Atom+Function         Bfn.  Coefficient  Atom+Function  
  ----- ------------  ---------------      ----- ------------  ---------------
     6     12.710980  1 S  s                  5     -4.673592  1 S  s          
    38     -4.258287  1 S  dxx               43     -4.135659  1 S  dzz        
    41     -4.069322  1 S  dyy               22      3.862409  1 S  s          
    18     -2.087682  1 S  pz                57     -1.521093  2 H  s          
    76     -1.521093  3 H  s                 35     -1.425927  1 S  dyy        
 
 Vector   44  Occ=0.000000D+00  E= 1.541771D+00  Symmetry=a2
              MO Center= -2.7D-15, -9.6D-16, -3.8D-01, r^2= 2.0D+00
   Bfn.  Coefficient  Atom+Function         Bfn.  Coefficient  Atom+Function  
  ----- ------------  ---------------      ----- ------------  ---------------
    48      2.574286  1 S  fxyz              39     -0.991595  1 S  dxy        
    65     -0.762096  2 H  py                84      0.762096  3 H  py         
    62      0.537585  2 H  py                81     -0.537585  3 H  py         
    33      0.487795  1 S  dxy               27      0.122019  1 S  dxy        
    71     -0.036892  2 H  dyz               90      0.036892  3 H  dyz        
 
 Vector   45  Occ=0.000000D+00  E= 1.547740D+00  Symmetry=b1
              MO Center= -9.1D-15,  8.6D-16, -3.2D-01, r^2= 2.0D+00
   Bfn.  Coefficient  Atom+Function         Bfn.  Coefficient  Atom+Function  
  ----- ------------  ---------------      ----- ------------  ---------------
    16      1.925141  1 S  px                44     -1.266349  1 S  fxxx       
    64      0.986381  2 H  px                83      0.986381  3 H  px         
    56      0.845075  2 H  s                 75     -0.845075  3 H  s          
    47      0.571028  1 S  fxyy              40     -0.568113  1 S  dxz        
    55      0.544557  2 H  s                 74     -0.544557  3 H  s          
 
 Vector   46  Occ=0.000000D+00  E= 1.560369D+00  Symmetry=b2
              MO Center= -1.5D-15,  7.1D-18,  3.6D-02, r^2= 1.2D+00
   Bfn.  Coefficient  Atom+Function         Bfn.  Coefficient  Atom+Function  
  ----- ------------  ---------------      ----- ------------  ---------------
    45      1.901867  1 S  fxxy              52     -1.734679  1 S  fyzz       
    42     -0.227865  1 S  dyz               20      0.165263  1 S  py         
    65     -0.160817  2 H  py                84     -0.160817  3 H  py         
    71      0.123146  2 H  dyz               90      0.123146  3 H  dyz        
    68     -0.121685  2 H  dxy               87      0.121685  3 H  dxy        
 
 Vector   47  Occ=0.000000D+00  E= 1.598421D+00  Symmetry=a1
              MO Center=  1.9D-14,  4.5D-18, -1.8D-01, r^2= 1.8D+00
   Bfn.  Coefficient  Atom+Function         Bfn.  Coefficient  Atom+Function  
  ----- ------------  ---------------      ----- ------------  ---------------
     6      2.875203  1 S  s                 18     -1.444140  1 S  pz         
    53      1.172927  1 S  fzzz              51     -1.064709  1 S  fyyz       
    43     -1.050990  1 S  dzz               66     -0.899057  2 H  pz         
    85     -0.899057  3 H  pz                55     -0.741832  2 H  s          
    74     -0.741832  3 H  s                 21      0.588818  1 S  pz         
 
 Vector   48  Occ=0.000000D+00  E= 1.603438D+00  Symmetry=b2
              MO Center=  3.6D-15,  9.8D-17, -2.7D-01, r^2= 1.9D+00
   Bfn.  Coefficient  Atom+Function         Bfn.  Coefficient  Atom+Function  
  ----- ------------  ---------------      ----- ------------  ---------------
    52      1.342518  1 S  fyzz              42     -0.998891  1 S  dyz        
    45      0.884373  1 S  fxxy              20      0.826990  1 S  py         
    65     -0.794537  2 H  py                84     -0.794537  3 H  py         
    50     -0.749034  1 S  fyyy              62      0.492843  2 H  py         
    81      0.492843  3 H  py                36      0.427717  1 S  dyz        
 
 Vector   49  Occ=0.000000D+00  E= 1.869382D+00  Symmetry=b1
              MO Center= -3.3D-14,  5.6D-17, -1.8D-01, r^2= 2.2D+00
   Bfn.  Coefficient  Atom+Function         Bfn.  Coefficient  Atom+Function  
  ----- ------------  ---------------      ----- ------------  ---------------
    16      5.545983  1 S  px                56      3.746140  2 H  s          
    75     -3.746140  3 H  s                 47     -3.549315  1 S  fxyy       
    40     -3.358392  1 S  dxz               19      2.512998  1 S  px         
    55      1.909904  2 H  s                 74     -1.909904  3 H  s          
    64      1.370653  2 H  px                83      1.370653  3 H  px         
 
 Vector   50  Occ=0.000000D+00  E= 1.886500D+00  Symmetry=a1
              MO Center= -8.8D-15,  1.5D-17, -1.9D-01, r^2= 2.5D+00
   Bfn.  Coefficient  Atom+Function         Bfn.  Coefficient  Atom+Function  
  ----- ------------  ---------------      ----- ------------  ---------------
     6      7.537583  1 S  s                 18     -5.991098  1 S  pz         
    56     -3.596455  2 H  s                 75     -3.596455  3 H  s          
    51      3.357009  1 S  fyyz              55     -2.443979  2 H  s          
    74     -2.443979  3 H  s                 21     -2.141190  1 S  pz         
    15      1.496404  1 S  pz                64     -1.429448  2 H  px         
 
 Vector   51  Occ=0.000000D+00  E= 1.932673D+00  Symmetry=a1
              MO Center=  1.8D-14,  5.6D-17, -5.1D-01, r^2= 2.9D+00
   Bfn.  Coefficient  Atom+Function         Bfn.  Coefficient  Atom+Function  
  ----- ------------  ---------------      ----- ------------  ---------------
     6      4.168203  1 S  s                 55     -4.016128  2 H  s          
    74     -4.016128  3 H  s                 18     -3.465184  1 S  pz         
    21     -2.342202  1 S  pz                56     -1.861752  2 H  s          
    75     -1.861752  3 H  s                 43      1.495520  1 S  dzz        
    38      1.350605  1 S  dxx               64     -1.305565  2 H  px         
 
 Vector   52  Occ=0.000000D+00  E= 1.968292D+00  Symmetry=b1
              MO Center=  2.1D-14, -1.5D-17, -4.3D-01, r^2= 2.8D+00
   Bfn.  Coefficient  Atom+Function         Bfn.  Coefficient  Atom+Function  
  ----- ------------  ---------------      ----- ------------  ---------------
    16      5.451453  1 S  px                55      4.147909  2 H  s          
    74     -4.147909  3 H  s                 40     -4.103614  1 S  dxz        
    56      3.776672  2 H  s                 75     -3.776672  3 H  s          
    19      3.752728  1 S  px                66      1.750930  2 H  pz         
    85     -1.750930  3 H  pz                44     -1.399830  1 S  fxxx       
 
 Vector   53  Occ=0.000000D+00  E= 2.032030D+00  Symmetry=b2
              MO Center=  8.4D-15, -8.0D-18, -4.2D-01, r^2= 1.9D+00
   Bfn.  Coefficient  Atom+Function         Bfn.  Coefficient  Atom+Function  
  ----- ------------  ---------------      ----- ------------  ---------------
    50     -1.048608  1 S  fyyy              45      1.014658  1 S  fxxy       
    62     -0.826174  2 H  py                81     -0.826174  3 H  py         
    17      0.770802  1 S  py                52      0.737583  1 S  fyzz       
    20     -0.426826  1 S  py                65      0.345997  2 H  py         
    84      0.345997  3 H  py                36     -0.235228  1 S  dyz        
 
 Vector   54  Occ=0.000000D+00  E= 2.106664D+00  Symmetry=a2
              MO Center= -8.2D-15,  1.6D-16, -3.7D-01, r^2= 1.8D+00
   Bfn.  Coefficient  Atom+Function         Bfn.  Coefficient  Atom+Function  
  ----- ------------  ---------------      ----- ------------  ---------------
    48      3.419574  1 S  fxyz              62     -0.806012  2 H  py         
    81      0.806012  3 H  py                65      0.288806  2 H  py         
    84     -0.288806  3 H  py                33     -0.206811  1 S  dxy        
    39     -0.137748  1 S  dxy               27     -0.106199  1 S  dxy        
    71      0.099618  2 H  dyz               90     -0.099618  3 H  dyz        
 
 Vector   55  Occ=0.000000D+00  E= 2.214441D+00  Symmetry=b1
              MO Center= -2.5D-15,  3.6D-17, -4.8D-01, r^2= 2.4D+00
   Bfn.  Coefficient  Atom+Function         Bfn.  Coefficient  Atom+Function  
  ----- ------------  ---------------      ----- ------------  ---------------
    55      3.270573  2 H  s                 74     -3.270573  3 H  s          
    49     -2.185440  1 S  fxzz              16      1.651730  1 S  px         
    54     -1.181921  2 H  s                 73      1.181921  3 H  s          
    40     -0.959625  1 S  dxz               47      0.670080  1 S  fxyy       
    64      0.654477  2 H  px                83      0.654477  3 H  px         
 
 Vector   56  Occ=0.000000D+00  E= 2.251697D+00  Symmetry=a1
              MO Center=  3.2D-15,  6.6D-18, -4.2D-01, r^2= 2.4D+00
   Bfn.  Coefficient  Atom+Function         Bfn.  Coefficient  Atom+Function  
  ----- ------------  ---------------      ----- ------------  ---------------
    55      3.103485  2 H  s                 74      3.103485  3 H  s          
    46     -2.297743  1 S  fxxz               6     -2.282574  1 S  s          
    18      2.273683  1 S  pz                21      1.103039  1 S  pz         
    43     -0.998188  1 S  dzz               54     -0.996751  2 H  s          
    73     -0.996751  3 H  s                 22      0.882269  1 S  s          
 
 Vector   57  Occ=0.000000D+00  E= 2.489622D+00  Symmetry=b1
              MO Center= -7.7D-15, -3.0D-17, -4.8D-01, r^2= 2.0D+00
   Bfn.  Coefficient  Atom+Function         Bfn.  Coefficient  Atom+Function  
  ----- ------------  ---------------      ----- ------------  ---------------
    16      2.993957  1 S  px                55      2.114759  2 H  s          
    74     -2.114759  3 H  s                 47     -2.037691  1 S  fxyy       
    40     -1.900170  1 S  dxz               34     -1.421915  1 S  dxz        
    49      1.079933  1 S  fxzz              61      0.885156  2 H  px         
    80      0.885156  3 H  px                63      0.784195  2 H  pz         
 
 Vector   58  Occ=0.000000D+00  E= 2.660780D+00  Symmetry=a1
              MO Center=  2.0D-14, -3.3D-17, -4.4D-01, r^2= 2.1D+00
   Bfn.  Coefficient  Atom+Function         Bfn.  Coefficient  Atom+Function  
  ----- ------------  ---------------      ----- ------------  ---------------
     6      8.370673  1 S  s                 18     -4.741645  1 S  pz         
    55     -3.072365  2 H  s                 74     -3.072365  3 H  s          
    51      2.550007  1 S  fyyz              41     -2.276432  1 S  dyy        
     5     -1.720086  1 S  s                 46     -1.398875  1 S  fxxz       
    53      1.285633  1 S  fzzz              22      1.251635  1 S  s          
 
 Vector   59  Occ=0.000000D+00  E= 3.000049D+00  Symmetry=b2
              MO Center=  9.8D-16,  1.7D-17,  6.2D-02, r^2= 1.7D+00
   Bfn.  Coefficient  Atom+Function         Bfn.  Coefficient  Atom+Function  
  ----- ------------  ---------------      ----- ------------  ---------------
    17      5.970151  1 S  py                50     -3.697364  1 S  fyyy       
    52     -3.558093  1 S  fyzz              45     -3.488789  1 S  fxxy       
    20     -1.146561  1 S  py                24      0.532593  1 S  py         
    11     -0.438611  1 S  py                 8     -0.192657  1 S  py         
    42     -0.189067  1 S  dyz               65     -0.142107  2 H  py         
 
 Vector   60  Occ=0.000000D+00  E= 3.018839D+00  Symmetry=a2
              MO Center=  6.2D-15,  1.1D-16, -8.0D-01, r^2= 1.5D+00
   Bfn.  Coefficient  Atom+Function         Bfn.  Coefficient  Atom+Function  
  ----- ------------  ---------------      ----- ------------  ---------------
    68      0.921927  2 H  dxy               87      0.921927  3 H  dxy        
    71     -0.825167  2 H  dyz               90      0.825167  3 H  dyz        
    39     -0.226389  1 S  dxy               48     -0.101703  1 S  fxyz       
    27     -0.053822  1 S  dxy        
 
 Vector   61  Occ=0.000000D+00  E= 3.108370D+00  Symmetry=a1
              MO Center=  2.2D-15, -1.7D-17, -5.6D-01, r^2= 1.7D+00
   Bfn.  Coefficient  Atom+Function         Bfn.  Coefficient  Atom+Function  
  ----- ------------  ---------------      ----- ------------  ---------------
    18      4.652080  1 S  pz                51     -2.977418  1 S  fyyz       
    46     -2.823143  1 S  fxxz              53     -2.025597  1 S  fzzz       
     6     -1.927874  1 S  s                 56      0.921674  2 H  s          
    75      0.921674  3 H  s                 55      0.851788  2 H  s          
    74      0.851788  3 H  s                 69     -0.738850  2 H  dxz        
 
 Vector   62  Occ=0.000000D+00  E= 3.134622D+00  Symmetry=b1
              MO Center=  2.1D-15,  4.1D-17, -7.9D-02, r^2= 1.8D+00
   Bfn.  Coefficient  Atom+Function         Bfn.  Coefficient  Atom+Function  
  ----- ------------  ---------------      ----- ------------  ---------------
    16      8.707039  1 S  px                49     -5.085025  1 S  fxzz       
    44     -4.499817  1 S  fxxx              47     -4.015715  1 S  fxyy       
    56      1.751195  2 H  s                 75     -1.751195  3 H  s          
    40     -1.734844  1 S  dxz               55      1.482164  2 H  s          
    74     -1.482164  3 H  s                 34      0.956844  1 S  dxz        
 
 Vector   63  Occ=0.000000D+00  E= 3.142497D+00  Symmetry=a1
              MO Center= -1.2D-14,  1.7D-17, -6.0D-02, r^2= 1.8D+00
   Bfn.  Coefficient  Atom+Function         Bfn.  Coefficient  Atom+Function  
  ----- ------------  ---------------      ----- ------------  ---------------
    18      8.060002  1 S  pz                46     -5.252994  1 S  fxxz       
    53     -4.276408  1 S  fzzz              51     -3.757844  1 S  fyyz       
     6     -1.865464  1 S  s                 56      1.571876  2 H  s          
    75      1.571876  3 H  s                 55      1.075770  2 H  s          
    74      1.075770  3 H  s                 43     -1.048869  1 S  dzz        
 
 Vector   64  Occ=0.000000D+00  E= 3.242543D+00  Symmetry=b2
              MO Center= -5.8D-15,  2.0D-18, -7.2D-01, r^2= 1.6D+00
   Bfn.  Coefficient  Atom+Function         Bfn.  Coefficient  Atom+Function  
  ----- ------------  ---------------      ----- ------------  ---------------
    45      1.101708  1 S  fxxy              71     -1.025673  2 H  dyz        
    90     -1.025673  3 H  dyz               68      0.761702  2 H  dxy        
    87     -0.761702  3 H  dxy               52     -0.634553  1 S  fyzz       
    17     -0.336031  1 S  py                42      0.257347  1 S  dyz        
    50      0.200486  1 S  fyyy              30      0.050276  1 S  dyz        
 
 Vector   65  Occ=0.000000D+00  E= 3.250226D+00  Symmetry=b1
              MO Center=  1.3D-14, -8.6D-17, -5.4D-01, r^2= 1.8D+00
   Bfn.  Coefficient  Atom+Function         Bfn.  Coefficient  Atom+Function  
  ----- ------------  ---------------      ----- ------------  ---------------
    16      4.545066  1 S  px                49     -3.290630  1 S  fxzz       
    47     -2.529967  1 S  fxyy              44     -2.051529  1 S  fxxx       
    56      1.020103  2 H  s                 75     -1.020103  3 H  s          
    69     -0.784889  2 H  dxz               88     -0.784889  3 H  dxz        
    64      0.656736  2 H  px                83      0.656736  3 H  px         
 
 Vector   66  Occ=0.000000D+00  E= 3.627027D+00  Symmetry=a2
              MO Center= -1.0D-15, -6.1D-17, -5.4D-01, r^2= 1.6D+00
   Bfn.  Coefficient  Atom+Function         Bfn.  Coefficient  Atom+Function  
  ----- ------------  ---------------      ----- ------------  ---------------
    48      2.579310  1 S  fxyz              71     -1.012188  2 H  dyz        
    90      1.012188  3 H  dyz               68     -0.948203  2 H  dxy        
    87     -0.948203  3 H  dxy               39     -0.736236  1 S  dxy        
    27     -0.657501  1 S  dxy               65     -0.344478  2 H  py         
    84      0.344478  3 H  py                33     -0.219694  1 S  dxy        
 
 Vector   67  Occ=0.000000D+00  E= 3.637066D+00  Symmetry=b1
              MO Center=  2.5D-14,  3.8D-18, -6.5D-01, r^2= 1.7D+00
   Bfn.  Coefficient  Atom+Function         Bfn.  Coefficient  Atom+Function  
  ----- ------------  ---------------      ----- ------------  ---------------
    44      1.351567  1 S  fxxx              16     -0.865289  1 S  px         
    67     -0.772069  2 H  dxx               86      0.772069  3 H  dxx        
    49     -0.743500  1 S  fxzz              72      0.681492  2 H  dzz        
    91     -0.681492  3 H  dzz               56     -0.301708  2 H  s          
    75      0.301708  3 H  s                 47      0.294319  1 S  fxyy       
 
 Vector   68  Occ=0.000000D+00  E= 3.650680D+00  Symmetry=b2
              MO Center= -5.2D-16,  4.6D-18, -5.4D-01, r^2= 1.6D+00
   Bfn.  Coefficient  Atom+Function         Bfn.  Coefficient  Atom+Function  
  ----- ------------  ---------------      ----- ------------  ---------------
    52      1.465188  1 S  fyzz              45      1.440429  1 S  fxxy       
    68     -1.091824  2 H  dxy               87      1.091824  3 H  dxy        
    71     -0.846319  2 H  dyz               90     -0.846319  3 H  dyz        
    42     -0.729762  1 S  dyz               30     -0.620946  1 S  dyz        
    17     -0.498983  1 S  py                20      0.435631  1 S  py         
 
 Vector   69  Occ=0.000000D+00  E= 3.658598D+00  Symmetry=a1
              MO Center= -2.7D-14, -2.8D-18, -3.9D-01, r^2= 1.6D+00
   Bfn.  Coefficient  Atom+Function         Bfn.  Coefficient  Atom+Function  
  ----- ------------  ---------------      ----- ------------  ---------------
     6      1.313360  1 S  s                 46      0.962567  1 S  fxxz       
     5      0.826314  1 S  s                 55     -0.777004  2 H  s          
    74     -0.777004  3 H  s                 53     -0.756845  1 S  fzzz       
    72      0.732657  2 H  dzz               91      0.732657  3 H  dzz        
    38     -0.657439  1 S  dxx               21     -0.573984  1 S  pz         
 
 Vector   70  Occ=0.000000D+00  E= 3.860829D+00  Symmetry=a1
              MO Center= -1.7D-14, -9.0D-19, -2.3D-01, r^2= 1.5D+00
   Bfn.  Coefficient  Atom+Function         Bfn.  Coefficient  Atom+Function  
  ----- ------------  ---------------      ----- ------------  ---------------
     6      7.707765  1 S  s                  5      7.525984  1 S  s          
    35     -4.253165  1 S  dyy               32     -4.090814  1 S  dxx        
    37     -4.110063  1 S  dzz               43     -2.030354  1 S  dzz        
    41     -2.011721  1 S  dyy                4     -1.978008  1 S  s          
    18     -1.884620  1 S  pz                38     -1.823357  1 S  dxx        
 
 Vector   71  Occ=0.000000D+00  E= 4.197133D+00  Symmetry=b1
              MO Center=  1.9D-14, -5.8D-16, -6.7D-01, r^2= 1.7D+00
   Bfn.  Coefficient  Atom+Function         Bfn.  Coefficient  Atom+Function  
  ----- ------------  ---------------      ----- ------------  ---------------
    16      3.997263  1 S  px                55      3.432396  2 H  s          
    74     -3.432396  3 H  s                 56      2.470554  2 H  s          
    75     -2.470554  3 H  s                 40     -2.258317  1 S  dxz        
    19      2.150027  1 S  px                47     -1.369276  1 S  fxyy       
    34     -1.305982  1 S  dxz               69      1.278107  2 H  dxz        
 
 Vector   72  Occ=0.000000D+00  E= 4.241463D+00  Symmetry=a1
              MO Center=  7.9D-15, -1.5D-16, -4.2D-01, r^2= 2.0D+00
   Bfn.  Coefficient  Atom+Function         Bfn.  Coefficient  Atom+Function  
  ----- ------------  ---------------      ----- ------------  ---------------
     5      4.038727  1 S  s                 55      3.326929  2 H  s          
    74      3.326929  3 H  s                 32     -3.164613  1 S  dxx        
    37     -3.133217  1 S  dzz               18      2.821931  1 S  pz         
    35     -2.562800  1 S  dyy               38     -2.007737  1 S  dxx        
    43     -1.933497  1 S  dzz               56      1.919938  2 H  s          
 
 Vector   73  Occ=0.000000D+00  E= 4.567405D+00  Symmetry=b1
              MO Center= -8.5D-15,  4.3D-16, -7.1D-01, r^2= 1.8D+00
   Bfn.  Coefficient  Atom+Function         Bfn.  Coefficient  Atom+Function  
  ----- ------------  ---------------      ----- ------------  ---------------
    55      3.993342  2 H  s                 74     -3.993342  3 H  s          
    16      3.951899  1 S  px                49     -1.817944  1 S  fxzz       
    44     -1.493585  1 S  fxxx              40     -1.471213  1 S  dxz        
    72     -1.293878  2 H  dzz               91      1.293878  3 H  dzz        
    47     -1.260470  1 S  fxyy              67     -1.154776  2 H  dxx        
 
 Vector   74  Occ=0.000000D+00  E= 4.625395D+00  Symmetry=a1
              MO Center= -7.6D-16,  2.0D-17, -5.9D-01, r^2= 1.6D+00
   Bfn.  Coefficient  Atom+Function         Bfn.  Coefficient  Atom+Function  
  ----- ------------  ---------------      ----- ------------  ---------------
     6      3.607381  1 S  s                 55     -3.551352  2 H  s          
    74     -3.551352  3 H  s                 18     -3.277478  1 S  pz         
    46      1.675533  1 S  fxxz              53      1.158325  1 S  fzzz       
    67      1.143953  2 H  dxx               86      1.143953  3 H  dxx        
    72      1.136311  2 H  dzz               91      1.136311  3 H  dzz        
 
 Vector   75  Occ=0.000000D+00  E= 4.819928D+00  Symmetry=b2
              MO Center=  5.1D-15,  6.4D-18, -4.8D-02, r^2= 6.4D-01
   Bfn.  Coefficient  Atom+Function         Bfn.  Coefficient  Atom+Function  
  ----- ------------  ---------------      ----- ------------  ---------------
    30      1.868343  1 S  dyz               36     -1.638149  1 S  dyz        
    52      0.644657  1 S  fyzz              45      0.611178  1 S  fxxy       
    68     -0.532234  2 H  dxy               87      0.532234  3 H  dxy        
    71     -0.364183  2 H  dyz               90     -0.364183  3 H  dyz        
    42      0.318817  1 S  dyz               62     -0.192059  2 H  py         
 
 Vector   76  Occ=0.000000D+00  E= 4.854543D+00  Symmetry=a2
              MO Center= -5.1D-15,  3.2D-17, -3.5D-02, r^2= 6.7D-01
   Bfn.  Coefficient  Atom+Function         Bfn.  Coefficient  Atom+Function  
  ----- ------------  ---------------      ----- ------------  ---------------
    27      1.859040  1 S  dxy               33     -1.678169  1 S  dxy        
    48      1.404012  1 S  fxyz              71     -0.536281  2 H  dyz        
    90      0.536281  3 H  dyz               68     -0.445212  2 H  dxy        
    87     -0.445212  3 H  dxy               39      0.266108  1 S  dxy        
    62     -0.217261  2 H  py                81      0.217261  3 H  py         
 
 Vector   77  Occ=0.000000D+00  E= 5.192435D+00  Symmetry=a1
              MO Center= -1.4D-17, -2.7D-17, -2.5D-01, r^2= 8.2D-01
   Bfn.  Coefficient  Atom+Function         Bfn.  Coefficient  Atom+Function  
  ----- ------------  ---------------      ----- ------------  ---------------
    37      1.617610  1 S  dzz                5     -1.109263  1 S  s          
    53     -0.960679  1 S  fzzz              31     -0.895084  1 S  dzz        
    67     -0.799868  2 H  dxx               86     -0.799868  3 H  dxx        
    26      0.757302  1 S  dxx               61     -0.445746  2 H  px         
    80      0.445746  3 H  px                18      0.406249  1 S  pz         
 
 Vector   78  Occ=0.000000D+00  E= 5.359013D+00  Symmetry=a1
              MO Center=  7.4D-16, -1.5D-16, -3.3D-02, r^2= 8.5D-01
   Bfn.  Coefficient  Atom+Function         Bfn.  Coefficient  Atom+Function  
  ----- ------------  ---------------      ----- ------------  ---------------
     5      4.087695  1 S  s                 46      3.604062  1 S  fxxz       
    32     -3.088147  1 S  dxx                6     -2.292338  1 S  s          
    37     -2.245631  1 S  dzz               29     -1.236982  1 S  dyy        
    63      0.991516  2 H  pz                82      0.991516  3 H  pz         
    61      0.864238  2 H  px                80     -0.864238  3 H  px         
 
 Vector   79  Occ=0.000000D+00  E= 6.226938D+00  Symmetry=b1
              MO Center= -1.1D-15,  7.8D-18, -4.9D-02, r^2= 8.4D-01
   Bfn.  Coefficient  Atom+Function         Bfn.  Coefficient  Atom+Function  
  ----- ------------  ---------------      ----- ------------  ---------------
    34      4.686147  1 S  dxz               49     -4.269083  1 S  fxzz       
    28     -2.025555  1 S  dxz               44     -1.483491  1 S  fxxx       
    61     -1.192026  2 H  px                80     -1.192026  3 H  px         
    69     -1.170263  2 H  dxz               88     -1.170263  3 H  dxz        
    63     -1.036137  2 H  pz                82      1.036137  3 H  pz         
 
 Vector   80  Occ=0.000000D+00  E= 8.608781D+00  Symmetry=b1
              MO Center= -2.0D-15,  6.1D-17, -8.1D-01, r^2= 1.2D+00
   Bfn.  Coefficient  Atom+Function         Bfn.  Coefficient  Atom+Function  
  ----- ------------  ---------------      ----- ------------  ---------------
    58      0.639445  2 H  px                60     -0.641615  2 H  pz         
    77      0.639445  3 H  px                79      0.641615  3 H  pz         
    61     -0.491610  2 H  px                80     -0.491610  3 H  px         
    63      0.450191  2 H  pz                82     -0.450191  3 H  pz         
    49     -0.406276  1 S  fxzz              64      0.272159  2 H  px         
 
 Vector   81  Occ=0.000000D+00  E= 8.612480D+00  Symmetry=a2
              MO Center= -2.3D-13, -5.0D-17, -8.1D-01, r^2= 1.2D+00
   Bfn.  Coefficient  Atom+Function         Bfn.  Coefficient  Atom+Function  
  ----- ------------  ---------------      ----- ------------  ---------------
    59      0.907233  2 H  py                78     -0.907233  3 H  py         
    62     -0.684206  2 H  py                81      0.684206  3 H  py         
    48      0.676051  1 S  fxyz              33     -0.306543  1 S  dxy        
    65      0.248859  2 H  py                84     -0.248859  3 H  py         
    27      0.130160  1 S  dxy               71     -0.111685  2 H  dyz        
 
 Vector   82  Occ=0.000000D+00  E= 8.646356D+00  Symmetry=b2
              MO Center=  2.3D-13, -1.2D-15, -8.1D-01, r^2= 1.2D+00
   Bfn.  Coefficient  Atom+Function         Bfn.  Coefficient  Atom+Function  
  ----- ------------  ---------------      ----- ------------  ---------------
    59      0.909292  2 H  py                78      0.909292  3 H  py         
    62     -0.688931  2 H  py                81     -0.688931  3 H  py         
    36     -0.294955  1 S  dyz               65      0.270826  2 H  py         
    84      0.270826  3 H  py                20     -0.256838  1 S  py         
    45      0.223348  1 S  fxxy              52      0.205333  1 S  fyzz       
 
 Vector   83  Occ=0.000000D+00  E= 8.720018D+00  Symmetry=a1
              MO Center=  1.8D-15,  1.5D-15, -8.0D-01, r^2= 1.2D+00
   Bfn.  Coefficient  Atom+Function         Bfn.  Coefficient  Atom+Function  
  ----- ------------  ---------------      ----- ------------  ---------------
    46      0.800846  1 S  fxxz              60     -0.728443  2 H  pz         
    79     -0.728443  3 H  pz                18     -0.711106  1 S  pz         
    63      0.650463  2 H  pz                82      0.650463  3 H  pz         
    58      0.556726  2 H  px                77     -0.556726  3 H  px         
     6      0.550392  1 S  s                 32     -0.457960  1 S  dxx        
 
 Vector   84  Occ=0.000000D+00  E= 9.358473D+00  Symmetry=b1
              MO Center= -8.7D-14,  6.0D-19, -7.4D-01, r^2= 1.3D+00
   Bfn.  Coefficient  Atom+Function         Bfn.  Coefficient  Atom+Function  
  ----- ------------  ---------------      ----- ------------  ---------------
    34      2.404214  1 S  dxz               49     -2.097847  1 S  fxzz       
    61     -1.168249  2 H  px                80     -1.168249  3 H  px         
    63     -1.126830  2 H  pz                82      1.126830  3 H  pz         
    55     -1.055314  2 H  s                 74      1.055314  3 H  s          
    44     -0.897130  1 S  fxxx              69     -0.740793  2 H  dxz        
 
 Vector   85  Occ=0.000000D+00  E= 9.481633D+00  Symmetry=a1
              MO Center=  8.0D-14,  2.0D-17, -6.8D-01, r^2= 1.2D+00
   Bfn.  Coefficient  Atom+Function         Bfn.  Coefficient  Atom+Function  
  ----- ------------  ---------------      ----- ------------  ---------------
     5      7.093787  1 S  s                 32     -2.918765  1 S  dxx        
    37     -2.866087  1 S  dzz                6     -2.081636  1 S  s          
    46      1.906084  1 S  fxxz              35     -1.693711  1 S  dyy        
    55      1.257978  2 H  s                 74      1.257978  3 H  s          
    61      1.222306  2 H  px                80     -1.222306  3 H  px         
 
 Vector   86  Occ=0.000000D+00  E= 1.022654D+01  Symmetry=a1
              MO Center=  6.4D-15, -5.1D-18,  2.9D-02, r^2= 7.7D-01
   Bfn.  Coefficient  Atom+Function         Bfn.  Coefficient  Atom+Function  
  ----- ------------  ---------------      ----- ------------  ---------------
     5     18.294595  1 S  s                 35     -6.315296  1 S  dyy        
    32     -6.097706  1 S  dxx               37     -6.084510  1 S  dzz        
    26     -3.285279  1 S  dxx               31     -3.299442  1 S  dzz        
    29     -3.262595  1 S  dyy                6      1.943712  1 S  s          
     3     -1.901819  1 S  s                 22      0.982234  1 S  s          
 
 Vector   87  Occ=0.000000D+00  E= 1.847461D+01  Symmetry=b2
              MO Center= -2.5D-18,  5.9D-18,  1.0D-01, r^2= 2.1D-01
   Bfn.  Coefficient  Atom+Function         Bfn.  Coefficient  Atom+Function  
  ----- ------------  ---------------      ----- ------------  ---------------
    17      1.899321  1 S  py                11     -1.526526  1 S  py         
    45     -1.334605  1 S  fxxy              52     -1.331919  1 S  fyzz       
    50     -1.308915  1 S  fyyy               8      1.228734  1 S  py         
    14      0.721628  1 S  py                20     -0.368912  1 S  py         
    24      0.170203  1 S  py                36      0.027238  1 S  dyz        
 
 Vector   88  Occ=0.000000D+00  E= 1.866791D+01  Symmetry=a1
              MO Center= -7.7D-15,  5.0D-20,  9.4D-02, r^2= 2.1D-01
   Bfn.  Coefficient  Atom+Function         Bfn.  Coefficient  Atom+Function  
  ----- ------------  ---------------      ----- ------------  ---------------
    18      2.857699  1 S  pz                51     -1.626085  1 S  fyyz       
    12     -1.546918  1 S  pz                53     -1.535229  1 S  fzzz       
     6     -1.329045  1 S  s                 46     -1.326560  1 S  fxxz       
     9      1.229674  1 S  pz                55      0.636428  2 H  s          
    74      0.636428  3 H  s                 15      0.632768  1 S  pz         
 
 Vector   89  Occ=0.000000D+00  E= 1.868905D+01  Symmetry=b1
              MO Center=  8.8D-15, -3.9D-19,  9.3D-02, r^2= 2.1D-01
   Bfn.  Coefficient  Atom+Function         Bfn.  Coefficient  Atom+Function  
  ----- ------------  ---------------      ----- ------------  ---------------
    16      2.955330  1 S  px                47     -1.644584  1 S  fxyy       
    10     -1.549487  1 S  px                44     -1.543666  1 S  fxxx       
    49     -1.360643  1 S  fxzz               7      1.229918  1 S  px         
    56      0.690181  2 H  s                 75     -0.690181  3 H  s          
    55      0.683166  2 H  s                 74     -0.683166  3 H  s          
 
 Vector   90  Occ=0.000000D+00  E= 2.492064D+01  Symmetry=a1
              MO Center=  9.7D-16, -1.5D-19,  1.0D-01, r^2= 2.7D-01
   Bfn.  Coefficient  Atom+Function         Bfn.  Coefficient  Atom+Function  
  ----- ------------  ---------------      ----- ------------  ---------------
     5     16.527872  1 S  s                  4     15.735060  1 S  s          
     3    -12.121511  1 S  s                 26     -6.878827  1 S  dxx        
    29     -6.893437  1 S  dyy               31     -6.882778  1 S  dzz        
    32     -5.046060  1 S  dxx               37     -5.033990  1 S  dzz        
    35     -4.995145  1 S  dyy                2      0.665052  1 S  s          
 
 Vector   91  Occ=0.000000D+00  E= 2.192653D+02  Symmetry=a1
              MO Center= -5.8D-17,  2.8D-21,  1.0D-01, r^2= 3.4D-02
   Bfn.  Coefficient  Atom+Function         Bfn.  Coefficient  Atom+Function  
  ----- ------------  ---------------      ----- ------------  ---------------
     4      7.661959  1 S  s                  3     -6.365873  1 S  s          
     5      5.514168  1 S  s                 26     -2.795799  1 S  dxx        
    29     -2.801814  1 S  dyy               31     -2.797197  1 S  dzz        
     2      2.293310  1 S  s                 32     -1.706858  1 S  dxx        
    37     -1.701770  1 S  dzz               35     -1.681334  1 S  dyy        
 

 center of mass
 --------------
 x =   0.00000000 y =   0.00000000 z =   0.08999062

 moments of inertia (a.u.)
 ------------------
           5.721375445453           0.000000000000           0.000000000000
           0.000000000000          12.553746656971           0.000000000000
           0.000000000000           0.000000000000           6.832371211517
 
     Multipole analysis of the density
     ---------------------------------
 
     L   x y z        total         alpha         beta         nuclear
     -   - - -        -----         -----         ----         -------
     0   0 0 0     -0.000000     -9.000000     -9.000000     18.000000
 
     1   1 0 0     -0.000000     -0.000000     -0.000000      0.000000
     1   0 1 0     -0.000000     -0.000000     -0.000000      0.000000
     1   0 0 1     -0.388334     -0.194167     -0.194167     -0.000000
 
     2   2 0 0     -9.132560     -7.955942     -7.955942      6.779323
     2   1 1 0     -0.000000     -0.000000     -0.000000      0.000000
     2   1 0 1      0.000000      0.000000      0.000000      0.000000
     2   0 2 0    -12.371370     -6.185685     -6.185685      0.000000
     2   0 1 1      0.000000      0.000000      0.000000      0.000000
     2   0 0 2    -10.127605     -7.745959     -7.745959      5.364313
 

 Parallel integral file used      69 records with       0 large values


 Task  times  cpu:        1.5s     wall:        2.4s
 
 
                                NWChem Input Module
                                -------------------
 
 
 Summary of allocated global arrays
-----------------------------------
  No active global arrays



                         GA Statistics for process    0
                         ------------------------------

       create   destroy   get      put      acc     scatter   gather  read&inc
calls:  241      241     1693      926      504        0        0      131     
number of processes/call 2.61e+00 1.54e+00 3.42e+00 0.00e+00 0.00e+00
bytes total:             2.19e+07 4.00e+06 1.18e+07 0.00e+00 0.00e+00 1.05e+03
bytes remote:            1.17e+07 1.12e+06 5.94e+06 0.00e+00 0.00e+00 0.00e+00
Max memory consumed for GA by this process: 874072 bytes
 
MA_summarize_allocated_blocks: starting scan ...
MA_summarize_allocated_blocks: scan completed: 0 heap blocks, 0 stack blocks
MA usage statistics:

	allocation statistics:
					      heap	     stack
					      ----	     -----
	current number of blocks	         0	         0
	maximum number of blocks	        22	        57
	current total bytes		         0	         0
	maximum total bytes		   3993424	  23559832
	maximum total K-bytes		      3994	     23560
	maximum total M-bytes		         4	        24
 
 
                                     CITATION
                                     --------
                Please cite the following reference when publishing
                           results obtained with NWChem:
 
                 M. Valiev, E.J. Bylaska, N. Govind, K. Kowalski,
              T.P. Straatsma, H.J.J. van Dam, D. Wang, J. Nieplocha,
                        E. Apra, T.L. Windus, W.A. de Jong
                 "NWChem: a comprehensive and scalable open-source
                  solution for large scale molecular simulations"
                      Comput. Phys. Commun. 181, 1477 (2010)
                           doi:10.1016/j.cpc.2010.04.018
 
                                      AUTHORS
                                      -------
          E. Apra, E. J. Bylaska, W. A. de Jong, N. Govind, K. Kowalski,
       T. P. Straatsma, M. Valiev, H. J. J. van Dam, D. Wang, T. L. Windus,
        J. Hammond, J. Autschbach, K. Bhaskaran-Nair, J. Brabec, K. Lopata,
    S. A. Fischer, S. Krishnamoorthy, M. Jacquelin, W. Ma, M. Klemm, O. Villa,
      Y. Chen, V. Anisimov, F. Aquino, S. Hirata, M. T. Hackler, V. Konjkov,
            D. Mejia-Rodriguez, T. Risthaus, M. Malagoli, A. Marenich,
   A. Otero-de-la-Roza, J. Mullin, P. Nichols, R. Peverati, J. Pittner, Y. Zhao,
        P.-D. Fan, A. Fonari, M. J. Williamson, R. J. Harrison, J. R. Rehr,
      M. Dupuis, D. Silverstein, D. M. A. Smith, J. Nieplocha, V. Tipparaju,
    M. Krishnan, B. E. Van Kuiken, A. Vazquez-Mayagoitia, L. Jensen, M. Swart,
      Q. Wu, T. Van Voorhis, A. A. Auer, M. Nooijen, L. D. Crosby, E. Brown,
      G. Cisneros, G. I. Fann, H. Fruchtl, J. Garza, K. Hirao, R. A. Kendall,
      J. A. Nichols, K. Tsemekhman, K. Wolinski, J. Anchell, D. E. Bernholdt,
      P. Borowski, T. Clark, D. Clerc, H. Dachsel, M. J. O. Deegan, K. Dyall,
    D. Elwood, E. Glendening, M. Gutowski, A. C. Hess, J. Jaffe, B. G. Johnson,
     J. Ju, R. Kobayashi, R. Kutteh, Z. Lin, R. Littlefield, X. Long, B. Meng,
      T. Nakajima, S. Niu, L. Pollack, M. Rosing, K. Glaesemann, G. Sandrone,
      M. Stave, H. Taylor, G. Thomas, J. H. van Lenthe, A. T. Wong, Z. Zhang.

 Total times  cpu:        1.5s     wall:        2.7s
