 argument  1 = /storage/home/rabeet/work/nwc/pa8/nwtpss/HCl+.xyz.nw
  NWChem w/ OpenMP: maximum threads =  1
                                         
                                         
 
 
              Northwest Computational Chemistry Package (NWChem) 6.8
              ------------------------------------------------------
 
 
                    Environmental Molecular Sciences Laboratory
                       Pacific Northwest National Laboratory
                                Richland, WA 99352
 
                              Copyright (c) 1994-2018
                       Pacific Northwest National Laboratory
                            Battelle Memorial Institute
 
             NWChem is an open-source computational chemistry package
                        distributed under the terms of the
                      Educational Community License (ECL) 2.0
             A copy of the license is included with this distribution
                              in the LICENSE.TXT file
 
                                  ACKNOWLEDGMENT
                                  --------------

            This software and its documentation were developed at the
            EMSL at Pacific Northwest National Laboratory, a multiprogram
            national laboratory, operated for the U.S. Department of Energy
            by Battelle under Contract Number DE-AC05-76RL01830. Support
            for this work was provided by the Department of Energy Office
            of Biological and Environmental Research, Office of Basic
            Energy Sciences, and the Office of Advanced Scientific Computing.


           Job information
           ---------------

    hostname        = r8n4.niserhpc.org
    program         = /home/rabeet/nwchem-6.8/bin/LINUX64/nwchem
    date            = Sun Oct 27 10:45:39 2019

    compiled        = Fri_Jun_28_18:24:12_2019
    source          = /home/rabeet/nwchem-6.8
    nwchem branch   = Development
    nwchem revision = N/A
    ga revision     = 5.6.5
    use scalapack   = T
    input           = /storage/home/rabeet/work/nwc/pa8/nwtpss/HCl+.xyz.nw
    prefix          = HCl+.xyz.
    data base       = ./HCl+.xyz.db
    status          = startup
    nproc           =       16
    time left       =     -1s



           Memory information
           ------------------

    heap     =   13107194 doubles =    100.0 Mbytes
    stack    =   13107199 doubles =    100.0 Mbytes
    global   =   26214400 doubles =    200.0 Mbytes (distinct from heap & stack)
    total    =   52428793 doubles =    400.0 Mbytes
    verify   = yes
    hardfail = no 


           Directory information
           ---------------------
 
  0 permanent = .
  0 scratch   = .
 
 
 
 
                                NWChem Input Module
                                -------------------
 
 

 Scaling coordinates for geometry "geometry" by  1.889725989
 (inverse scale =  0.529177249)

 C2V symmetry detected

          ------
          auto-z
          ------
  no constraints, skipping   0.000000000000000E+000
  no constraints, skipping   0.000000000000000E+000
 
 
                             Geometry "geometry" -> ""
                             -------------------------
 
 Output coordinates in angstroms (scale by  1.889725989 to convert to a.u.)
 
  No.       Tag          Charge          X              Y              Z
 ---- ---------------- ---------- -------------- -------------- --------------
    1 Cl                  17.0000     0.00000000     0.00000000    -0.09115219
    2 H                    1.0000    -0.97252313     0.00000000     0.77479365
    3 H                    1.0000     0.97252313     0.00000000     0.77479365
 
      Atomic Mass 
      ----------- 
 
      Cl                34.968850
      H                  1.007825
 

 Effective nuclear repulsion energy (a.u.)      14.0889526096

            Nuclear Dipole moment (a.u.) 
            ----------------------------
        X                 Y               Z
 ---------------- ---------------- ----------------
     0.0000000000     0.0000000000     0.0000000000
 
      Symmetry information
      --------------------
 
 Group name             C2v       
 Group number             16
 Group order               4
 No. of unique centers     2
 
      Symmetry unique atoms
 
     1    2
 


                                Z-matrix (autoz)
                                -------- 

 Units are Angstrom for bonds and degrees for angles
 
      Type          Name      I     J     K     L     M      Value
      ----------- --------  ----- ----- ----- ----- ----- ----------
    1 Stretch                  1     2                       1.30218
    2 Stretch                  1     3                       1.30218
    3 Bend                     2     1     3                96.63552
 
 
            XYZ format geometry
            -------------------
     3
 geometry
 Cl                    0.00000000     0.00000000    -0.09115219
 H                    -0.97252313     0.00000000     0.77479365
 H                     0.97252313     0.00000000     0.77479365
 
 ==============================================================================
                                internuclear distances
 ------------------------------------------------------------------------------
       center one      |      center two      | atomic units |  angstroms
 ------------------------------------------------------------------------------
    2 H                |   1 Cl               |     2.46076  |     1.30218
    3 H                |   1 Cl               |     2.46076  |     1.30218
 ------------------------------------------------------------------------------
                         number of included internuclear distances:          2
 ==============================================================================



 ==============================================================================
                                 internuclear angles
 ------------------------------------------------------------------------------
        center 1       |       center 2       |       center 3       |  degrees
 ------------------------------------------------------------------------------
    2 H                |   1 Cl               |   3 H                |    96.64
 ------------------------------------------------------------------------------
                            number of included internuclear angles:          1
 ==============================================================================





 Summary of "ao basis" -> "" (cartesian)
 ------------------------------------------------------------------------------
       Tag                 Description            Shells   Functions and Types
 ---------------- ------------------------------  ------  ---------------------
 *                     6-311++G(3df,3pd)              on all atoms 


 
                                 NWChem DFT Module
                                 -----------------
 
 
                      Basis "ao basis" -> "ao basis" (cartesian)
                      -----
  Cl (Chlorine)
  -------------
            Exponent  Coefficients 
       -------------- ---------------------------------------------------------
  1 S  1.05819000E+05  0.000738
  1 S  1.58720000E+04  0.005718
  1 S  3.61965000E+03  0.029495
  1 S  1.03080000E+03  0.117286
  1 S  3.39908000E+02  0.362949
  1 S  1.24538000E+02  0.584149
 
  2 S  1.24538000E+02  0.134177
  2 S  4.95135000E+01  0.624250
  2 S  2.08056000E+01  0.291756
 
  3 S  6.58346000E+00  1.000000
 
  4 S  2.56468000E+00  1.000000
 
  5 S  5.59763000E-01  1.000000
 
  6 S  1.83273000E-01  1.000000
 
  7 P  5.89776000E+02  0.002391
  7 P  1.39849000E+02  0.018504
  7 P  4.51413000E+01  0.081377
  7 P  1.68733000E+01  0.221552
  7 P  6.74110000E+00  0.772569
 
  8 P  6.74110000E+00 -1.572244
  8 P  2.77152000E+00  0.992389
 
  9 P  1.02387000E+00  1.000000
 
 10 P  3.81368000E-01  1.000000
 
 11 P  1.09437000E-01  1.000000
 
 12 S  4.83000000E-02  1.000000
 
 13 P  4.83000000E-02  1.000000
 
 14 D  3.00000000E+00  1.000000
 
 15 D  7.50000000E-01  1.000000
 
 16 D  1.87500000E-01  1.000000
 
 17 F  7.00000000E-01  1.000000
 
  H (Hydrogen)
  ------------
            Exponent  Coefficients 
       -------------- ---------------------------------------------------------
  1 S  3.38650000E+01  0.025494
  1 S  5.09479000E+00  0.190373
  1 S  1.15879000E+00  0.852161
 
  2 S  3.25840000E-01  1.000000
 
  3 S  1.02741000E-01  1.000000
 
  4 S  3.60000000E-02  1.000000
 
  5 P  3.00000000E+00  1.000000
 
  6 P  7.50000000E-01  1.000000
 
  7 P  1.87500000E-01  1.000000
 
  8 D  1.00000000E+00  1.000000
 


 Summary of "ao basis" -> "ao basis" (cartesian)
 ------------------------------------------------------------------------------
       Tag                 Description            Shells   Functions and Types
 ---------------- ------------------------------  ------  ---------------------
 Cl                    6-311++G(3df,3pd)            17       53   7s6p3d1f
 H                     6-311++G(3df,3pd)             8       19   4s3p1d




 Summary of "ao basis" -> "ao basis" (cartesian)
 ------------------------------------------------------------------------------
       Tag                 Description            Shells   Functions and Types
 ---------------- ------------------------------  ------  ---------------------
 Cl                    6-311++G(3df,3pd)            17       53   7s6p3d1f
 H                     6-311++G(3df,3pd)             8       19   4s3p1d


      Symmetry analysis of basis
      --------------------------
 
        a1         39
        a2          9
        b1         26
        b2         17
 
  Caching 1-el integrals 
 
            General Information
            -------------------
          SCF calculation type: DFT
          Wavefunction type:  closed shell.
          No. of atoms     :     3
          No. of electrons :    18
           Alpha electrons :     9
            Beta electrons :     9
          Charge           :     1
          Spin multiplicity:     1
          Use of symmetry is: on ; symmetry adaption is: on 
          Maximum number of iterations: ***
          AO basis - number of functions:    91
                     number of shells:    33
          Convergence on energy requested:  1.00D-06
          Convergence on density requested:  1.00D-05
          Convergence on gradient requested:  5.00D-04
 
              XC Information
              --------------
                  TPSS metaGGA Exchange Functional  1.000          
             TPSS03 metaGGA Correlation Functional  1.000          
 
             Grid Information
             ----------------
          Grid used for XC integration:  medium    
          Radial quadrature: Mura-Knowles        
          Angular quadrature: Lebedev. 
          Tag              B.-S. Rad. Rad. Pts. Rad. Cut. Ang. Pts.
          ---              ---------- --------- --------- ---------
          Cl                  1.00       88          10.0       590
          H                   0.35       45          11.0       434
          Grid pruning is: on 
          Number of quadrature shells:   133
          Spatial weights used:  Erf1
 
          Convergence Information
          -----------------------
          Convergence aids based upon iterative change in 
          total energy or number of iterations. 
          Levelshifting, if invoked, occurs when the 
          HOMO/LUMO gap drops below (HL_TOL):  1.00D-02
          DIIS, if invoked, will attempt to extrapolate 
          using up to (NFOCK): 10 stored Fock matrices.

                    Damping( 0%)  Levelshifting(0.5)       DIIS
                  --------------- ------------------- ---------------
          dE  on:    start            ASAP                start   
          dE off:    2 iters        *** iters           *** iters 

 
      Screening Tolerance Information
      -------------------------------
          Density screening/tol_rho:  1.00D-10
          AO Gaussian exp screening on grid/accAOfunc:  14
          CD Gaussian exp screening on grid/accCDfunc:  20
          XC Gaussian exp screening on grid/accXCfunc:  20
          Schwarz screening/accCoul:  1.00D-08

 
      Superposition of Atomic Density Guess
      -------------------------------------
 
 Sum of atomic energies:        -460.47768407

 Renormalizing density from      19.00 to     18
 
      Non-variational initial energy
      ------------------------------

 Total energy =    -445.212748
 1-e energy   =    -628.593785
 2-e energy   =     169.292084
 HOMO         =      -1.036477
 LUMO         =      -0.345800
 
 
      Symmetry analysis of molecular orbitals - initial
      -------------------------------------------------
 
  Numbering of irreducible representations: 
 
     1 a1          2 a2          3 b1          4 b2      
 
  Orbital symmetries:
 
     1 a1          2 a1          3 b1          4 a1          5 b2      
     6 a1          7 b1          8 a1          9 b2         10 b1      
    11 a1         12 a1         13 b1         14 a1         15 b2      
    16 a1         17 a2         18 b2         19 a1      
 
   Time after variat. SCF:      0.6
   Time prior to 1st pass:      0.6

 Integral file          = ./HCl+.xyz.aoints.00
 Record size in doubles =    65536    No. of integs per rec  =    43688
 Max. records in memory =        7    Max. records in file   =  8902798
 No. of bits per label  =        8    No. of bits per value  =       64


 #quartets = 1.005D+05 #integrals = 2.649D+06 #direct =  0.0% #cached =100.0%


File balance: exchanges=     8  moved=     6  time=   0.0


 Grid_pts file          = ./HCl+.xyz.gridpts.00
 Record size in doubles =  12289        No. of grid_pts per rec  =   3070
 Max. records in memory =      3        Max. recs in file   =    670468


           Memory utilization after 1st SCF pass: 
           Heap Space remaining (MW):       12.61            12607906
          Stack Space remaining (MW):       13.11            13106604

   convergence    iter        energy       DeltaE   RMS-Dens  Diis-err    time
 ---------------- ----- ----------------- --------- --------- ---------  ------
 d= 0,ls=0.0,diis     1   -460.8032463058 -4.75D+02  2.38D-02  6.09D+00     1.4
 d= 0,ls=0.0,diis     2   -460.7845071314  1.87D-02  1.38D-02  3.04D+00     1.5
 d= 0,ls=0.0,diis     3   -461.0417988280 -2.57D-01  3.07D-03  1.83D-01     1.6
 d= 0,ls=0.0,diis     4   -461.0665046611 -2.47D-02  5.34D-04  4.77D-03     1.8
 d= 0,ls=0.0,diis     5   -461.0669908865 -4.86D-04  1.56D-04  5.57D-04     1.9
  Resetting Diis
 d= 0,ls=0.0,diis     6   -461.0670450295 -5.41D-05  6.02D-06  3.51D-07     2.0
 d= 0,ls=0.0,diis     7   -461.0670450633 -3.38D-08  1.77D-06  1.25D-08     2.1


         Total DFT energy =     -461.067045063262
      One electron energy =     -657.421389850895
           Coulomb energy =      210.945698396220
          Exchange energy =      -27.987085219778
       Correlation energy =       -0.693220998390
 Nuclear repulsion energy =       14.088952609581

 Numeric. integr. density =       18.000000135271

     Total iterative time =      1.6s


 
                  Occupations of the irreducible representations
                  ----------------------------------------------
 
                     irrep           alpha         beta
                     --------     --------     --------
                     a1                5.0          5.0
                     a2                0.0          0.0
                     b1                2.0          2.0
                     b2                2.0          2.0
 
 
                       DFT Final Molecular Orbital Analysis
                       ------------------------------------
 
 Vector    1  Occ=2.000000D+00  E=-1.014084D+02  Symmetry=a1
              MO Center= -2.7D-19,  1.7D-25, -9.1D-02, r^2= 3.1D-03
   Bfn.  Coefficient  Atom+Function         Bfn.  Coefficient  Atom+Function  
  ----- ------------  ---------------      ----- ------------  ---------------
     2      0.653521  1 Cl s                  1      0.412106  1 Cl s          
 
 Vector    2  Occ=2.000000D+00  E=-9.644555D+00  Symmetry=a1
              MO Center=  9.0D-16,  7.9D-17, -8.9D-02, r^2= 6.6D-02
   Bfn.  Coefficient  Atom+Function         Bfn.  Coefficient  Atom+Function  
  ----- ------------  ---------------      ----- ------------  ---------------
     4      0.615678  1 Cl s                  3      0.484131  1 Cl s          
     2     -0.326690  1 Cl s                  5      0.123648  1 Cl s          
     1     -0.121611  1 Cl s          
 
 Vector    3  Occ=2.000000D+00  E=-7.424547D+00  Symmetry=b1
              MO Center= -3.8D-15, -7.1D-18, -9.1D-02, r^2= 5.8D-02
   Bfn.  Coefficient  Atom+Function         Bfn.  Coefficient  Atom+Function  
  ----- ------------  ---------------      ----- ------------  ---------------
     7      1.232509  1 Cl px                10      0.332570  1 Cl px         
    13      0.056216  1 Cl px         
 
 Vector    4  Occ=2.000000D+00  E=-7.420453D+00  Symmetry=a1
              MO Center=  3.0D-15, -1.5D-28, -9.3D-02, r^2= 5.8D-02
   Bfn.  Coefficient  Atom+Function         Bfn.  Coefficient  Atom+Function  
  ----- ------------  ---------------      ----- ------------  ---------------
     9      1.232645  1 Cl pz                12      0.332582  1 Cl pz         
    15      0.055832  1 Cl pz         
 
 Vector    5  Occ=2.000000D+00  E=-7.412251D+00  Symmetry=b2
              MO Center= -2.5D-17, -1.0D-16, -9.1D-02, r^2= 5.8D-02
   Bfn.  Coefficient  Atom+Function         Bfn.  Coefficient  Atom+Function  
  ----- ------------  ---------------      ----- ------------  ---------------
     8      1.233022  1 Cl py                11      0.332631  1 Cl py         
    14      0.054818  1 Cl py         
 
 Vector    6  Occ=2.000000D+00  E=-1.174871D+00  Symmetry=a1
              MO Center=  2.0D-15, -1.6D-16,  1.3D-01, r^2= 8.1D-01
   Bfn.  Coefficient  Atom+Function         Bfn.  Coefficient  Atom+Function  
  ----- ------------  ---------------      ----- ------------  ---------------
     5      0.536395  1 Cl s                  6      0.527090  1 Cl s          
     4     -0.389387  1 Cl s                  3     -0.204589  1 Cl s          
     2      0.103152  1 Cl s                 55      0.077164  2 H  s          
    74      0.077164  3 H  s                 54      0.076101  2 H  s          
    73      0.076101  3 H  s                 18      0.064868  1 Cl pz         
 
 Vector    7  Occ=2.000000D+00  E=-8.180852D-01  Symmetry=b1
              MO Center=  1.1D-15, -9.7D-16,  2.8D-01, r^2= 1.2D+00
   Bfn.  Coefficient  Atom+Function         Bfn.  Coefficient  Atom+Function  
  ----- ------------  ---------------      ----- ------------  ---------------
    16      0.417520  1 Cl px                 7     -0.300437  1 Cl px         
    13      0.228087  1 Cl px                55     -0.199929  2 H  s          
    74      0.199929  3 H  s                 54     -0.136759  2 H  s          
    73      0.136759  3 H  s                 19      0.111018  1 Cl px         
    34      0.106089  1 Cl dxz               10     -0.076436  1 Cl px         
 
 Vector    8  Occ=2.000000D+00  E=-7.415139D-01  Symmetry=a1
              MO Center= -2.0D-15,  1.9D-15, -1.0D-01, r^2= 1.2D+00
   Bfn.  Coefficient  Atom+Function         Bfn.  Coefficient  Atom+Function  
  ----- ------------  ---------------      ----- ------------  ---------------
    18      0.511749  1 Cl pz                 6     -0.349713  1 Cl s          
     9     -0.321024  1 Cl pz                15      0.234183  1 Cl pz         
     5     -0.204799  1 Cl s                 55      0.161786  2 H  s          
    74      0.161786  3 H  s                 21      0.146669  1 Cl pz         
     4      0.144160  1 Cl s                 54      0.094113  2 H  s          
 
 Vector    9  Occ=2.000000D+00  E=-6.423781D-01  Symmetry=b2
              MO Center=  3.0D-16, -3.3D-16, -4.2D-02, r^2= 1.0D+00
   Bfn.  Coefficient  Atom+Function         Bfn.  Coefficient  Atom+Function  
  ----- ------------  ---------------      ----- ------------  ---------------
    17      0.729975  1 Cl py                 8     -0.372834  1 Cl py         
    14      0.251935  1 Cl py                20      0.247728  1 Cl py         
    11     -0.094822  1 Cl py                50     -0.059688  1 Cl fyyy       
    52     -0.042969  1 Cl fyzz              45     -0.037494  1 Cl fxxy       
    42      0.031951  1 Cl dyz               36      0.031226  1 Cl dyz        
 
 Vector   10  Occ=0.000000D+00  E=-3.321894D-01  Symmetry=b1
              MO Center= -3.1D-16,  2.6D-31,  2.1D-01, r^2= 2.1D+00
   Bfn.  Coefficient  Atom+Function         Bfn.  Coefficient  Atom+Function  
  ----- ------------  ---------------      ----- ------------  ---------------
    16      0.622749  1 Cl px                56      0.425621  2 H  s          
    75     -0.425621  3 H  s                 19      0.375168  1 Cl px         
    40     -0.312700  1 Cl dxz               34     -0.308854  1 Cl dxz        
    55      0.300071  2 H  s                 74     -0.300071  3 H  s          
     7     -0.229802  1 Cl px                54      0.149766  2 H  s          
 
 Vector   11  Occ=0.000000D+00  E=-3.014858D-01  Symmetry=a1
              MO Center= -4.9D-15, -2.7D-15,  5.7D-01, r^2= 3.0D+00
   Bfn.  Coefficient  Atom+Function         Bfn.  Coefficient  Atom+Function  
  ----- ------------  ---------------      ----- ------------  ---------------
     6      0.606172  1 Cl s                 56     -0.521479  2 H  s          
    75     -0.521479  3 H  s                 18      0.479125  1 Cl pz         
    21      0.322076  1 Cl pz                 5      0.304087  1 Cl s          
    55     -0.283843  2 H  s                 74     -0.283843  3 H  s          
    22      0.274666  1 Cl s                  4     -0.179417  1 Cl s          
 
 Vector   12  Occ=0.000000D+00  E=-1.689149D-01  Symmetry=a1
              MO Center= -1.7D-16,  2.6D-16,  6.8D-01, r^2= 4.7D+00
   Bfn.  Coefficient  Atom+Function         Bfn.  Coefficient  Atom+Function  
  ----- ------------  ---------------      ----- ------------  ---------------
    22      1.455236  1 Cl s                 56     -0.847626  2 H  s          
    75     -0.847626  3 H  s                 21      0.437191  1 Cl pz         
    25      0.421055  1 Cl pz                41      0.258222  1 Cl dyy        
     6      0.231456  1 Cl s                 43      0.219878  1 Cl dzz        
    55     -0.198242  2 H  s                 74     -0.198242  3 H  s          
 
 Vector   13  Occ=0.000000D+00  E=-1.405800D-01  Symmetry=b1
              MO Center=  2.9D-15, -2.0D-30,  2.1D-01, r^2= 8.6D+00
   Bfn.  Coefficient  Atom+Function         Bfn.  Coefficient  Atom+Function  
  ----- ------------  ---------------      ----- ------------  ---------------
    57      0.828040  2 H  s                 76     -0.828040  3 H  s          
    23     -0.469255  1 Cl px                56     -0.223819  2 H  s          
    75      0.223819  3 H  s                 34      0.169191  1 Cl dxz        
    19     -0.166939  1 Cl px                40      0.135125  1 Cl dxz        
    64     -0.128858  2 H  px                83     -0.128858  3 H  px         
 
 Vector   14  Occ=0.000000D+00  E=-1.355551D-01  Symmetry=a1
              MO Center= -4.5D-17, -2.3D-16, -3.0D-01, r^2= 5.1D+00
   Bfn.  Coefficient  Atom+Function         Bfn.  Coefficient  Atom+Function  
  ----- ------------  ---------------      ----- ------------  ---------------
    22      1.258124  1 Cl s                 21      0.767135  1 Cl pz         
    56     -0.705174  2 H  s                 75     -0.705174  3 H  s          
    25     -0.484629  1 Cl pz                18      0.337174  1 Cl pz         
    38      0.241488  1 Cl dxx               64     -0.230172  2 H  px         
    83      0.230172  3 H  px                41      0.192882  1 Cl dyy        
 
 Vector   15  Occ=0.000000D+00  E=-1.192523D-01  Symmetry=b2
              MO Center=  1.0D-14, -1.7D-14,  2.1D-01, r^2= 7.4D+00
   Bfn.  Coefficient  Atom+Function         Bfn.  Coefficient  Atom+Function  
  ----- ------------  ---------------      ----- ------------  ---------------
    24      1.133280  1 Cl py                20     -0.429572  1 Cl py         
    42      0.275709  1 Cl dyz               17     -0.246238  1 Cl py         
    65      0.157580  2 H  py                84      0.157580  3 H  py         
    36      0.141799  1 Cl dyz                8      0.134218  1 Cl py         
    14     -0.125952  1 Cl py                30      0.042019  1 Cl dyz        
 
 Vector   16  Occ=0.000000D+00  E=-1.092381D-01  Symmetry=a1
              MO Center= -5.9D-16,  1.5D-14, -5.8D-01, r^2= 5.9D+00
   Bfn.  Coefficient  Atom+Function         Bfn.  Coefficient  Atom+Function  
  ----- ------------  ---------------      ----- ------------  ---------------
    25      0.928747  1 Cl pz                56     -0.398983  2 H  s          
    75     -0.398983  3 H  s                  6      0.299793  1 Cl s          
    43     -0.249997  1 Cl dzz               41      0.241322  1 Cl dyy        
    38      0.216738  1 Cl dxx               37     -0.176484  1 Cl dzz        
    64     -0.155474  2 H  px                83      0.155474  3 H  px         
 
 Vector   17  Occ=0.000000D+00  E=-1.028157D-01  Symmetry=a2
              MO Center= -1.1D-14,  1.3D-16,  1.4D-01, r^2= 2.3D+00
   Bfn.  Coefficient  Atom+Function         Bfn.  Coefficient  Atom+Function  
  ----- ------------  ---------------      ----- ------------  ---------------
    39      0.966136  1 Cl dxy               33      0.481165  1 Cl dxy        
    65     -0.258773  2 H  py                84      0.258773  3 H  py         
    27      0.136685  1 Cl dxy               48      0.041350  1 Cl fxyz       
 
 Vector   18  Occ=0.000000D+00  E=-8.357005D-02  Symmetry=b2
              MO Center=  9.3D-16,  5.6D-15, -2.3D-01, r^2= 3.1D+00
   Bfn.  Coefficient  Atom+Function         Bfn.  Coefficient  Atom+Function  
  ----- ------------  ---------------      ----- ------------  ---------------
    42      1.001496  1 Cl dyz               24     -0.482103  1 Cl py         
    36      0.464081  1 Cl dyz               65      0.207721  2 H  py         
    84      0.207721  3 H  py                30      0.133258  1 Cl dyz        
    17     -0.072824  1 Cl py                52      0.055934  1 Cl fyzz       
    20     -0.050549  1 Cl py                14      0.030162  1 Cl py         
 
 Vector   19  Occ=0.000000D+00  E=-5.339838D-02  Symmetry=a1
              MO Center= -5.0D-13,  4.3D-16,  1.2D+00, r^2= 1.3D+01
   Bfn.  Coefficient  Atom+Function         Bfn.  Coefficient  Atom+Function  
  ----- ------------  ---------------      ----- ------------  ---------------
    22      6.070999  1 Cl s                 57     -2.508289  2 H  s          
    76     -2.508289  3 H  s                 25      1.733530  1 Cl pz         
    56     -0.979087  2 H  s                 75     -0.979087  3 H  s          
    21      0.333950  1 Cl pz                 5     -0.228460  1 Cl s          
    64     -0.138308  2 H  px                83      0.138308  3 H  px         
 
 Vector   20  Occ=0.000000D+00  E=-3.723373D-02  Symmetry=b1
              MO Center=  2.8D-13, -2.8D-16,  1.0D+00, r^2= 1.4D+01
   Bfn.  Coefficient  Atom+Function         Bfn.  Coefficient  Atom+Function  
  ----- ------------  ---------------      ----- ------------  ---------------
    57      4.070965  2 H  s                 76     -4.070965  3 H  s          
    23      3.107823  1 Cl px                19     -0.797350  1 Cl px         
    55     -0.281590  2 H  s                 74      0.281590  3 H  s          
    16     -0.188894  1 Cl px                13     -0.110109  1 Cl px         
     7      0.106955  1 Cl px                66      0.094212  2 H  pz         
 
 Vector   21  Occ=0.000000D+00  E= 5.414666D-02  Symmetry=b1
              MO Center=  1.9D-13, -2.4D-16,  3.4D-01, r^2= 9.8D+00
   Bfn.  Coefficient  Atom+Function         Bfn.  Coefficient  Atom+Function  
  ----- ------------  ---------------      ----- ------------  ---------------
    56      3.685215  2 H  s                 75     -3.685215  3 H  s          
    57     -1.747326  2 H  s                 76      1.747326  3 H  s          
    19      1.585407  1 Cl px                40      1.492159  1 Cl dxz        
    16      0.650106  1 Cl px                23      0.403442  1 Cl px         
    34      0.358929  1 Cl dxz               66     -0.309474  2 H  pz         
 
 Vector   22  Occ=0.000000D+00  E= 7.174219D-02  Symmetry=a1
              MO Center=  1.6D-14, -6.0D-15,  5.2D-01, r^2= 6.8D+00
   Bfn.  Coefficient  Atom+Function         Bfn.  Coefficient  Atom+Function  
  ----- ------------  ---------------      ----- ------------  ---------------
    22      6.088957  1 Cl s                 56     -4.656213  2 H  s          
    75     -4.656213  3 H  s                 21      2.030523  1 Cl pz         
    25      1.934332  1 Cl pz                 6      1.724786  1 Cl s          
    38      1.099761  1 Cl dxx               43      0.878007  1 Cl dzz        
    57     -0.790938  2 H  s                 76     -0.790938  3 H  s          
 
 Vector   23  Occ=0.000000D+00  E= 1.341073D-01  Symmetry=a1
              MO Center=  5.8D-15, -3.9D-16, -4.5D-01, r^2= 7.5D+00
   Bfn.  Coefficient  Atom+Function         Bfn.  Coefficient  Atom+Function  
  ----- ------------  ---------------      ----- ------------  ---------------
    21      3.887636  1 Cl pz                56     -3.400007  2 H  s          
    75     -3.400007  3 H  s                  6      2.980849  1 Cl s          
    25     -1.262019  1 Cl pz                43      1.034864  1 Cl dzz        
    64     -1.020853  2 H  px                83      1.020853  3 H  px         
    57      0.856529  2 H  s                 76      0.856529  3 H  s          
 
 Vector   24  Occ=0.000000D+00  E= 1.746531D-01  Symmetry=b2
              MO Center=  9.3D-16, -2.0D-15, -1.0D-01, r^2= 7.2D+00
   Bfn.  Coefficient  Atom+Function         Bfn.  Coefficient  Atom+Function  
  ----- ------------  ---------------      ----- ------------  ---------------
    20     -2.380766  1 Cl py                17      2.255429  1 Cl py         
    24      1.591382  1 Cl py                45     -0.592081  1 Cl fxxy       
    50     -0.593705  1 Cl fyyy              52     -0.587400  1 Cl fyzz       
    42      0.269983  1 Cl dyz                8     -0.226974  1 Cl py         
    14     -0.203768  1 Cl py                65     -0.153195  2 H  py         
 
 Vector   25  Occ=0.000000D+00  E= 1.851632D-01  Symmetry=a1
              MO Center=  1.1D-14,  2.7D-16,  8.5D-02, r^2= 6.4D+00
   Bfn.  Coefficient  Atom+Function         Bfn.  Coefficient  Atom+Function  
  ----- ------------  ---------------      ----- ------------  ---------------
    56      1.359969  2 H  s                 75      1.359969  3 H  s          
    22      1.283688  1 Cl s                 41     -1.156714  1 Cl dyy        
    18     -1.099396  1 Cl pz                43     -1.102412  1 Cl dzz        
    21      0.917974  1 Cl pz                25     -0.906259  1 Cl pz         
    55     -0.905300  2 H  s                 74     -0.905300  3 H  s          
 
 Vector   26  Occ=0.000000D+00  E= 1.952757D-01  Symmetry=b1
              MO Center=  2.5D-14, -1.7D-17,  4.0D-01, r^2= 4.3D+00
   Bfn.  Coefficient  Atom+Function         Bfn.  Coefficient  Atom+Function  
  ----- ------------  ---------------      ----- ------------  ---------------
    19      2.092557  1 Cl px                56      1.995855  2 H  s          
    75     -1.995855  3 H  s                 66     -1.257058  2 H  pz         
    85      1.257058  3 H  pz                57     -0.759779  2 H  s          
    76      0.759779  3 H  s                 16      0.509860  1 Cl px         
    23     -0.346538  1 Cl px                40     -0.288494  1 Cl dxz        
 
 Vector   27  Occ=0.000000D+00  E= 2.139644D-01  Symmetry=b1
              MO Center=  1.6D-14,  5.7D-17,  5.1D-01, r^2= 9.6D+00
   Bfn.  Coefficient  Atom+Function         Bfn.  Coefficient  Atom+Function  
  ----- ------------  ---------------      ----- ------------  ---------------
    19      5.436928  1 Cl px                56      4.151717  2 H  s          
    75     -4.151717  3 H  s                 57     -3.816030  2 H  s          
    76      3.816030  3 H  s                 23     -3.570087  1 Cl px         
    40      1.182733  1 Cl dxz               16     -1.014005  1 Cl px         
    64      0.949415  2 H  px                83      0.949415  3 H  px         
 
 Vector   28  Occ=0.000000D+00  E= 2.180215D-01  Symmetry=a2
              MO Center= -6.4D-15, -6.1D-16,  6.3D-01, r^2= 3.6D+00
   Bfn.  Coefficient  Atom+Function         Bfn.  Coefficient  Atom+Function  
  ----- ------------  ---------------      ----- ------------  ---------------
    39      1.861031  1 Cl dxy               65      1.203557  2 H  py         
    84     -1.203557  3 H  py                33      0.360072  1 Cl dxy        
    27      0.114284  1 Cl dxy               48     -0.082031  1 Cl fxyz       
    62     -0.035253  2 H  py                81      0.035253  3 H  py         
 
 Vector   29  Occ=0.000000D+00  E= 2.365598D-01  Symmetry=a1
              MO Center= -3.0D-15, -4.3D-16,  5.8D-01, r^2= 5.5D+00
   Bfn.  Coefficient  Atom+Function         Bfn.  Coefficient  Atom+Function  
  ----- ------------  ---------------      ----- ------------  ---------------
    22      4.334736  1 Cl s                 38     -1.747271  1 Cl dxx        
    57     -1.359175  2 H  s                 76     -1.359175  3 H  s          
    41     -1.194956  1 Cl dyy                6      1.187183  1 Cl s          
    21      0.988889  1 Cl pz                25      0.927924  1 Cl pz         
    64     -0.899238  2 H  px                83      0.899238  3 H  px         
 
 Vector   30  Occ=0.000000D+00  E= 2.515069D-01  Symmetry=b2
              MO Center=  5.5D-15, -4.2D-15,  5.5D-01, r^2= 3.9D+00
   Bfn.  Coefficient  Atom+Function         Bfn.  Coefficient  Atom+Function  
  ----- ------------  ---------------      ----- ------------  ---------------
    20      2.137827  1 Cl py                42      1.840274  1 Cl dyz        
    65     -1.398017  2 H  py                84     -1.398017  3 H  py         
    24     -0.344665  1 Cl py                36      0.345749  1 Cl dyz        
    17     -0.238460  1 Cl py                30      0.109861  1 Cl dyz        
    50      0.077645  1 Cl fyyy              62      0.045642  2 H  py         
 
 Vector   31  Occ=0.000000D+00  E= 2.973132D-01  Symmetry=a1
              MO Center=  7.0D-15,  4.8D-15,  6.2D-01, r^2= 5.1D+00
   Bfn.  Coefficient  Atom+Function         Bfn.  Coefficient  Atom+Function  
  ----- ------------  ---------------      ----- ------------  ---------------
    22      4.361532  1 Cl s                  6      2.398067  1 Cl s          
    21     -1.945112  1 Cl pz                43     -1.919197  1 Cl dzz        
    25      1.479945  1 Cl pz                18      1.364868  1 Cl pz         
    57     -1.282861  2 H  s                 76     -1.282861  3 H  s          
    66      1.154055  2 H  pz                85      1.154055  3 H  pz         
 
 Vector   32  Occ=0.000000D+00  E= 3.197943D-01  Symmetry=b1
              MO Center=  8.7D-15,  2.5D-16,  4.8D-01, r^2= 4.2D+00
   Bfn.  Coefficient  Atom+Function         Bfn.  Coefficient  Atom+Function  
  ----- ------------  ---------------      ----- ------------  ---------------
    19      1.870397  1 Cl px                56     -1.801043  2 H  s          
    75      1.801043  3 H  s                 16     -1.545281  1 Cl px         
    40      1.487722  1 Cl dxz               55      1.352516  2 H  s          
    74     -1.352516  3 H  s                 64     -1.344765  2 H  px         
    83     -1.344765  3 H  px                23     -1.219677  1 Cl px         
 
 Vector   33  Occ=0.000000D+00  E= 5.646821D-01  Symmetry=a1
              MO Center=  8.0D-15,  4.8D-16,  3.3D-01, r^2= 5.9D+00
   Bfn.  Coefficient  Atom+Function         Bfn.  Coefficient  Atom+Function  
  ----- ------------  ---------------      ----- ------------  ---------------
     6      8.212498  1 Cl s                 56     -6.759593  2 H  s          
    75     -6.759593  3 H  s                 21      5.151608  1 Cl pz         
    18      3.616715  1 Cl pz                38      3.559958  1 Cl dxx        
    43      2.877696  1 Cl dzz               55     -2.597527  2 H  s          
    74     -2.597527  3 H  s                 64     -2.478087  2 H  px         
 
 Vector   34  Occ=0.000000D+00  E= 6.042298D-01  Symmetry=b1
              MO Center= -5.8D-14,  1.5D-16,  5.0D-01, r^2= 6.2D+00
   Bfn.  Coefficient  Atom+Function         Bfn.  Coefficient  Atom+Function  
  ----- ------------  ---------------      ----- ------------  ---------------
    56      8.028732  2 H  s                 75     -8.028732  3 H  s          
    19      7.716271  1 Cl px                40      6.210757  1 Cl dxz        
    16      4.474348  1 Cl px                55      2.965035  2 H  s          
    74     -2.965035  3 H  s                 64      2.417715  2 H  px         
    66     -2.425386  2 H  pz                83      2.417715  3 H  px         
 
 Vector   35  Occ=0.000000D+00  E= 7.089643D-01  Symmetry=a2
              MO Center= -2.2D-16,  1.1D-15, -1.6D-01, r^2= 1.7D+00
   Bfn.  Coefficient  Atom+Function         Bfn.  Coefficient  Atom+Function  
  ----- ------------  ---------------      ----- ------------  ---------------
    39      1.874867  1 Cl dxy               33     -1.496279  1 Cl dxy        
    27     -0.292140  1 Cl dxy               65      0.254341  2 H  py         
    84     -0.254341  3 H  py                62      0.198646  2 H  py         
    81     -0.198646  3 H  py                48     -0.174131  1 Cl fxyz       
    71     -0.055299  2 H  dyz               90      0.055299  3 H  dyz        
 
 Vector   36  Occ=0.000000D+00  E= 7.146414D-01  Symmetry=b1
              MO Center= -9.0D-15, -8.1D-17,  1.9D-01, r^2= 2.9D+00
   Bfn.  Coefficient  Atom+Function         Bfn.  Coefficient  Atom+Function  
  ----- ------------  ---------------      ----- ------------  ---------------
    19      2.226134  1 Cl px                56      1.637284  2 H  s          
    75     -1.637284  3 H  s                 34      1.188894  1 Cl dxz        
    64      1.151052  2 H  px                83      1.151052  3 H  px         
    23     -1.092156  1 Cl px                66     -0.911963  2 H  pz         
    85      0.911963  3 H  pz                55      0.801487  2 H  s          
 
 Vector   37  Occ=0.000000D+00  E= 7.298565D-01  Symmetry=b2
              MO Center=  1.2D-16,  3.1D-14, -1.1D-01, r^2= 1.7D+00
   Bfn.  Coefficient  Atom+Function         Bfn.  Coefficient  Atom+Function  
  ----- ------------  ---------------      ----- ------------  ---------------
    42      1.944061  1 Cl dyz               36     -1.529893  1 Cl dyz        
    20      0.454815  1 Cl py                65     -0.365534  2 H  py         
    84     -0.365534  3 H  py                30     -0.299005  1 Cl dyz        
    17      0.293426  1 Cl py                62     -0.171094  2 H  py         
    81     -0.171094  3 H  py                45     -0.163373  1 Cl fxxy       
 
 Vector   38  Occ=0.000000D+00  E= 7.443917D-01  Symmetry=a1
              MO Center=  3.2D-15, -2.6D-14, -2.9D-02, r^2= 2.4D+00
   Bfn.  Coefficient  Atom+Function         Bfn.  Coefficient  Atom+Function  
  ----- ------------  ---------------      ----- ------------  ---------------
    22      2.379991  1 Cl s                 41     -1.195122  1 Cl dyy        
    43     -1.011808  1 Cl dzz               25      0.935806  1 Cl pz         
    32     -0.862033  1 Cl dxx               18      0.845529  1 Cl pz         
    21     -0.793830  1 Cl pz                 6      0.587243  1 Cl s          
    56     -0.553471  2 H  s                 57     -0.553353  2 H  s          
 
 Vector   39  Occ=0.000000D+00  E= 7.925226D-01  Symmetry=a1
              MO Center=  2.9D-15,  5.8D-16, -2.0D-01, r^2= 2.1D+00
   Bfn.  Coefficient  Atom+Function         Bfn.  Coefficient  Atom+Function  
  ----- ------------  ---------------      ----- ------------  ---------------
    43      1.925232  1 Cl dzz               22      1.774723  1 Cl s          
    21      1.612360  1 Cl pz                56     -1.458537  2 H  s          
    75     -1.458537  3 H  s                  6      1.428227  1 Cl s          
    18      0.982531  1 Cl pz                37     -0.879614  1 Cl dzz        
    41     -0.740168  1 Cl dyy               64     -0.616118  2 H  px         
 
 Vector   40  Occ=0.000000D+00  E= 1.142318D+00  Symmetry=b2
              MO Center= -1.8D-16,  2.3D-17,  3.1D-04, r^2= 3.0D+00
   Bfn.  Coefficient  Atom+Function         Bfn.  Coefficient  Atom+Function  
  ----- ------------  ---------------      ----- ------------  ---------------
    17      7.318522  1 Cl py                50     -2.926422  1 Cl fyyy       
    52     -2.840302  1 Cl fyzz              45     -2.805320  1 Cl fxxy       
    14     -2.566394  1 Cl py                20     -1.877105  1 Cl py         
    24      0.812686  1 Cl py                 8      0.326462  1 Cl py         
    42      0.192567  1 Cl dyz               65     -0.190139  2 H  py         
 
 Vector   41  Occ=0.000000D+00  E= 1.156074D+00  Symmetry=a1
              MO Center= -6.4D-15, -2.4D-16, -3.7D-01, r^2= 3.3D+00
   Bfn.  Coefficient  Atom+Function         Bfn.  Coefficient  Atom+Function  
  ----- ------------  ---------------      ----- ------------  ---------------
     6      4.983159  1 Cl s                 18     -4.850602  1 Cl pz         
    46      2.401428  1 Cl fxxz               5     -2.119772  1 Cl s          
    43     -2.053157  1 Cl dzz               41     -1.866992  1 Cl dyy        
    53      1.867532  1 Cl fzzz              51      1.806251  1 Cl fyyz       
    38     -1.763865  1 Cl dxx               15      1.650390  1 Cl pz         
 
 Vector   42  Occ=0.000000D+00  E= 1.210979D+00  Symmetry=b1
              MO Center= -4.9D-16,  1.8D-17,  1.2D-01, r^2= 2.7D+00
   Bfn.  Coefficient  Atom+Function         Bfn.  Coefficient  Atom+Function  
  ----- ------------  ---------------      ----- ------------  ---------------
    16      6.482607  1 Cl px                49     -3.101463  1 Cl fxzz       
    47     -2.380260  1 Cl fxyy              44     -2.289126  1 Cl fxxx       
    13     -2.140448  1 Cl px                19     -1.393260  1 Cl px         
    23      1.201436  1 Cl px                57      0.763368  2 H  s          
    76     -0.763368  3 H  s                 66     -0.638782  2 H  pz         
 
 Vector   43  Occ=0.000000D+00  E= 1.218264D+00  Symmetry=a1
              MO Center= -4.6D-14,  9.2D-17,  6.7D-01, r^2= 2.7D+00
   Bfn.  Coefficient  Atom+Function         Bfn.  Coefficient  Atom+Function  
  ----- ------------  ---------------      ----- ------------  ---------------
     6      8.478325  1 Cl s                 18      6.312467  1 Cl pz         
    22      3.281152  1 Cl s                 46     -2.559334  1 Cl fxxz       
     5     -2.464617  1 Cl s                 51     -2.268211  1 Cl fyyz       
    41     -2.214392  1 Cl dyy               53     -2.161921  1 Cl fzzz       
    38     -2.055810  1 Cl dxx               15     -2.001082  1 Cl pz         
 
 Vector   44  Occ=0.000000D+00  E= 1.303299D+00  Symmetry=a2
              MO Center= -1.9D-15,  2.3D-17,  5.6D-01, r^2= 1.9D+00
   Bfn.  Coefficient  Atom+Function         Bfn.  Coefficient  Atom+Function  
  ----- ------------  ---------------      ----- ------------  ---------------
    48      1.489008  1 Cl fxyz              39      0.832888  1 Cl dxy        
    65      0.755305  2 H  py                84     -0.755305  3 H  py         
    62     -0.717334  2 H  py                81      0.717334  3 H  py         
    33     -0.599216  1 Cl dxy               27     -0.165618  1 Cl dxy        
    59      0.041038  2 H  py                78     -0.041038  3 H  py         
 
 Vector   45  Occ=0.000000D+00  E= 1.374794D+00  Symmetry=b1
              MO Center=  2.1D-14, -2.7D-17,  2.2D-01, r^2= 2.4D+00
   Bfn.  Coefficient  Atom+Function         Bfn.  Coefficient  Atom+Function  
  ----- ------------  ---------------      ----- ------------  ---------------
    16      6.729337  1 Cl px                44     -2.799334  1 Cl fxxx       
    13     -2.091835  1 Cl px                49     -2.020154  1 Cl fxzz       
    47     -1.729944  1 Cl fxyy              56      1.241137  2 H  s          
    75     -1.241137  3 H  s                 64      1.158080  2 H  px         
    83      1.158080  3 H  px                40      0.867361  1 Cl dxz        
 
 Vector   46  Occ=0.000000D+00  E= 1.393842D+00  Symmetry=b2
              MO Center=  1.8D-15,  3.9D-18,  4.3D-01, r^2= 2.0D+00
   Bfn.  Coefficient  Atom+Function         Bfn.  Coefficient  Atom+Function  
  ----- ------------  ---------------      ----- ------------  ---------------
    17      2.123424  1 Cl py                45     -1.651053  1 Cl fxxy       
    20     -1.247428  1 Cl py                52     -1.192569  1 Cl fyzz       
    65      0.804822  2 H  py                84      0.804822  3 H  py         
    42     -0.791253  1 Cl dyz               62     -0.733971  2 H  py         
    81     -0.733971  3 H  py                14     -0.688530  1 Cl py         
 
 Vector   47  Occ=0.000000D+00  E= 1.441214D+00  Symmetry=a1
              MO Center=  1.7D-15, -4.4D-17,  3.2D-01, r^2= 2.0D+00
   Bfn.  Coefficient  Atom+Function         Bfn.  Coefficient  Atom+Function  
  ----- ------------  ---------------      ----- ------------  ---------------
    18      4.376405  1 Cl pz                 6      2.529554  1 Cl s          
    53     -2.023106  1 Cl fzzz              15     -1.369934  1 Cl pz         
    46     -1.168898  1 Cl fxxz              66      0.897017  2 H  pz         
    85      0.897017  3 H  pz                56     -0.831447  2 H  s          
    75     -0.831447  3 H  s                 51     -0.642741  1 Cl fyyz       
 
 Vector   48  Occ=0.000000D+00  E= 1.576228D+00  Symmetry=b2
              MO Center=  1.1D-17, -8.3D-18,  5.2D-03, r^2= 1.0D+00
   Bfn.  Coefficient  Atom+Function         Bfn.  Coefficient  Atom+Function  
  ----- ------------  ---------------      ----- ------------  ---------------
    52      2.014464  1 Cl fyzz              45     -1.435661  1 Cl fxxy       
    71      0.229748  2 H  dyz               90      0.229748  3 H  dyz        
    68      0.195134  2 H  dxy               87     -0.195134  3 H  dxy        
    17     -0.143949  1 Cl py                50     -0.100298  1 Cl fyyy       
    62      0.065006  2 H  py                81      0.065006  3 H  py         
 
 Vector   49  Occ=0.000000D+00  E= 1.767304D+00  Symmetry=a1
              MO Center= -8.3D-16, -3.4D-18,  3.0D-01, r^2= 2.4D+00
   Bfn.  Coefficient  Atom+Function         Bfn.  Coefficient  Atom+Function  
  ----- ------------  ---------------      ----- ------------  ---------------
    55      3.765832  2 H  s                 74      3.765832  3 H  s          
    21     -2.538540  1 Cl pz                38     -2.242786  1 Cl dxx        
    18     -2.206613  1 Cl pz                 6     -1.923907  1 Cl s          
    43     -1.849709  1 Cl dzz               56      1.572465  2 H  s          
    75      1.572465  3 H  s                 53      1.149860  1 Cl fzzz       
 
 Vector   50  Occ=0.000000D+00  E= 1.781222D+00  Symmetry=a1
              MO Center= -2.5D-13, -6.7D-17,  3.1D-01, r^2= 2.5D+00
   Bfn.  Coefficient  Atom+Function         Bfn.  Coefficient  Atom+Function  
  ----- ------------  ---------------      ----- ------------  ---------------
    18      3.846424  1 Cl pz                56     -3.392724  2 H  s          
    75     -3.392724  3 H  s                 21      2.948129  1 Cl pz         
    51     -2.730659  1 Cl fyyz               6      2.675140  1 Cl s          
    43      2.541741  1 Cl dzz               38      2.497696  1 Cl dxx        
    55     -2.409521  2 H  s                 74     -2.409521  3 H  s          
 
 Vector   51  Occ=0.000000D+00  E= 1.811085D+00  Symmetry=b1
              MO Center=  8.2D-14, -1.0D-17,  2.9D-01, r^2= 1.9D+00
   Bfn.  Coefficient  Atom+Function         Bfn.  Coefficient  Atom+Function  
  ----- ------------  ---------------      ----- ------------  ---------------
    16      2.939979  1 Cl px                47     -2.863982  1 Cl fxyy       
    56      2.729092  2 H  s                 75     -2.729092  3 H  s          
    19      2.387014  1 Cl px                40      2.211510  1 Cl dxz        
    64      1.073463  2 H  px                83      1.073463  3 H  px         
    55      1.012345  2 H  s                 74     -1.012345  3 H  s          
 
 Vector   52  Occ=0.000000D+00  E= 1.836916D+00  Symmetry=b1
              MO Center=  2.1D-13, -1.5D-18,  5.9D-01, r^2= 2.8D+00
   Bfn.  Coefficient  Atom+Function         Bfn.  Coefficient  Atom+Function  
  ----- ------------  ---------------      ----- ------------  ---------------
    19      5.197537  1 Cl px                55      4.906629  2 H  s          
    74     -4.906629  3 H  s                 40      4.176925  1 Cl dxz        
    16      4.131001  1 Cl px                56      3.752495  2 H  s          
    75     -3.752495  3 H  s                 66     -1.873155  2 H  pz         
    85      1.873155  3 H  pz                64      1.634925  2 H  px         
 
 Vector   53  Occ=0.000000D+00  E= 1.946274D+00  Symmetry=b2
              MO Center=  1.5D-14, -1.7D-17,  2.1D-01, r^2= 1.5D+00
   Bfn.  Coefficient  Atom+Function         Bfn.  Coefficient  Atom+Function  
  ----- ------------  ---------------      ----- ------------  ---------------
    45      1.244784  1 Cl fxxy              50     -1.198601  1 Cl fyyy       
    17      0.809851  1 Cl py                52      0.799987  1 Cl fyzz       
    62     -0.584382  2 H  py                81     -0.584382  3 H  py         
    14     -0.293172  1 Cl py                42      0.211165  1 Cl dyz        
    65      0.184943  2 H  py                84      0.184943  3 H  py         
 
 Vector   54  Occ=0.000000D+00  E= 2.018783D+00  Symmetry=a2
              MO Center= -1.6D-14,  6.7D-16,  2.4D-01, r^2= 1.5D+00
   Bfn.  Coefficient  Atom+Function         Bfn.  Coefficient  Atom+Function  
  ----- ------------  ---------------      ----- ------------  ---------------
    48      3.468600  1 Cl fxyz              62      0.600512  2 H  py         
    81     -0.600512  3 H  py                39      0.231679  1 Cl dxy        
    65     -0.200496  2 H  py                84      0.200496  3 H  py         
    68     -0.184728  2 H  dxy               87     -0.184728  3 H  dxy        
    71      0.172993  2 H  dyz               90     -0.172993  3 H  dyz        
 
 Vector   55  Occ=0.000000D+00  E= 2.062733D+00  Symmetry=b1
              MO Center=  8.1D-14, -6.6D-16,  5.1D-01, r^2= 2.3D+00
   Bfn.  Coefficient  Atom+Function         Bfn.  Coefficient  Atom+Function  
  ----- ------------  ---------------      ----- ------------  ---------------
    55      4.024259  2 H  s                 74     -4.024259  3 H  s          
    16      3.374886  1 Cl px                49     -2.433386  1 Cl fxzz       
    40      2.224489  1 Cl dxz               19      2.158746  1 Cl px         
    54     -1.095224  2 H  s                 73      1.095224  3 H  s          
    47     -0.882187  1 Cl fxyy              56      0.851114  2 H  s          
 
 Vector   56  Occ=0.000000D+00  E= 2.100351D+00  Symmetry=a1
              MO Center= -7.8D-14,  3.7D-17,  5.4D-01, r^2= 2.4D+00
   Bfn.  Coefficient  Atom+Function         Bfn.  Coefficient  Atom+Function  
  ----- ------------  ---------------      ----- ------------  ---------------
    55      4.400300  2 H  s                 74      4.400300  3 H  s          
    18     -3.534113  1 Cl pz                 6     -3.155154  1 Cl s          
    21     -2.223270  1 Cl pz                46      2.160419  1 Cl fxxz       
    43     -1.719819  1 Cl dzz               51      1.329945  1 Cl fyyz       
    38     -1.184660  1 Cl dxx               54     -1.154795  2 H  s          
 
 Vector   57  Occ=0.000000D+00  E= 2.376911D+00  Symmetry=b1
              MO Center= -1.1D-14,  5.1D-17,  1.0D-01, r^2= 1.7D+00
   Bfn.  Coefficient  Atom+Function         Bfn.  Coefficient  Atom+Function  
  ----- ------------  ---------------      ----- ------------  ---------------
    16      4.482156  1 Cl px                47     -3.264963  1 Cl fxyy       
    40      2.562904  1 Cl dxz               55      1.901228  2 H  s          
    74     -1.901228  3 H  s                 44     -1.275689  1 Cl fxxx       
    34      1.176478  1 Cl dxz               19      1.070701  1 Cl px         
    13     -1.053880  1 Cl px                49      0.991691  1 Cl fxzz       
 
 Vector   58  Occ=0.000000D+00  E= 2.607962D+00  Symmetry=a1
              MO Center= -1.1D-14,  9.3D-18,  2.0D-01, r^2= 1.7D+00
   Bfn.  Coefficient  Atom+Function         Bfn.  Coefficient  Atom+Function  
  ----- ------------  ---------------      ----- ------------  ---------------
     6      5.763194  1 Cl s                 18      4.896334  1 Cl pz         
    51     -2.892430  1 Cl fyyz              55     -1.831655  2 H  s          
    74     -1.831655  3 H  s                 53     -1.821531  1 Cl fzzz       
    46      1.542353  1 Cl fxxz              41     -1.479961  1 Cl dyy        
    22      1.346581  1 Cl s                  5     -1.297627  1 Cl s          
 
 Vector   59  Occ=0.000000D+00  E= 2.685601D+00  Symmetry=a2
              MO Center=  1.3D-16,  6.0D-18,  7.6D-01, r^2= 1.5D+00
   Bfn.  Coefficient  Atom+Function         Bfn.  Coefficient  Atom+Function  
  ----- ------------  ---------------      ----- ------------  ---------------
    68      0.874971  2 H  dxy               71      0.878394  2 H  dyz        
    87      0.874971  3 H  dxy               90     -0.878394  3 H  dyz        
    39     -0.285065  1 Cl dxy               48      0.213565  1 Cl fxyz       
    65     -0.035852  2 H  py                84      0.035852  3 H  py         
    27     -0.032713  1 Cl dxy        
 
 Vector   60  Occ=0.000000D+00  E= 2.810612D+00  Symmetry=a1
              MO Center=  1.6D-14,  5.4D-17,  6.6D-01, r^2= 1.6D+00
   Bfn.  Coefficient  Atom+Function         Bfn.  Coefficient  Atom+Function  
  ----- ------------  ---------------      ----- ------------  ---------------
     6      1.734352  1 Cl s                 51     -1.460927  1 Cl fyyz       
    18      1.279147  1 Cl pz                55     -0.708205  2 H  s          
    74     -0.708205  3 H  s                 70      0.601852  2 H  dyy        
    89      0.601852  3 H  dyy               41     -0.558046  1 Cl dyy        
    69     -0.540508  2 H  dxz               88      0.540508  3 H  dxz        
 
 Vector   61  Occ=0.000000D+00  E= 2.883240D+00  Symmetry=b1
              MO Center= -1.6D-14, -5.5D-17,  7.1D-01, r^2= 1.6D+00
   Bfn.  Coefficient  Atom+Function         Bfn.  Coefficient  Atom+Function  
  ----- ------------  ---------------      ----- ------------  ---------------
    16      0.915439  1 Cl px                40      0.852065  1 Cl dxz        
    69     -0.631153  2 H  dxz               88     -0.631153  3 H  dxz        
    44     -0.598276  1 Cl fxxx              70      0.565825  2 H  dyy        
    89     -0.565825  3 H  dyy               19      0.547046  1 Cl px         
    55      0.532296  2 H  s                 74     -0.532296  3 H  s          
 
 Vector   62  Occ=0.000000D+00  E= 2.933695D+00  Symmetry=b2
              MO Center= -1.8D-16, -2.2D-18,  6.5D-01, r^2= 1.6D+00
   Bfn.  Coefficient  Atom+Function         Bfn.  Coefficient  Atom+Function  
  ----- ------------  ---------------      ----- ------------  ---------------
    52     -1.022129  1 Cl fyzz              71      1.005630  2 H  dyz        
    90      1.005630  3 H  dyz               45      0.952938  1 Cl fxxy       
    68      0.731209  2 H  dxy               87     -0.731209  3 H  dxy        
    42     -0.307175  1 Cl dyz               17      0.136264  1 Cl py         
    20     -0.098019  1 Cl py                50     -0.067877  1 Cl fyyy       
 
 Vector   63  Occ=0.000000D+00  E= 3.345114D+00  Symmetry=b2
              MO Center=  3.3D-14, -2.9D-17,  4.7D-01, r^2= 1.6D+00
   Bfn.  Coefficient  Atom+Function         Bfn.  Coefficient  Atom+Function  
  ----- ------------  ---------------      ----- ------------  ---------------
    17      4.265744  1 Cl py                50     -2.648308  1 Cl fyyy       
    52     -1.356873  1 Cl fyzz              45     -1.210015  1 Cl fxxy       
    68     -1.015729  2 H  dxy               87      1.015729  3 H  dxy        
    71      0.745877  2 H  dyz               90      0.745877  3 H  dyz        
    42      0.702528  1 Cl dyz               14     -0.483808  1 Cl py         
 
 Vector   64  Occ=0.000000D+00  E= 3.408956D+00  Symmetry=a2
              MO Center= -3.3D-14,  4.7D-18,  4.8D-01, r^2= 1.6D+00
   Bfn.  Coefficient  Atom+Function         Bfn.  Coefficient  Atom+Function  
  ----- ------------  ---------------      ----- ------------  ---------------
    48      2.940789  1 Cl fxyz              68      1.004220  2 H  dxy        
    87      1.004220  3 H  dxy               71     -0.987863  2 H  dyz        
    90      0.987863  3 H  dyz               39      0.812220  1 Cl dxy        
    27      0.551127  1 Cl dxy               65      0.328200  2 H  py         
    84     -0.328200  3 H  py                33      0.251011  1 Cl dxy        
 
 Vector   65  Occ=0.000000D+00  E= 3.414861D+00  Symmetry=a1
              MO Center= -1.5D-15, -1.9D-17,  4.5D-01, r^2= 1.6D+00
   Bfn.  Coefficient  Atom+Function         Bfn.  Coefficient  Atom+Function  
  ----- ------------  ---------------      ----- ------------  ---------------
    18      3.596439  1 Cl pz                46     -2.760626  1 Cl fxxz       
    51     -2.129393  1 Cl fyyz               6      1.591195  1 Cl s          
    55     -1.335327  2 H  s                 74     -1.335327  3 H  s          
    43      1.197771  1 Cl dzz               21      0.890441  1 Cl pz         
    53     -0.842039  1 Cl fzzz              72      0.782605  2 H  dzz        
 
 Vector   66  Occ=0.000000D+00  E= 3.426613D+00  Symmetry=b1
              MO Center= -1.5D-15, -3.3D-17,  5.1D-01, r^2= 1.7D+00
   Bfn.  Coefficient  Atom+Function         Bfn.  Coefficient  Atom+Function  
  ----- ------------  ---------------      ----- ------------  ---------------
    49     -3.332206  1 Cl fxzz              16      3.239575  1 Cl px         
    47     -1.872987  1 Cl fxyy              67     -0.831895  2 H  dxx        
    86      0.831895  3 H  dxx               55      0.792508  2 H  s          
    74     -0.792508  3 H  s                 44     -0.717149  1 Cl fxxx       
    72      0.599709  2 H  dzz               91     -0.599709  3 H  dzz        
 
 Vector   67  Occ=0.000000D+00  E= 3.635754D+00  Symmetry=b2
              MO Center=  1.4D-15,  2.3D-18, -2.4D-02, r^2= 1.4D+00
   Bfn.  Coefficient  Atom+Function         Bfn.  Coefficient  Atom+Function  
  ----- ------------  ---------------      ----- ------------  ---------------
    17      6.653168  1 Cl py                45     -4.477495  1 Cl fxxy       
    52     -4.379040  1 Cl fyzz              50     -3.788169  1 Cl fyyy       
    20     -1.186096  1 Cl py                 8     -0.711480  1 Cl py         
    68      0.524802  2 H  dxy               87     -0.524802  3 H  dxy        
    71     -0.419853  2 H  dyz               90     -0.419853  3 H  dyz        
 
 Vector   68  Occ=0.000000D+00  E= 3.644170D+00  Symmetry=a1
              MO Center=  2.6D-15, -1.8D-17, -8.8D-02, r^2= 1.8D+00
   Bfn.  Coefficient  Atom+Function         Bfn.  Coefficient  Atom+Function  
  ----- ------------  ---------------      ----- ------------  ---------------
     6      4.751136  1 Cl s                 18     -4.380367  1 Cl pz         
    46      3.578943  1 Cl fxxz               5      3.027281  1 Cl s          
    53      2.900615  1 Cl fzzz              51      2.670640  1 Cl fyyz       
    35     -2.141429  1 Cl dyy               37     -1.713030  1 Cl dzz        
    32     -1.635778  1 Cl dxx               55     -1.499939  2 H  s          
 
 Vector   69  Occ=0.000000D+00  E= 3.732347D+00  Symmetry=b1
              MO Center= -1.8D-13, -1.9D-17, -9.5D-02, r^2= 1.4D+00
   Bfn.  Coefficient  Atom+Function         Bfn.  Coefficient  Atom+Function  
  ----- ------------  ---------------      ----- ------------  ---------------
    16      9.278231  1 Cl px                44     -5.349913  1 Cl fxxx       
    49     -5.070307  1 Cl fxzz              47     -5.020053  1 Cl fxyy       
    13     -1.044490  1 Cl px                56      0.882266  2 H  s          
    75     -0.882266  3 H  s                  7     -0.735749  1 Cl px         
    19     -0.677758  1 Cl px                40      0.649401  1 Cl dxz        
 
 Vector   70  Occ=0.000000D+00  E= 3.735611D+00  Symmetry=a1
              MO Center=  1.8D-13,  2.6D-18,  3.8D-01, r^2= 1.3D+00
   Bfn.  Coefficient  Atom+Function         Bfn.  Coefficient  Atom+Function  
  ----- ------------  ---------------      ----- ------------  ---------------
    18      7.962038  1 Cl pz                 6      4.880136  1 Cl s          
    53     -4.231727  1 Cl fzzz              51     -4.125393  1 Cl fyyz       
    46     -3.735789  1 Cl fxxz               5      2.288095  1 Cl s          
    55     -1.459143  2 H  s                 74     -1.459143  3 H  s          
    35     -1.424127  1 Cl dyy               56     -1.310675  2 H  s          
 
 Vector   71  Occ=0.000000D+00  E= 3.975118D+00  Symmetry=b1
              MO Center=  8.7D-15,  6.1D-17,  6.2D-01, r^2= 1.8D+00
   Bfn.  Coefficient  Atom+Function         Bfn.  Coefficient  Atom+Function  
  ----- ------------  ---------------      ----- ------------  ---------------
    55      3.929233  2 H  s                 74     -3.929233  3 H  s          
    19      3.192154  1 Cl px                40      2.495088  1 Cl dxz        
    56      2.397782  2 H  s                 75     -2.397782  3 H  s          
    16      2.365791  1 Cl px                69     -1.386196  2 H  dxz        
    88     -1.386196  3 H  dxz               34      1.264738  1 Cl dxz        
 
 Vector   72  Occ=0.000000D+00  E= 4.247849D+00  Symmetry=a1
              MO Center= -3.2D-12,  2.1D-17,  2.8D-01, r^2= 2.1D+00
   Bfn.  Coefficient  Atom+Function         Bfn.  Coefficient  Atom+Function  
  ----- ------------  ---------------      ----- ------------  ---------------
    55      4.524320  2 H  s                 74      4.524320  3 H  s          
     5      4.272500  1 Cl s                 32     -3.634664  1 Cl dxx        
    37     -3.612654  1 Cl dzz               35     -3.383669  1 Cl dyy        
    38     -3.003000  1 Cl dxx               43     -2.929232  1 Cl dzz        
    21     -2.565961  1 Cl pz                18     -2.513188  1 Cl pz         
 
 Vector   73  Occ=0.000000D+00  E= 4.257964D+00  Symmetry=b1
              MO Center=  3.2D-12,  5.7D-16,  6.4D-01, r^2= 1.8D+00
   Bfn.  Coefficient  Atom+Function         Bfn.  Coefficient  Atom+Function  
  ----- ------------  ---------------      ----- ------------  ---------------
    16      4.987590  1 Cl px                55      4.429501  2 H  s          
    74     -4.429501  3 H  s                 49     -2.598578  1 Cl fxzz       
    44     -2.429443  1 Cl fxxx              47     -2.119289  1 Cl fxyy       
    40      1.850171  1 Cl dxz               19      1.818148  1 Cl px         
    72     -1.363052  2 H  dzz               91      1.363052  3 H  dzz        
 
 Vector   74  Occ=0.000000D+00  E= 4.391829D+00  Symmetry=a1
              MO Center= -4.7D-14,  1.4D-17,  4.5D-01, r^2= 1.4D+00
   Bfn.  Coefficient  Atom+Function         Bfn.  Coefficient  Atom+Function  
  ----- ------------  ---------------      ----- ------------  ---------------
     6      3.010627  1 Cl s                 18      2.989810  1 Cl pz         
     5      2.857524  1 Cl s                 46     -2.816392  1 Cl fxxz       
    55     -2.333720  2 H  s                 74     -2.333720  3 H  s          
    32     -2.051400  1 Cl dxx               37     -1.920748  1 Cl dzz        
    35     -1.811412  1 Cl dyy               53     -1.741469  1 Cl fzzz       
 
 Vector   75  Occ=0.000000D+00  E= 4.937468D+00  Symmetry=b2
              MO Center= -2.6D-15, -8.2D-18,  1.3D-02, r^2= 5.3D-01
   Bfn.  Coefficient  Atom+Function         Bfn.  Coefficient  Atom+Function  
  ----- ------------  ---------------      ----- ------------  ---------------
    30      1.896303  1 Cl dyz               36     -1.627851  1 Cl dyz        
    68      0.431865  2 H  dxy               87     -0.431865  3 H  dxy        
    42      0.419249  1 Cl dyz               45     -0.410740  1 Cl fxxy       
    52     -0.347691  1 Cl fyzz              71     -0.302852  2 H  dyz        
    90     -0.302852  3 H  dyz               17     -0.179822  1 Cl py         
 
 Vector   76  Occ=0.000000D+00  E= 4.995938D+00  Symmetry=a2
              MO Center=  2.5D-15, -4.6D-17,  1.7D-02, r^2= 5.6D-01
   Bfn.  Coefficient  Atom+Function         Bfn.  Coefficient  Atom+Function  
  ----- ------------  ---------------      ----- ------------  ---------------
    27      1.883488  1 Cl dxy               33     -1.681915  1 Cl dxy        
    48     -1.201068  1 Cl fxyz              71      0.439042  2 H  dyz        
    90     -0.439042  3 H  dyz               68     -0.413301  2 H  dxy        
    87     -0.413301  3 H  dxy               39      0.355426  1 Cl dxy        
    62     -0.178688  2 H  py                81      0.178688  3 H  py         
 
 Vector   77  Occ=0.000000D+00  E= 5.220107D+00  Symmetry=a1
              MO Center=  4.7D-17, -2.9D-18,  1.5D-01, r^2= 6.5D-01
   Bfn.  Coefficient  Atom+Function         Bfn.  Coefficient  Atom+Function  
  ----- ------------  ---------------      ----- ------------  ---------------
    37      1.361689  1 Cl dzz               31     -0.976908  1 Cl dzz        
    26      0.769846  1 Cl dxx                5     -0.640515  1 Cl s          
    67     -0.589007  2 H  dxx               86     -0.589007  3 H  dxx        
    53      0.501241  1 Cl fzzz              29      0.373942  1 Cl dyy        
    32     -0.374955  1 Cl dxx               61     -0.316860  2 H  px         
 
 Vector   78  Occ=0.000000D+00  E= 5.861516D+00  Symmetry=a1
              MO Center=  3.6D-15, -9.3D-17,  1.1D-01, r^2= 8.1D-01
   Bfn.  Coefficient  Atom+Function         Bfn.  Coefficient  Atom+Function  
  ----- ------------  ---------------      ----- ------------  ---------------
    46      4.229218  1 Cl fxxz               5     -3.614246  1 Cl s          
    32      3.253729  1 Cl dxx               37      2.327629  1 Cl dzz        
    29      1.225934  1 Cl dyy               69      1.183052  2 H  dxz        
    88     -1.183052  3 H  dxz               53      1.111591  1 Cl fzzz       
    63      1.065456  2 H  pz                82      1.065456  3 H  pz         
 
 Vector   79  Occ=0.000000D+00  E= 6.702457D+00  Symmetry=b1
              MO Center=  2.0D-15, -3.7D-18,  1.8D-01, r^2= 7.7D-01
   Bfn.  Coefficient  Atom+Function         Bfn.  Coefficient  Atom+Function  
  ----- ------------  ---------------      ----- ------------  ---------------
    34      4.374767  1 Cl dxz               49      4.003519  1 Cl fxzz       
    28     -1.954221  1 Cl dxz               44      1.727246  1 Cl fxxx       
    69     -1.292614  2 H  dxz               88     -1.292614  3 H  dxz        
    61      1.154082  2 H  px                80      1.154082  3 H  px         
    63     -0.953752  2 H  pz                82      0.953752  3 H  pz         
 
 Vector   80  Occ=0.000000D+00  E= 8.163385D+00  Symmetry=a2
              MO Center=  8.7D-17,  2.3D-17,  7.7D-01, r^2= 1.2D+00
   Bfn.  Coefficient  Atom+Function         Bfn.  Coefficient  Atom+Function  
  ----- ------------  ---------------      ----- ------------  ---------------
    59      0.905096  2 H  py                78     -0.905096  3 H  py         
    62     -0.674921  2 H  py                81      0.674921  3 H  py         
    48     -0.630472  1 Cl fxyz              33     -0.309238  1 Cl dxy        
    65      0.243158  2 H  py                84     -0.243158  3 H  py         
    27      0.146097  1 Cl dxy               71      0.107090  2 H  dyz        
 
 Vector   81  Occ=0.000000D+00  E= 8.184277D+00  Symmetry=b1
              MO Center=  8.8D-16, -7.4D-19,  7.7D-01, r^2= 1.2D+00
   Bfn.  Coefficient  Atom+Function         Bfn.  Coefficient  Atom+Function  
  ----- ------------  ---------------      ----- ------------  ---------------
    60      0.647780  2 H  pz                79     -0.647780  3 H  pz         
    58      0.634249  2 H  px                77      0.634249  3 H  px         
    49     -0.578219  1 Cl fxzz              61     -0.510218  2 H  px         
    80     -0.510218  3 H  px                16      0.497596  1 Cl px         
    63     -0.444415  2 H  pz                82      0.444415  3 H  pz         
 
 Vector   82  Occ=0.000000D+00  E= 8.207987D+00  Symmetry=b2
              MO Center=  7.0D-17, -9.7D-17,  7.7D-01, r^2= 1.2D+00
   Bfn.  Coefficient  Atom+Function         Bfn.  Coefficient  Atom+Function  
  ----- ------------  ---------------      ----- ------------  ---------------
    59      0.908190  2 H  py                78      0.908190  3 H  py         
    62     -0.687493  2 H  py                81     -0.687493  3 H  py         
    17      0.408425  1 Cl py                36      0.290259  1 Cl dyz        
    65      0.266175  2 H  py                84      0.266175  3 H  py         
    50     -0.248700  1 Cl fyyy              20     -0.236028  1 Cl py         
 
 Vector   83  Occ=0.000000D+00  E= 8.259171D+00  Symmetry=a1
              MO Center=  1.7D-15,  1.4D-16,  7.6D-01, r^2= 1.2D+00
   Bfn.  Coefficient  Atom+Function         Bfn.  Coefficient  Atom+Function  
  ----- ------------  ---------------      ----- ------------  ---------------
    46     -0.924940  1 Cl fxxz              18      0.886629  1 Cl pz         
    60      0.751376  2 H  pz                79      0.751376  3 H  pz         
    63     -0.678886  2 H  pz                82     -0.678886  3 H  pz         
    58      0.518882  2 H  px                77     -0.518882  3 H  px         
    51     -0.491726  1 Cl fyyz              32     -0.470900  1 Cl dxx        
 
 Vector   84  Occ=0.000000D+00  E= 8.974012D+00  Symmetry=b1
              MO Center= -1.1D-15, -2.4D-18,  6.9D-01, r^2= 1.3D+00
   Bfn.  Coefficient  Atom+Function         Bfn.  Coefficient  Atom+Function  
  ----- ------------  ---------------      ----- ------------  ---------------
    34      2.593442  1 Cl dxz               49      1.687343  1 Cl fxzz       
    55      1.404444  2 H  s                 74     -1.404444  3 H  s          
    61      1.281186  2 H  px                80      1.281186  3 H  px         
    63     -1.202341  2 H  pz                82      1.202341  3 H  pz         
    69     -0.918750  2 H  dxz               88     -0.918750  3 H  dxz        
 
 Vector   85  Occ=0.000000D+00  E= 9.177339D+00  Symmetry=a1
              MO Center= -9.0D-16,  1.9D-17,  7.0D-01, r^2= 1.2D+00
   Bfn.  Coefficient  Atom+Function         Bfn.  Coefficient  Atom+Function  
  ----- ------------  ---------------      ----- ------------  ---------------
     5      3.114698  1 Cl s                  6     -1.888970  1 Cl s          
    32     -1.867517  1 Cl dxx               46     -1.797459  1 Cl fxxz       
    37     -1.641476  1 Cl dzz               61      1.461120  2 H  px         
    80     -1.461120  3 H  px                18     -1.346854  1 Cl pz         
    55      1.346632  2 H  s                 74      1.346632  3 H  s          
 
 Vector   86  Occ=0.000000D+00  E= 1.089235D+01  Symmetry=a1
              MO Center=  2.7D-16,  1.6D-18, -7.5D-02, r^2= 6.7D-01
   Bfn.  Coefficient  Atom+Function         Bfn.  Coefficient  Atom+Function  
  ----- ------------  ---------------      ----- ------------  ---------------
     5     14.436495  1 Cl s                 32     -5.600528  1 Cl dxx        
    37     -5.543286  1 Cl dzz               35     -5.452776  1 Cl dyy        
     6      4.141132  1 Cl s                 29     -3.287468  1 Cl dyy        
    31     -3.254462  1 Cl dzz               26     -3.230460  1 Cl dxx        
     3     -1.806171  1 Cl s                 38     -1.429986  1 Cl dxx        
 
 Vector   87  Occ=0.000000D+00  E= 2.775330D+01  Symmetry=a1
              MO Center= -1.8D-17, -8.1D-19, -9.5D-02, r^2= 2.7D-01
   Bfn.  Coefficient  Atom+Function         Bfn.  Coefficient  Atom+Function  
  ----- ------------  ---------------      ----- ------------  ---------------
     4     13.723231  1 Cl s                  5     12.108846  1 Cl s          
     3    -10.929469  1 Cl s                 26     -6.032251  1 Cl dxx        
    29     -6.059110  1 Cl dyy               31     -6.040936  1 Cl dzz        
    32     -4.110756  1 Cl dxx               37     -4.079484  1 Cl dzz        
    35     -4.003150  1 Cl dyy                6      2.128384  1 Cl s          
 
 Vector   88  Occ=0.000000D+00  E= 3.154486D+01  Symmetry=b2
              MO Center=  2.6D-18, -2.1D-17, -9.3D-02, r^2= 4.1D-01
   Bfn.  Coefficient  Atom+Function         Bfn.  Coefficient  Atom+Function  
  ----- ------------  ---------------      ----- ------------  ---------------
    17     -4.258286  1 Cl py                 8      4.124928  1 Cl py         
    11      3.978608  1 Cl py                45      2.904351  1 Cl fxxy       
    52      2.896652  1 Cl fyzz              50      2.865702  1 Cl fyyy       
    14     -1.767247  1 Cl py                20      0.594300  1 Cl py         
    24     -0.211860  1 Cl py                68     -0.038517  2 H  dxy        
 
 Vector   89  Occ=0.000000D+00  E= 3.199065D+01  Symmetry=a1
              MO Center=  3.9D-16,  2.8D-19, -8.3D-02, r^2= 3.9D-01
   Bfn.  Coefficient  Atom+Function         Bfn.  Coefficient  Atom+Function  
  ----- ------------  ---------------      ----- ------------  ---------------
    18      5.397208  1 Cl pz                 9     -4.177273  1 Cl pz         
    12     -4.016657  1 Cl pz                46     -3.406102  1 Cl fxxz       
    51     -3.317269  1 Cl fyyz              53     -3.332366  1 Cl fzzz       
    15      1.550667  1 Cl pz                 6      1.199616  1 Cl s          
     5      0.678461  1 Cl s                 55     -0.618136  2 H  s          
 
 Vector   90  Occ=0.000000D+00  E= 3.211092D+01  Symmetry=b1
              MO Center= -3.0D-15, -9.4D-19, -1.0D-01, r^2= 3.9D-01
   Bfn.  Coefficient  Atom+Function         Bfn.  Coefficient  Atom+Function  
  ----- ------------  ---------------      ----- ------------  ---------------
    16      5.669461  1 Cl px                 7     -4.193717  1 Cl px         
    10     -4.028823  1 Cl px                49     -3.541716  1 Cl fxzz       
    44     -3.469512  1 Cl fxxx              47     -3.420655  1 Cl fxyy       
    13      1.500430  1 Cl px                55      0.674036  2 H  s          
    74     -0.674036  3 H  s                 40      0.605037  1 Cl dxz        
 
 Vector   91  Occ=0.000000D+00  E= 2.475405D+02  Symmetry=a1
              MO Center=  5.4D-17, -2.6D-21, -9.1D-02, r^2= 3.5D-02
   Bfn.  Coefficient  Atom+Function         Bfn.  Coefficient  Atom+Function  
  ----- ------------  ---------------      ----- ------------  ---------------
     4      6.664456  1 Cl s                  3     -5.843945  1 Cl s          
     5      4.132303  1 Cl s                 26     -2.437902  1 Cl dxx        
    29     -2.448045  1 Cl dyy               31     -2.440915  1 Cl dzz        
     2      2.315055  1 Cl s                  1     -1.624516  1 Cl s          
    32     -1.427186  1 Cl dxx               37     -1.414804  1 Cl dzz        
 

 center of mass
 --------------
 x =   0.00000000 y =   0.00000000 z =  -0.08306908

 moments of inertia (a.u.)
 ------------------
           5.103355920410           0.000000000000           0.000000000000
           0.000000000000          11.911248106119           0.000000000000
           0.000000000000           0.000000000000           6.807892185709
 
     Multipole analysis of the density
     ---------------------------------
 
     L   x y z        total         alpha         beta         nuclear
     -   - - -        -----         -----         ----         -------
     0   0 0 0      1.000000     -9.000000     -9.000000     19.000000
 
     1   1 0 0      0.000000      0.000000      0.000000      0.000000
     1   0 1 0     -0.000000     -0.000000     -0.000000      0.000000
     1   0 0 1      0.727125      0.363562      0.363562      0.000000
 
     2   2 0 0     -5.399664     -6.077349     -6.077349      6.755034
     2   1 1 0     -0.000000     -0.000000     -0.000000      0.000000
     2   1 0 1      0.000000      0.000000      0.000000      0.000000
     2   0 2 0     -9.119182     -4.559591     -4.559591      0.000000
     2   0 1 1     -0.000000     -0.000000     -0.000000      0.000000
     2   0 0 2     -6.676418     -5.734141     -5.734141      4.791864
 

------------------------------------------------------------
EAF file 0: "./HCl+.xyz.aoints.00" size=1048576 bytes
------------------------------------------------------------
               write      read    awrite     aread      wait
               -----      ----    ------     -----      ----
     calls:        2         1         0         1         1
   data(b): 1.05e+06  5.24e+05  0.00e+00  5.24e+05
   time(s): 0.00e+00  0.00e+00  0.00e+00  0.00e+00  0.00e+00
rate(mb/s): 0.00e+00  0.00e+00
------------------------------------------------------------


 Parallel integral file used      69 records with       0 large values


 Task  times  cpu:        1.5s     wall:        2.1s
 
 
                                NWChem Input Module
                                -------------------
 
 
 Summary of allocated global arrays
-----------------------------------
  No active global arrays



                         GA Statistics for process    0
                         ------------------------------

       create   destroy   get      put      acc     scatter   gather  read&inc
calls:  241      241     1373      933      280        0        0      115     
number of processes/call 2.99e+00 1.54e+00 5.35e+00 0.00e+00 0.00e+00
bytes total:             1.93e+07 4.00e+06 9.97e+06 0.00e+00 0.00e+00 9.20e+02
bytes remote:            1.17e+07 1.13e+06 5.94e+06 0.00e+00 0.00e+00 0.00e+00
Max memory consumed for GA by this process: 874072 bytes
 
MA_summarize_allocated_blocks: starting scan ...
MA_summarize_allocated_blocks: scan completed: 0 heap blocks, 0 stack blocks
MA usage statistics:

	allocation statistics:
					      heap	     stack
					      ----	     -----
	current number of blocks	         0	         0
	maximum number of blocks	        22	        57
	current total bytes		         0	         0
	maximum total bytes		   3993616	  23559832
	maximum total K-bytes		      3994	     23560
	maximum total M-bytes		         4	        24
 
 
                                     CITATION
                                     --------
                Please cite the following reference when publishing
                           results obtained with NWChem:
 
                 M. Valiev, E.J. Bylaska, N. Govind, K. Kowalski,
              T.P. Straatsma, H.J.J. van Dam, D. Wang, J. Nieplocha,
                        E. Apra, T.L. Windus, W.A. de Jong
                 "NWChem: a comprehensive and scalable open-source
                  solution for large scale molecular simulations"
                      Comput. Phys. Commun. 181, 1477 (2010)
                           doi:10.1016/j.cpc.2010.04.018
 
                                      AUTHORS
                                      -------
          E. Apra, E. J. Bylaska, W. A. de Jong, N. Govind, K. Kowalski,
       T. P. Straatsma, M. Valiev, H. J. J. van Dam, D. Wang, T. L. Windus,
        J. Hammond, J. Autschbach, K. Bhaskaran-Nair, J. Brabec, K. Lopata,
    S. A. Fischer, S. Krishnamoorthy, M. Jacquelin, W. Ma, M. Klemm, O. Villa,
      Y. Chen, V. Anisimov, F. Aquino, S. Hirata, M. T. Hackler, V. Konjkov,
            D. Mejia-Rodriguez, T. Risthaus, M. Malagoli, A. Marenich,
   A. Otero-de-la-Roza, J. Mullin, P. Nichols, R. Peverati, J. Pittner, Y. Zhao,
        P.-D. Fan, A. Fonari, M. J. Williamson, R. J. Harrison, J. R. Rehr,
      M. Dupuis, D. Silverstein, D. M. A. Smith, J. Nieplocha, V. Tipparaju,
    M. Krishnan, B. E. Van Kuiken, A. Vazquez-Mayagoitia, L. Jensen, M. Swart,
      Q. Wu, T. Van Voorhis, A. A. Auer, M. Nooijen, L. D. Crosby, E. Brown,
      G. Cisneros, G. I. Fann, H. Fruchtl, J. Garza, K. Hirao, R. A. Kendall,
      J. A. Nichols, K. Tsemekhman, K. Wolinski, J. Anchell, D. E. Bernholdt,
      P. Borowski, T. Clark, D. Clerc, H. Dachsel, M. J. O. Deegan, K. Dyall,
    D. Elwood, E. Glendening, M. Gutowski, A. C. Hess, J. Jaffe, B. G. Johnson,
     J. Ju, R. Kobayashi, R. Kutteh, Z. Lin, R. Littlefield, X. Long, B. Meng,
      T. Nakajima, S. Niu, L. Pollack, M. Rosing, K. Glaesemann, G. Sandrone,
      M. Stave, H. Taylor, G. Thomas, J. H. van Lenthe, A. T. Wong, Z. Zhang.

 Total times  cpu:        1.5s     wall:        2.4s
