 argument  1 = /storage/home/rabeet/work/nwc/pa8/nwtpss/HCl.xyz.nw
  NWChem w/ OpenMP: maximum threads =  1
                                         
                                         
 
 
              Northwest Computational Chemistry Package (NWChem) 6.8
              ------------------------------------------------------
 
 
                    Environmental Molecular Sciences Laboratory
                       Pacific Northwest National Laboratory
                                Richland, WA 99352
 
                              Copyright (c) 1994-2018
                       Pacific Northwest National Laboratory
                            Battelle Memorial Institute
 
             NWChem is an open-source computational chemistry package
                        distributed under the terms of the
                      Educational Community License (ECL) 2.0
             A copy of the license is included with this distribution
                              in the LICENSE.TXT file
 
                                  ACKNOWLEDGMENT
                                  --------------

            This software and its documentation were developed at the
            EMSL at Pacific Northwest National Laboratory, a multiprogram
            national laboratory, operated for the U.S. Department of Energy
            by Battelle under Contract Number DE-AC05-76RL01830. Support
            for this work was provided by the Department of Energy Office
            of Biological and Environmental Research, Office of Basic
            Energy Sciences, and the Office of Advanced Scientific Computing.


           Job information
           ---------------

    hostname        = r8n4.niserhpc.org
    program         = /home/rabeet/nwchem-6.8/bin/LINUX64/nwchem
    date            = Sun Oct 27 10:45:36 2019

    compiled        = Fri_Jun_28_18:24:12_2019
    source          = /home/rabeet/nwchem-6.8
    nwchem branch   = Development
    nwchem revision = N/A
    ga revision     = 5.6.5
    use scalapack   = T
    input           = /storage/home/rabeet/work/nwc/pa8/nwtpss/HCl.xyz.nw
    prefix          = HCl.xyz.
    data base       = ./HCl.xyz.db
    status          = startup
    nproc           =       16
    time left       =     -1s



           Memory information
           ------------------

    heap     =   13107194 doubles =    100.0 Mbytes
    stack    =   13107199 doubles =    100.0 Mbytes
    global   =   26214400 doubles =    200.0 Mbytes (distinct from heap & stack)
    total    =   52428793 doubles =    400.0 Mbytes
    verify   = yes
    hardfail = no 


           Directory information
           ---------------------
 
  0 permanent = .
  0 scratch   = .
 
 
 
 
                                NWChem Input Module
                                -------------------
 
 

 Scaling coordinates for geometry "geometry" by  1.889725989
 (inverse scale =  0.529177249)

 ORDER OF PRIMARY AXIS IS BEING SET TO 4
 C4V symmetry detected

          ------
          auto-z
          ------
  no constraints, skipping   0.000000000000000E+000
  no constraints, skipping   0.000000000000000E+000
 
 
                             Geometry "geometry" -> ""
                             -------------------------
 
 Output coordinates in angstroms (scale by  1.889725989 to convert to a.u.)
 
  No.       Tag          Charge          X              Y              Z
 ---- ---------------- ---------- -------------- -------------- --------------
    1 Cl                  17.0000     0.00000000     0.00000000     0.07111000
    2 H                    1.0000     0.00000000     0.00000000    -1.20887000
 
      Atomic Mass 
      ----------- 
 
      Cl                34.968850
      H                  1.007825
 

 Effective nuclear repulsion energy (a.u.)       7.0282451546

            Nuclear Dipole moment (a.u.) 
            ----------------------------
        X                 Y               Z
 ---------------- ---------------- ----------------
     0.0000000000     0.0000000000    -0.0000000000
 
      Symmetry information
      --------------------
 
 Group name             C4v       
 Group number             18
 Group order               8
 No. of unique centers     2
 
      Symmetry unique atoms
 
     1    2
 


                                Z-matrix (autoz)
                                -------- 

 Units are Angstrom for bonds and degrees for angles
 
      Type          Name      I     J     K     L     M      Value
      ----------- --------  ----- ----- ----- ----- ----- ----------
    1 Stretch                  1     2                       1.27998
 
 
            XYZ format geometry
            -------------------
     2
 geometry
 Cl                    0.00000000     0.00000000     0.07111000
 H                     0.00000000     0.00000000    -1.20887000
 
 ==============================================================================
                                internuclear distances
 ------------------------------------------------------------------------------
       center one      |      center two      | atomic units |  angstroms
 ------------------------------------------------------------------------------
    2 H                |   1 Cl               |     2.41881  |     1.27998
 ------------------------------------------------------------------------------
                         number of included internuclear distances:          1
 ==============================================================================





 Summary of "ao basis" -> "" (cartesian)
 ------------------------------------------------------------------------------
       Tag                 Description            Shells   Functions and Types
 ---------------- ------------------------------  ------  ---------------------
 *                     6-311++G(3df,3pd)              on all atoms 


 
                                 NWChem DFT Module
                                 -----------------
 
 
                      Basis "ao basis" -> "ao basis" (cartesian)
                      -----
  Cl (Chlorine)
  -------------
            Exponent  Coefficients 
       -------------- ---------------------------------------------------------
  1 S  1.05819000E+05  0.000738
  1 S  1.58720000E+04  0.005718
  1 S  3.61965000E+03  0.029495
  1 S  1.03080000E+03  0.117286
  1 S  3.39908000E+02  0.362949
  1 S  1.24538000E+02  0.584149
 
  2 S  1.24538000E+02  0.134177
  2 S  4.95135000E+01  0.624250
  2 S  2.08056000E+01  0.291756
 
  3 S  6.58346000E+00  1.000000
 
  4 S  2.56468000E+00  1.000000
 
  5 S  5.59763000E-01  1.000000
 
  6 S  1.83273000E-01  1.000000
 
  7 P  5.89776000E+02  0.002391
  7 P  1.39849000E+02  0.018504
  7 P  4.51413000E+01  0.081377
  7 P  1.68733000E+01  0.221552
  7 P  6.74110000E+00  0.772569
 
  8 P  6.74110000E+00 -1.572244
  8 P  2.77152000E+00  0.992389
 
  9 P  1.02387000E+00  1.000000
 
 10 P  3.81368000E-01  1.000000
 
 11 P  1.09437000E-01  1.000000
 
 12 S  4.83000000E-02  1.000000
 
 13 P  4.83000000E-02  1.000000
 
 14 D  3.00000000E+00  1.000000
 
 15 D  7.50000000E-01  1.000000
 
 16 D  1.87500000E-01  1.000000
 
 17 F  7.00000000E-01  1.000000
 
  H (Hydrogen)
  ------------
            Exponent  Coefficients 
       -------------- ---------------------------------------------------------
  1 S  3.38650000E+01  0.025494
  1 S  5.09479000E+00  0.190373
  1 S  1.15879000E+00  0.852161
 
  2 S  3.25840000E-01  1.000000
 
  3 S  1.02741000E-01  1.000000
 
  4 S  3.60000000E-02  1.000000
 
  5 P  3.00000000E+00  1.000000
 
  6 P  7.50000000E-01  1.000000
 
  7 P  1.87500000E-01  1.000000
 
  8 D  1.00000000E+00  1.000000
 


 Summary of "ao basis" -> "ao basis" (cartesian)
 ------------------------------------------------------------------------------
       Tag                 Description            Shells   Functions and Types
 ---------------- ------------------------------  ------  ---------------------
 Cl                    6-311++G(3df,3pd)            17       53   7s6p3d1f
 H                     6-311++G(3df,3pd)             8       19   4s3p1d




 Summary of "ao basis" -> "ao basis" (cartesian)
 ------------------------------------------------------------------------------
       Tag                 Description            Shells   Functions and Types
 ---------------- ------------------------------  ------  ---------------------
 Cl                    6-311++G(3df,3pd)            17       53   7s6p3d1f
 H                     6-311++G(3df,3pd)             8       19   4s3p1d


      Symmetry analysis of basis
      --------------------------
 
        a1         30
        a2          0
        b1          5
        b2          5
        e          32
 
  Caching 1-el integrals 
 
            General Information
            -------------------
          SCF calculation type: DFT
          Wavefunction type:  closed shell.
          No. of atoms     :     2
          No. of electrons :    18
           Alpha electrons :     9
            Beta electrons :     9
          Charge           :     0
          Spin multiplicity:     1
          Use of symmetry is: on ; symmetry adaption is: on 
          Maximum number of iterations: ***
          AO basis - number of functions:    72
                     number of shells:    25
          Convergence on energy requested:  1.00D-06
          Convergence on density requested:  1.00D-05
          Convergence on gradient requested:  5.00D-04
 
              XC Information
              --------------
                  TPSS metaGGA Exchange Functional  1.000          
             TPSS03 metaGGA Correlation Functional  1.000          
 
             Grid Information
             ----------------
          Grid used for XC integration:  medium    
          Radial quadrature: Mura-Knowles        
          Angular quadrature: Lebedev. 
          Tag              B.-S. Rad. Rad. Pts. Rad. Cut. Ang. Pts.
          ---              ---------- --------- --------- ---------
          Cl                  1.00       88          10.0       590
          H                   0.35       45          10.0       434
          Grid pruning is: on 
          Number of quadrature shells:   133
          Spatial weights used:  Erf1
 
          Convergence Information
          -----------------------
          Convergence aids based upon iterative change in 
          total energy or number of iterations. 
          Levelshifting, if invoked, occurs when the 
          HOMO/LUMO gap drops below (HL_TOL):  1.00D-02
          DIIS, if invoked, will attempt to extrapolate 
          using up to (NFOCK): 10 stored Fock matrices.

                    Damping( 0%)  Levelshifting(0.5)       DIIS
                  --------------- ------------------- ---------------
          dE  on:    start            ASAP                start   
          dE off:    2 iters        *** iters           *** iters 

 
      Screening Tolerance Information
      -------------------------------
          Density screening/tol_rho:  1.00D-10
          AO Gaussian exp screening on grid/accAOfunc:  14
          CD Gaussian exp screening on grid/accCDfunc:  20
          XC Gaussian exp screening on grid/accXCfunc:  20
          Schwarz screening/accCoul:  1.00D-08

 
      Superposition of Atomic Density Guess
      -------------------------------------
 
 Sum of atomic energies:        -459.97786591
 
      Non-variational initial energy
      ------------------------------

 Total energy =    -460.048538
 1-e energy   =    -649.130987
 2-e energy   =     182.054204
 HOMO         =      -0.449592
 LUMO         =       0.028310
 
 
      Symmetry analysis of molecular orbitals - initial
      -------------------------------------------------
 
  Numbering of irreducible representations: 
 
     1 a1          2 a2          3 b1          4 b2          5 e       
 
  Orbital symmetries:
 
     1 a1          2 a1          3 a1          4 e           5 e       
     6 a1          7 a1          8 e           9 e          10 a1      
    11 a1         12 e          13 e          14 a1         15 a1      
    16 e          17 e          18 a1         19 b1      
 
   Time after variat. SCF:      1.0
   Time prior to 1st pass:      1.0

 Integral file          = ./HCl.xyz.aoints.00
 Record size in doubles =    65536    No. of integs per rec  =    43688
 Max. records in memory =        3    Max. records in file   =  8902616
 No. of bits per label  =        8    No. of bits per value  =       64


 #quartets = 5.297D+04 #integrals = 8.589D+05 #direct =  0.0% #cached =100.0%


File balance: exchanges=     0  moved=     0  time=   0.0


 Grid_pts file          = ./HCl.xyz.gridpts.00
 Record size in doubles =  12289        No. of grid_pts per rec  =   3070
 Max. records in memory =      3        Max. recs in file   =  47476761


           Memory utilization after 1st SCF pass: 
           Heap Space remaining (MW):       12.87            12870346
          Stack Space remaining (MW):       13.11            13106708

   convergence    iter        energy       DeltaE   RMS-Dens  Diis-err    time
 ---------------- ----- ----------------- --------- --------- ---------  ------
 d= 0,ls=0.0,diis     1   -460.8219395777 -4.68D+02  7.44D-03  6.77D-01     1.9
 d= 0,ls=0.0,diis     2   -460.8260201729 -4.08D-03  6.13D-03  1.27D-01     2.0
 d= 0,ls=0.0,diis     3   -460.8316053611 -5.59D-03  2.68D-03  9.00D-02     2.1
 d= 0,ls=0.0,diis     4   -460.8433909406 -1.18D-02  1.81D-04  1.19D-04     2.2
 d= 0,ls=0.0,diis     5   -460.8434062511 -1.53D-05  4.67D-05  2.32D-05     2.3
  Resetting Diis
 d= 0,ls=0.0,diis     6   -460.8434085126 -2.26D-06  9.54D-06  7.41D-07     2.3
 d= 0,ls=0.0,diis     7   -460.8434085883 -7.56D-08  2.86D-06  1.91D-08     2.4


         Total DFT energy =     -460.843408588262
      One electron energy =     -649.857225706482
           Coulomb energy =      210.591161669829
          Exchange energy =      -27.914695942660
       Correlation energy =       -0.690893763556
 Nuclear repulsion energy =        7.028245154608

 Numeric. integr. density =       18.000003819110

     Total iterative time =      1.4s


 
                  Occupations of the irreducible representations
                  ----------------------------------------------
 
                     irrep           alpha         beta
                     --------     --------     --------
                     a1                5.0          5.0
                     a2                0.0          0.0
                     b1                0.0          0.0
                     b2                0.0          0.0
                     e                 4.0          4.0
 
 
                       DFT Final Molecular Orbital Analysis
                       ------------------------------------
 
 Vector    1  Occ=2.000000D+00  E=-1.010211D+02  Symmetry=a1
              MO Center=  4.1D-28, -1.4D-27,  7.1D-02, r^2= 3.1D-03
   Bfn.  Coefficient  Atom+Function         Bfn.  Coefficient  Atom+Function  
  ----- ------------  ---------------      ----- ------------  ---------------
     2      0.653519  1 Cl s                  1      0.412104  1 Cl s          
 
 Vector    2  Occ=2.000000D+00  E=-9.259991D+00  Symmetry=a1
              MO Center= -7.3D-17,  1.3D-16,  7.0D-02, r^2= 6.6D-02
   Bfn.  Coefficient  Atom+Function         Bfn.  Coefficient  Atom+Function  
  ----- ------------  ---------------      ----- ------------  ---------------
     4      0.615688  1 Cl s                  3      0.483992  1 Cl s          
     2     -0.326667  1 Cl s                  5      0.123852  1 Cl s          
     1     -0.121602  1 Cl s          
 
 Vector    3  Occ=2.000000D+00  E=-7.041091D+00  Symmetry=a1
              MO Center=  4.9D-18,  2.8D-17,  7.2D-02, r^2= 5.8D-02
   Bfn.  Coefficient  Atom+Function         Bfn.  Coefficient  Atom+Function  
  ----- ------------  ---------------      ----- ------------  ---------------
     9      1.232245  1 Cl pz                12      0.332473  1 Cl pz         
    15      0.056241  1 Cl pz         
 
 Vector    4  Occ=2.000000D+00  E=-7.030912D+00  Symmetry=e
              MO Center=  9.4D-17,  1.5D-17,  7.1D-02, r^2= 5.8D-02
   Bfn.  Coefficient  Atom+Function         Bfn.  Coefficient  Atom+Function  
  ----- ------------  ---------------      ----- ------------  ---------------
     7      1.228880  1 Cl px                10      0.331512  1 Cl px         
     8     -0.097349  1 Cl py                13      0.054955  1 Cl px         
    11     -0.026262  1 Cl py         
 
 Vector    5  Occ=2.000000D+00  E=-7.030912D+00  Symmetry=e
              MO Center= -1.7D-17, -1.8D-16,  7.1D-02, r^2= 5.8D-02
   Bfn.  Coefficient  Atom+Function         Bfn.  Coefficient  Atom+Function  
  ----- ------------  ---------------      ----- ------------  ---------------
     8      1.228880  1 Cl py                11      0.331512  1 Cl py         
     7      0.097349  1 Cl px                14      0.054955  1 Cl py         
    10      0.026262  1 Cl px         
 
 Vector    6  Occ=2.000000D+00  E=-7.896696D-01  Symmetry=a1
              MO Center=  3.1D-16, -4.7D-16, -1.7D-01, r^2= 8.1D-01
   Bfn.  Coefficient  Atom+Function         Bfn.  Coefficient  Atom+Function  
  ----- ------------  ---------------      ----- ------------  ---------------
     6      0.565069  1 Cl s                  5      0.532168  1 Cl s          
     4     -0.390382  1 Cl s                  3     -0.205443  1 Cl s          
    55      0.105970  2 H  s                  2      0.103290  1 Cl s          
    54      0.095755  2 H  s                  9      0.052967  1 Cl pz         
    18     -0.051421  1 Cl pz                38     -0.049011  1 Cl dxx        
 
 Vector    7  Occ=2.000000D+00  E=-4.390784D-01  Symmetry=a1
              MO Center=  1.1D-15,  5.1D-16, -1.3D-01, r^2= 1.3D+00
   Bfn.  Coefficient  Atom+Function         Bfn.  Coefficient  Atom+Function  
  ----- ------------  ---------------      ----- ------------  ---------------
    18      0.438737  1 Cl pz                 6      0.325531  1 Cl s          
     9     -0.291634  1 Cl pz                55     -0.266471  2 H  s          
    15      0.209707  1 Cl pz                 5      0.186067  1 Cl s          
    54     -0.163811  2 H  s                 21      0.155071  1 Cl pz         
     4     -0.133958  1 Cl s                 56     -0.115131  2 H  s          
 
 Vector    8  Occ=2.000000D+00  E=-2.995403D-01  Symmetry=e
              MO Center=  6.5D-16, -2.7D-15,  3.1D-02, r^2= 1.2D+00
   Bfn.  Coefficient  Atom+Function         Bfn.  Coefficient  Atom+Function  
  ----- ------------  ---------------      ----- ------------  ---------------
    17      0.697190  1 Cl py                 8     -0.352862  1 Cl py         
    20      0.301637  1 Cl py                14      0.229544  1 Cl py         
    16     -0.101062  1 Cl px                11     -0.089949  1 Cl py         
    45     -0.060816  1 Cl fxxy              50     -0.060813  1 Cl fyyy       
     7      0.051149  1 Cl px                19     -0.043724  1 Cl px         
 
 Vector    9  Occ=2.000000D+00  E=-2.995403D-01  Symmetry=e
              MO Center= -2.0D-15,  1.0D-16,  3.1D-02, r^2= 1.2D+00
   Bfn.  Coefficient  Atom+Function         Bfn.  Coefficient  Atom+Function  
  ----- ------------  ---------------      ----- ------------  ---------------
    16      0.697190  1 Cl px                 7     -0.352862  1 Cl px         
    19      0.301637  1 Cl px                13      0.229544  1 Cl px         
    17      0.101062  1 Cl py                10     -0.089949  1 Cl px         
    44     -0.060813  1 Cl fxxx              47     -0.060816  1 Cl fxyy       
     8     -0.051149  1 Cl py                20      0.043724  1 Cl py         
 
 Vector   10  Occ=0.000000D+00  E=-3.412977D-02  Symmetry=a1
              MO Center=  2.4D-15, -1.0D-17, -1.1D+00, r^2= 5.3D+00
   Bfn.  Coefficient  Atom+Function         Bfn.  Coefficient  Atom+Function  
  ----- ------------  ---------------      ----- ------------  ---------------
    57      1.275337  2 H  s                 22     -0.754937  1 Cl s          
    56      0.534663  2 H  s                 25      0.425123  1 Cl pz         
    18      0.378367  1 Cl pz                 6     -0.321892  1 Cl s          
    21      0.217432  1 Cl pz                 5     -0.202318  1 Cl s          
    55      0.177545  2 H  s                  9     -0.157333  1 Cl pz         
 
 Vector   11  Occ=0.000000D+00  E= 3.515896D-02  Symmetry=a1
              MO Center=  3.6D-14, -1.6D-14, -5.3D-01, r^2= 6.8D+00
   Bfn.  Coefficient  Atom+Function         Bfn.  Coefficient  Atom+Function  
  ----- ------------  ---------------      ----- ------------  ---------------
    56      2.268782  2 H  s                 21      1.172749  1 Cl pz         
    57     -1.109249  2 H  s                 22     -0.729301  1 Cl s          
     6     -0.571454  1 Cl s                 18      0.469261  1 Cl pz         
    55      0.430441  2 H  s                 66      0.307822  2 H  pz         
    43     -0.142925  1 Cl dzz               54      0.129794  2 H  s          
 
 Vector   12  Occ=0.000000D+00  E= 5.469137D-02  Symmetry=a1
              MO Center= -4.8D-15, -3.0D-15,  5.4D-01, r^2= 9.7D+00
   Bfn.  Coefficient  Atom+Function         Bfn.  Coefficient  Atom+Function  
  ----- ------------  ---------------      ----- ------------  ---------------
    22      1.536601  1 Cl s                 25      0.922024  1 Cl pz         
    57     -0.868319  2 H  s                 21     -0.560991  1 Cl pz         
    38     -0.208705  1 Cl dxx               41     -0.208705  1 Cl dyy        
     5     -0.175406  1 Cl s                 15     -0.088370  1 Cl pz         
    66     -0.074571  2 H  pz                55     -0.073913  2 H  s          
 
 Vector   13  Occ=0.000000D+00  E= 6.567046D-02  Symmetry=e
              MO Center= -1.4D-14,  2.8D-14,  2.7D-02, r^2= 9.7D+00
   Bfn.  Coefficient  Atom+Function         Bfn.  Coefficient  Atom+Function  
  ----- ------------  ---------------      ----- ------------  ---------------
    24      1.321289  1 Cl py                20     -0.698039  1 Cl py         
    23     -0.666553  1 Cl px                19      0.352141  1 Cl px         
    14     -0.157412  1 Cl py                17      0.132209  1 Cl py         
    52     -0.111043  1 Cl fyzz              45     -0.106460  1 Cl fxxy       
    50     -0.106461  1 Cl fyyy               8      0.096651  1 Cl py         
 
 Vector   14  Occ=0.000000D+00  E= 6.567046D-02  Symmetry=e
              MO Center= -1.4D-14, -7.3D-15,  2.7D-02, r^2= 9.7D+00
   Bfn.  Coefficient  Atom+Function         Bfn.  Coefficient  Atom+Function  
  ----- ------------  ---------------      ----- ------------  ---------------
    23      1.321289  1 Cl px                19     -0.698039  1 Cl px         
    24      0.666553  1 Cl py                20     -0.352141  1 Cl py         
    13     -0.157412  1 Cl px                16      0.132209  1 Cl px         
    49     -0.111043  1 Cl fxzz              44     -0.106461  1 Cl fxxx       
    47     -0.106460  1 Cl fxyy               7      0.096651  1 Cl px         
 
 Vector   15  Occ=0.000000D+00  E= 1.160871D-01  Symmetry=a1
              MO Center=  2.1D-15,  3.7D-15, -1.2D+00, r^2= 1.2D+01
   Bfn.  Coefficient  Atom+Function         Bfn.  Coefficient  Atom+Function  
  ----- ------------  ---------------      ----- ------------  ---------------
    22      5.496639  1 Cl s                 57     -4.412128  2 H  s          
    25     -2.604326  1 Cl pz                21      0.540268  1 Cl pz         
    56     -0.416823  2 H  s                 43     -0.391843  1 Cl dzz        
    38     -0.369431  1 Cl dxx               41     -0.369431  1 Cl dyy        
     5     -0.278637  1 Cl s                  6     -0.273521  1 Cl s          
 
 Vector   16  Occ=0.000000D+00  E= 1.955129D-01  Symmetry=e
              MO Center= -2.6D-16,  1.7D-16, -2.8D-01, r^2= 2.5D+00
   Bfn.  Coefficient  Atom+Function         Bfn.  Coefficient  Atom+Function  
  ----- ------------  ---------------      ----- ------------  ---------------
    40      0.677141  1 Cl dxz               42     -0.568755  1 Cl dyz        
    64     -0.404109  2 H  px                65      0.339426  2 H  py         
    34      0.294391  1 Cl dxz               36     -0.247269  1 Cl dyz        
    19      0.162641  1 Cl px                20     -0.136608  1 Cl py         
    16      0.121698  1 Cl px                17     -0.102218  1 Cl py         
 
 Vector   17  Occ=0.000000D+00  E= 1.955129D-01  Symmetry=e
              MO Center=  1.5D-15,  2.0D-15, -2.8D-01, r^2= 2.5D+00
   Bfn.  Coefficient  Atom+Function         Bfn.  Coefficient  Atom+Function  
  ----- ------------  ---------------      ----- ------------  ---------------
    42      0.677141  1 Cl dyz               40      0.568755  1 Cl dxz        
    65     -0.404109  2 H  py                64     -0.339426  2 H  px         
    36      0.294391  1 Cl dyz               34      0.247269  1 Cl dxz        
    20      0.162641  1 Cl py                19      0.136608  1 Cl px         
    17      0.121698  1 Cl py                16      0.102218  1 Cl px         
 
 Vector   18  Occ=0.000000D+00  E= 2.502771D-01  Symmetry=b2
              MO Center=  6.5D-17, -9.3D-16,  6.7D-02, r^2= 2.1D+00
   Bfn.  Coefficient  Atom+Function         Bfn.  Coefficient  Atom+Function  
  ----- ------------  ---------------      ----- ------------  ---------------
    39      1.473338  1 Cl dxy               33      0.411675  1 Cl dxy        
    27      0.138354  1 Cl dxy        
 
 Vector   19  Occ=0.000000D+00  E= 2.502779D-01  Symmetry=b1
              MO Center=  2.5D-16,  1.6D-16,  6.7D-02, r^2= 2.1D+00
   Bfn.  Coefficient  Atom+Function         Bfn.  Coefficient  Atom+Function  
  ----- ------------  ---------------      ----- ------------  ---------------
    38      0.736666  1 Cl dxx               41     -0.736666  1 Cl dyy        
    32      0.205842  1 Cl dxx               35     -0.205842  1 Cl dyy        
    26      0.069177  1 Cl dxx               29     -0.069177  1 Cl dyy        
 
 Vector   20  Occ=0.000000D+00  E= 2.629890D-01  Symmetry=a1
              MO Center= -6.0D-15, -1.0D-14, -7.4D-01, r^2= 6.8D+00
   Bfn.  Coefficient  Atom+Function         Bfn.  Coefficient  Atom+Function  
  ----- ------------  ---------------      ----- ------------  ---------------
    56      6.819929  2 H  s                 21      2.416578  1 Cl pz         
    22     -2.392690  1 Cl s                  6     -2.012194  1 Cl s          
    43     -1.527516  1 Cl dzz               66      1.246048  2 H  pz         
    25      1.067798  1 Cl pz                18      0.617792  1 Cl pz         
    57     -0.301420  2 H  s                 46     -0.258097  1 Cl fxxz       
 
 Vector   21  Occ=0.000000D+00  E= 3.661717D-01  Symmetry=a1
              MO Center= -7.6D-17, -1.4D-16,  8.2D-01, r^2= 6.2D+00
   Bfn.  Coefficient  Atom+Function         Bfn.  Coefficient  Atom+Function  
  ----- ------------  ---------------      ----- ------------  ---------------
    21      3.930809  1 Cl pz                56      3.156618  2 H  s          
     6     -2.703775  1 Cl s                 25     -1.616772  1 Cl pz         
    66      1.547554  2 H  pz                55      1.023980  2 H  s          
    57     -0.878575  2 H  s                 18     -0.860946  1 Cl pz         
    43     -0.403033  1 Cl dzz               53      0.242836  1 Cl fzzz       
 
 Vector   22  Occ=0.000000D+00  E= 4.068134D-01  Symmetry=e
              MO Center= -9.3D-16,  1.4D-15,  9.4D-02, r^2= 6.1D+00
   Bfn.  Coefficient  Atom+Function         Bfn.  Coefficient  Atom+Function  
  ----- ------------  ---------------      ----- ------------  ---------------
    17      2.193893  1 Cl py                20     -2.105355  1 Cl py         
    16     -1.497150  1 Cl px                19      1.436730  1 Cl px         
    24      1.175244  1 Cl py                23     -0.802007  1 Cl px         
    45     -0.604133  1 Cl fxxy              50     -0.604129  1 Cl fyyy       
    52     -0.594034  1 Cl fyzz              44      0.412268  1 Cl fxxx       
 
 Vector   23  Occ=0.000000D+00  E= 4.068134D-01  Symmetry=e
              MO Center=  9.2D-15,  6.0D-15,  9.4D-02, r^2= 6.1D+00
   Bfn.  Coefficient  Atom+Function         Bfn.  Coefficient  Atom+Function  
  ----- ------------  ---------------      ----- ------------  ---------------
    16      2.193893  1 Cl px                19     -2.105355  1 Cl px         
    17      1.497150  1 Cl py                20     -1.436730  1 Cl py         
    23      1.175244  1 Cl px                24      0.802007  1 Cl py         
    44     -0.604129  1 Cl fxxx              47     -0.604133  1 Cl fxyy       
    49     -0.594034  1 Cl fxzz              45     -0.412271  1 Cl fxxy       
 
 Vector   24  Occ=0.000000D+00  E= 4.580587D-01  Symmetry=a1
              MO Center=  1.3D-15, -1.2D-15, -7.9D-01, r^2= 5.9D+00
   Bfn.  Coefficient  Atom+Function         Bfn.  Coefficient  Atom+Function  
  ----- ------------  ---------------      ----- ------------  ---------------
    22      3.850722  1 Cl s                 56      3.057011  2 H  s          
    57     -2.733667  2 H  s                 38     -1.940348  1 Cl dxx        
    41     -1.940348  1 Cl dyy               21      1.424731  1 Cl pz         
    43     -1.412018  1 Cl dzz               25     -1.145328  1 Cl pz         
    66      0.876222  2 H  pz                55     -0.749435  2 H  s          
 
 Vector   25  Occ=0.000000D+00  E= 4.874677D-01  Symmetry=e
              MO Center= -8.4D-15,  2.5D-15, -8.4D-01, r^2= 3.2D+00
   Bfn.  Coefficient  Atom+Function         Bfn.  Coefficient  Atom+Function  
  ----- ------------  ---------------      ----- ------------  ---------------
    40      1.988308  1 Cl dxz               64      1.781030  2 H  px         
    19     -1.294382  1 Cl px                42     -0.672943  1 Cl dyz        
    65     -0.602790  2 H  py                20      0.438084  1 Cl py         
    34      0.292985  1 Cl dxz               23      0.179343  1 Cl px         
    28      0.103087  1 Cl dxz               36     -0.099161  1 Cl dyz        
 
 Vector   26  Occ=0.000000D+00  E= 4.874677D-01  Symmetry=e
              MO Center=  1.9D-16, -1.0D-15, -8.4D-01, r^2= 3.2D+00
   Bfn.  Coefficient  Atom+Function         Bfn.  Coefficient  Atom+Function  
  ----- ------------  ---------------      ----- ------------  ---------------
    42      1.988308  1 Cl dyz               65      1.781030  2 H  py         
    20     -1.294382  1 Cl py                40      0.672943  1 Cl dxz        
    64      0.602790  2 H  px                19     -0.438084  1 Cl px         
    36      0.292985  1 Cl dyz               24      0.179343  1 Cl py         
    30      0.103087  1 Cl dyz               34      0.099161  1 Cl dxz        
 
 Vector   27  Occ=0.000000D+00  E= 5.293660D-01  Symmetry=a1
              MO Center=  9.2D-16, -1.5D-16, -8.4D-01, r^2= 3.9D+00
   Bfn.  Coefficient  Atom+Function         Bfn.  Coefficient  Atom+Function  
  ----- ------------  ---------------      ----- ------------  ---------------
    22      2.835676  1 Cl s                  6      2.389667  1 Cl s          
    18     -2.167263  1 Cl pz                56     -2.114339  2 H  s          
    66     -1.705128  2 H  pz                25     -1.513486  1 Cl pz         
    57     -1.464221  2 H  s                 43     -1.381870  1 Cl dzz        
    21      1.369272  1 Cl pz                55      1.127337  2 H  s          
 
 Vector   28  Occ=0.000000D+00  E= 8.077126D-01  Symmetry=a1
              MO Center= -3.8D-16, -8.7D-17, -4.4D-01, r^2= 5.3D+00
   Bfn.  Coefficient  Atom+Function         Bfn.  Coefficient  Atom+Function  
  ----- ------------  ---------------      ----- ------------  ---------------
    56      9.157329  2 H  s                  6     -6.029393  1 Cl s          
    21      5.386327  1 Cl pz                66      4.429281  2 H  pz         
    18      4.334097  1 Cl pz                43     -4.309861  1 Cl dzz        
    55      4.229452  2 H  s                 46     -1.114619  1 Cl fxxz       
    51     -1.114619  1 Cl fyyz              53     -1.104804  1 Cl fzzz       
 
 Vector   29  Occ=0.000000D+00  E= 1.035499D+00  Symmetry=e
              MO Center= -4.7D-15, -1.8D-15,  1.1D-01, r^2= 1.6D+00
   Bfn.  Coefficient  Atom+Function         Bfn.  Coefficient  Atom+Function  
  ----- ------------  ---------------      ----- ------------  ---------------
    40      1.667603  1 Cl dxz               34     -1.439009  1 Cl dxz        
    42      0.616441  1 Cl dyz               36     -0.531940  1 Cl dyz        
    64      0.333586  2 H  px                28     -0.277155  1 Cl dxz        
    61      0.276319  2 H  px                16     -0.217230  1 Cl px         
    19     -0.214429  1 Cl px                49      0.153970  1 Cl fxzz       
 
 Vector   30  Occ=0.000000D+00  E= 1.035499D+00  Symmetry=e
              MO Center=  2.2D-17,  1.0D-16,  1.1D-01, r^2= 1.6D+00
   Bfn.  Coefficient  Atom+Function         Bfn.  Coefficient  Atom+Function  
  ----- ------------  ---------------      ----- ------------  ---------------
    42      1.667603  1 Cl dyz               36     -1.439009  1 Cl dyz        
    40     -0.616441  1 Cl dxz               34      0.531940  1 Cl dxz        
    65      0.333586  2 H  py                30     -0.277155  1 Cl dyz        
    62      0.276319  2 H  py                17     -0.217230  1 Cl py         
    20     -0.214429  1 Cl py                52      0.153970  1 Cl fyzz       
 
 Vector   31  Occ=0.000000D+00  E= 1.045038D+00  Symmetry=a1
              MO Center=  1.1D-16, -6.5D-17, -1.9D-01, r^2= 2.3D+00
   Bfn.  Coefficient  Atom+Function         Bfn.  Coefficient  Atom+Function  
  ----- ------------  ---------------      ----- ------------  ---------------
    22     -1.374636  1 Cl s                 18      1.350778  1 Cl pz         
    21     -1.120466  1 Cl pz                66     -1.097934  2 H  pz         
    38      0.936970  1 Cl dxx               41      0.936970  1 Cl dyy        
    25      0.911729  1 Cl pz                37      0.866175  1 Cl dzz        
    55     -0.785970  2 H  s                 57      0.735060  2 H  s          
 
 Vector   32  Occ=0.000000D+00  E= 1.051945D+00  Symmetry=b1
              MO Center= -2.8D-16, -9.5D-17,  7.0D-02, r^2= 1.3D+00
   Bfn.  Coefficient  Atom+Function         Bfn.  Coefficient  Atom+Function  
  ----- ------------  ---------------      ----- ------------  ---------------
    32      0.838176  1 Cl dxx               35     -0.838176  1 Cl dyy        
    38     -0.620803  1 Cl dxx               41      0.620803  1 Cl dyy        
    26      0.164532  1 Cl dxx               29     -0.164532  1 Cl dyy        
 
 Vector   33  Occ=0.000000D+00  E= 1.051949D+00  Symmetry=b2
              MO Center= -3.5D-16, -1.1D-16,  7.0D-02, r^2= 1.3D+00
   Bfn.  Coefficient  Atom+Function         Bfn.  Coefficient  Atom+Function  
  ----- ------------  ---------------      ----- ------------  ---------------
    33      1.676352  1 Cl dxy               39     -1.241597  1 Cl dxy        
    27      0.329069  1 Cl dxy               48     -0.029108  1 Cl fxyz       
    68      0.025870  2 H  dxy        
 
 Vector   34  Occ=0.000000D+00  E= 1.445354D+00  Symmetry=e
              MO Center=  1.6D-16,  3.0D-17, -8.7D-03, r^2= 2.8D+00
   Bfn.  Coefficient  Atom+Function         Bfn.  Coefficient  Atom+Function  
  ----- ------------  ---------------      ----- ------------  ---------------
    17      6.100864  1 Cl py                16      4.216047  1 Cl px         
    45     -2.453365  1 Cl fxxy              50     -2.453379  1 Cl fyyy       
    52     -2.365880  1 Cl fyzz              14     -2.136474  1 Cl py         
    44     -1.695425  1 Cl fxxx              47     -1.695416  1 Cl fxyy       
    49     -1.634959  1 Cl fxzz              20     -1.550792  1 Cl py         
 
 Vector   35  Occ=0.000000D+00  E= 1.445354D+00  Symmetry=e
              MO Center= -4.2D-17,  1.6D-17, -8.7D-03, r^2= 2.8D+00
   Bfn.  Coefficient  Atom+Function         Bfn.  Coefficient  Atom+Function  
  ----- ------------  ---------------      ----- ------------  ---------------
    16      6.100864  1 Cl px                17     -4.216047  1 Cl py         
    44     -2.453379  1 Cl fxxx              47     -2.453365  1 Cl fxyy       
    49     -2.365880  1 Cl fxzz              13     -2.136474  1 Cl px         
    45      1.695416  1 Cl fxxy              50      1.695425  1 Cl fyyy       
    52      1.634959  1 Cl fyzz              19     -1.550792  1 Cl px         
 
 Vector   36  Occ=0.000000D+00  E= 1.453734D+00  Symmetry=a1
              MO Center=  3.4D-17, -4.6D-17,  2.6D-01, r^2= 3.3D+00
   Bfn.  Coefficient  Atom+Function         Bfn.  Coefficient  Atom+Function  
  ----- ------------  ---------------      ----- ------------  ---------------
     6      7.068207  1 Cl s                 18      2.907242  1 Cl pz         
     5     -2.656975  1 Cl s                 43     -2.534514  1 Cl dzz        
    38     -2.451050  1 Cl dxx               41     -2.451050  1 Cl dyy        
    22      2.000942  1 Cl s                 56      1.719954  2 H  s          
    53     -1.355883  1 Cl fzzz              37     -1.141236  1 Cl dzz        
 
 Vector   37  Occ=0.000000D+00  E= 1.566348D+00  Symmetry=a1
              MO Center=  1.8D-16,  2.3D-19, -3.2D-01, r^2= 2.6D+00
   Bfn.  Coefficient  Atom+Function         Bfn.  Coefficient  Atom+Function  
  ----- ------------  ---------------      ----- ------------  ---------------
    18      8.649019  1 Cl pz                 6     -5.792645  1 Cl s          
    53     -3.401173  1 Cl fzzz              46     -2.964539  1 Cl fxxz       
    51     -2.964539  1 Cl fyyz              15     -2.758139  1 Cl pz         
    22     -2.139232  1 Cl s                  5      1.462150  1 Cl s          
    21     -1.383192  1 Cl pz                38      1.332916  1 Cl dxx        
 
 Vector   38  Occ=0.000000D+00  E= 1.656982D+00  Symmetry=e
              MO Center=  2.6D-17,  7.2D-18, -7.9D-01, r^2= 1.5D+00
   Bfn.  Coefficient  Atom+Function         Bfn.  Coefficient  Atom+Function  
  ----- ------------  ---------------      ----- ------------  ---------------
    17      1.286216  1 Cl py                52     -1.216642  1 Cl fyzz       
    16      1.026181  1 Cl px                49     -0.970672  1 Cl fxzz       
    65      0.840847  2 H  py                62     -0.814785  2 H  py         
    20     -0.688274  1 Cl py                64      0.670852  2 H  px         
    61     -0.650060  2 H  px                42      0.621009  1 Cl dyz        
 
 Vector   39  Occ=0.000000D+00  E= 1.656982D+00  Symmetry=e
              MO Center=  2.7D-17, -3.1D-17, -7.9D-01, r^2= 1.5D+00
   Bfn.  Coefficient  Atom+Function         Bfn.  Coefficient  Atom+Function  
  ----- ------------  ---------------      ----- ------------  ---------------
    16      1.286216  1 Cl px                49     -1.216642  1 Cl fxzz       
    17     -1.026181  1 Cl py                52      0.970672  1 Cl fyzz       
    64      0.840847  2 H  px                61     -0.814785  2 H  px         
    19     -0.688274  1 Cl px                65     -0.670852  2 H  py         
    62      0.650060  2 H  py                40      0.621009  1 Cl dxz        
 
 Vector   40  Occ=0.000000D+00  E= 1.965005D+00  Symmetry=b1
              MO Center=  5.3D-17, -5.5D-17, -3.3D-02, r^2= 9.8D-01
   Bfn.  Coefficient  Atom+Function         Bfn.  Coefficient  Atom+Function  
  ----- ------------  ---------------      ----- ------------  ---------------
    46      1.812595  1 Cl fxxz              51     -1.812595  1 Cl fyyz       
    67     -0.182586  2 H  dxx               70      0.182586  2 H  dyy        
 
 Vector   41  Occ=0.000000D+00  E= 1.965007D+00  Symmetry=b2
              MO Center= -1.9D-16, -1.2D-16, -3.3D-02, r^2= 9.8D-01
   Bfn.  Coefficient  Atom+Function         Bfn.  Coefficient  Atom+Function  
  ----- ------------  ---------------      ----- ------------  ---------------
    48      3.625190  1 Cl fxyz              68     -0.365172  2 H  dxy        
    39      0.040789  1 Cl dxy               33      0.026069  1 Cl dxy        
 
 Vector   42  Occ=0.000000D+00  E= 2.037365D+00  Symmetry=e
              MO Center=  2.1D-16,  3.6D-18,  7.1D-02, r^2= 9.0D-01
   Bfn.  Coefficient  Atom+Function         Bfn.  Coefficient  Atom+Function  
  ----- ------------  ---------------      ----- ------------  ---------------
    45      2.095489  1 Cl fxxy              47     -1.110833  1 Cl fxyy       
    50     -0.698490  1 Cl fyyy              44      0.370275  1 Cl fxxx       
 
 Vector   43  Occ=0.000000D+00  E= 2.037365D+00  Symmetry=e
              MO Center= -3.8D-17, -2.7D-17,  7.1D-02, r^2= 9.0D-01
   Bfn.  Coefficient  Atom+Function         Bfn.  Coefficient  Atom+Function  
  ----- ------------  ---------------      ----- ------------  ---------------
    47      2.095489  1 Cl fxyy              45      1.110833  1 Cl fxxy       
    44     -0.698490  1 Cl fxxx              50     -0.370275  1 Cl fyyy       
 
 Vector   44  Occ=0.000000D+00  E= 2.095456D+00  Symmetry=a1
              MO Center= -1.1D-17, -1.5D-17, -6.4D-01, r^2= 2.7D+00
   Bfn.  Coefficient  Atom+Function         Bfn.  Coefficient  Atom+Function  
  ----- ------------  ---------------      ----- ------------  ---------------
    55      6.636309  2 H  s                 18      5.429039  1 Cl pz         
    56      5.421795  2 H  s                 21      4.172995  1 Cl pz         
    43     -3.974755  1 Cl dzz               66      3.587980  2 H  pz         
     6     -2.673656  1 Cl s                 46     -2.363544  1 Cl fxxz       
    51     -2.363544  1 Cl fyyz              15     -1.637911  1 Cl pz         
 
 Vector   45  Occ=0.000000D+00  E= 2.262713D+00  Symmetry=a1
              MO Center= -8.0D-17,  3.4D-17, -9.3D-01, r^2= 1.8D+00
   Bfn.  Coefficient  Atom+Function         Bfn.  Coefficient  Atom+Function  
  ----- ------------  ---------------      ----- ------------  ---------------
    55      5.994032  2 H  s                 18      2.656915  1 Cl pz         
     6     -1.837503  1 Cl s                 21      1.704044  1 Cl pz         
    54     -1.705213  2 H  s                 43     -1.425610  1 Cl dzz        
    53     -1.203022  1 Cl fzzz              72     -1.122731  2 H  dzz        
    66      1.060996  2 H  pz                63      0.667134  2 H  pz         
 
 Vector   46  Occ=0.000000D+00  E= 2.327234D+00  Symmetry=e
              MO Center=  1.8D-16, -1.1D-17, -3.7D-01, r^2= 1.3D+00
   Bfn.  Coefficient  Atom+Function         Bfn.  Coefficient  Atom+Function  
  ----- ------------  ---------------      ----- ------------  ---------------
    52      2.015071  1 Cl fyzz              62     -0.812559  2 H  py         
    45     -0.770744  1 Cl fxxy              50     -0.770729  1 Cl fyyy       
    17      0.554468  1 Cl py                71      0.341381  2 H  dyz        
    42     -0.241428  1 Cl dyz               65      0.240274  2 H  py         
    14     -0.203200  1 Cl py                49     -0.126116  1 Cl fxzz       
 
 Vector   47  Occ=0.000000D+00  E= 2.327234D+00  Symmetry=e
              MO Center=  1.4D-17, -3.9D-17, -3.7D-01, r^2= 1.3D+00
   Bfn.  Coefficient  Atom+Function         Bfn.  Coefficient  Atom+Function  
  ----- ------------  ---------------      ----- ------------  ---------------
    49      2.015071  1 Cl fxzz              61     -0.812559  2 H  px         
    44     -0.770729  1 Cl fxxx              47     -0.770744  1 Cl fxyy       
    16      0.554468  1 Cl px                69      0.341381  2 H  dxz        
    40     -0.241428  1 Cl dxz               64      0.240274  2 H  px         
    13     -0.203200  1 Cl px                52      0.126116  1 Cl fyzz       
 
 Vector   48  Occ=0.000000D+00  E= 2.807076D+00  Symmetry=a1
              MO Center= -1.2D-17, -3.7D-18, -1.7D-01, r^2= 1.6D+00
   Bfn.  Coefficient  Atom+Function         Bfn.  Coefficient  Atom+Function  
  ----- ------------  ---------------      ----- ------------  ---------------
    18      4.402177  1 Cl pz                 6     -3.548321  1 Cl s          
    46     -2.974480  1 Cl fxxz              51     -2.974480  1 Cl fyyz       
    55      2.046464  2 H  s                 63      1.745876  2 H  pz         
    15     -0.996638  1 Cl pz                38      0.982071  1 Cl dxx        
    41      0.982071  1 Cl dyy                5      0.853487  1 Cl s          
 
 Vector   49  Occ=0.000000D+00  E= 3.128440D+00  Symmetry=b2
              MO Center= -1.4D-16,  7.2D-17, -1.1D+00, r^2= 7.5D-01
   Bfn.  Coefficient  Atom+Function         Bfn.  Coefficient  Atom+Function  
  ----- ------------  ---------------      ----- ------------  ---------------
    68      1.745852  2 H  dxy               48      1.583938  1 Cl fxyz       
    39     -0.214970  1 Cl dxy               27     -0.058587  1 Cl dxy        
 
 Vector   50  Occ=0.000000D+00  E= 3.128440D+00  Symmetry=b1
              MO Center=  2.2D-17, -3.7D-17, -1.1D+00, r^2= 7.5D-01
   Bfn.  Coefficient  Atom+Function         Bfn.  Coefficient  Atom+Function  
  ----- ------------  ---------------      ----- ------------  ---------------
    67      0.872926  2 H  dxx               70     -0.872926  2 H  dyy        
    46      0.791969  1 Cl fxxz              51     -0.791969  1 Cl fyyz       
    38     -0.107486  1 Cl dxx               41      0.107486  1 Cl dyy        
    26     -0.029292  1 Cl dxx               29      0.029292  1 Cl dyy        
 
 Vector   51  Occ=0.000000D+00  E= 3.704060D+00  Symmetry=e
              MO Center=  7.2D-18, -3.4D-18, -7.4D-01, r^2= 1.2D+00
   Bfn.  Coefficient  Atom+Function         Bfn.  Coefficient  Atom+Function  
  ----- ------------  ---------------      ----- ------------  ---------------
    17      3.205513  1 Cl py                45     -1.986117  1 Cl fxxy       
    50     -1.986113  1 Cl fyyy              71     -1.791538  2 H  dyz        
    16     -1.019886  1 Cl px                42     -0.678286  1 Cl dyz        
    44      0.631914  1 Cl fxxx              47      0.631915  1 Cl fxyy       
    69      0.570007  2 H  dxz               30     -0.442903  1 Cl dyz        
 
 Vector   52  Occ=0.000000D+00  E= 3.704060D+00  Symmetry=e
              MO Center= -1.0D-18, -3.3D-18, -7.4D-01, r^2= 1.2D+00
   Bfn.  Coefficient  Atom+Function         Bfn.  Coefficient  Atom+Function  
  ----- ------------  ---------------      ----- ------------  ---------------
    16      3.205513  1 Cl px                44     -1.986113  1 Cl fxxx       
    47     -1.986117  1 Cl fxyy              69     -1.791538  2 H  dxz        
    17      1.019886  1 Cl py                40     -0.678286  1 Cl dxz        
    45     -0.631915  1 Cl fxxy              50     -0.631914  1 Cl fyyy       
    71     -0.570007  2 H  dyz               28     -0.442903  1 Cl dxz        
 
 Vector   53  Occ=0.000000D+00  E= 3.947368D+00  Symmetry=e
              MO Center=  2.8D-16,  8.4D-16,  8.3D-03, r^2= 1.4D+00
   Bfn.  Coefficient  Atom+Function         Bfn.  Coefficient  Atom+Function  
  ----- ------------  ---------------      ----- ------------  ---------------
    17      6.635327  1 Cl py                52     -4.559305  1 Cl fyzz       
    45     -3.825570  1 Cl fxxy              50     -3.825568  1 Cl fyyy       
    16      2.214560  1 Cl px                49     -1.521681  1 Cl fxzz       
    44     -1.276794  1 Cl fxxx              47     -1.276795  1 Cl fxyy       
    20     -1.093977  1 Cl py                71      0.747361  2 H  dyz        
 
 Vector   54  Occ=0.000000D+00  E= 3.947368D+00  Symmetry=e
              MO Center= -2.0D-18,  6.0D-18,  8.3D-03, r^2= 1.4D+00
   Bfn.  Coefficient  Atom+Function         Bfn.  Coefficient  Atom+Function  
  ----- ------------  ---------------      ----- ------------  ---------------
    16      6.635327  1 Cl px                49     -4.559305  1 Cl fxzz       
    44     -3.825568  1 Cl fxxx              47     -3.825570  1 Cl fxyy       
    17     -2.214560  1 Cl py                52      1.521681  1 Cl fyzz       
    45      1.276795  1 Cl fxxy              50      1.276794  1 Cl fyyy       
    19     -1.093977  1 Cl px                69      0.747361  2 H  dxz        
 
 Vector   55  Occ=0.000000D+00  E= 3.992964D+00  Symmetry=a1
              MO Center= -7.4D-19,  2.2D-18,  2.2D-01, r^2= 1.6D+00
   Bfn.  Coefficient  Atom+Function         Bfn.  Coefficient  Atom+Function  
  ----- ------------  ---------------      ----- ------------  ---------------
    18      6.741064  1 Cl pz                53     -4.436635  1 Cl fzzz       
    46     -3.875400  1 Cl fxxz              51     -3.875400  1 Cl fyyz       
     6      2.910377  1 Cl s                  5      2.453926  1 Cl s          
    32     -1.648557  1 Cl dxx               35     -1.648557  1 Cl dyy        
    55     -1.555299  2 H  s                 37     -0.976067  1 Cl dzz        
 
 Vector   56  Occ=0.000000D+00  E= 4.117472D+00  Symmetry=a1
              MO Center= -2.2D-18, -8.3D-19, -6.8D-01, r^2= 1.0D+00
   Bfn.  Coefficient  Atom+Function         Bfn.  Coefficient  Atom+Function  
  ----- ------------  ---------------      ----- ------------  ---------------
    18      7.072516  1 Cl pz                 6     -5.954218  1 Cl s          
     5     -3.685184  1 Cl s                 46     -3.528798  1 Cl fxxz       
    51     -3.528798  1 Cl fyyz              53     -3.282140  1 Cl fzzz       
    55      3.048895  2 H  s                 32      2.329501  1 Cl dxx        
    35      2.329501  1 Cl dyy               37      1.996418  1 Cl dzz        
 
 Vector   57  Occ=0.000000D+00  E= 4.471250D+00  Symmetry=a1
              MO Center= -1.6D-17, -3.4D-18, -4.9D-01, r^2= 1.8D+00
   Bfn.  Coefficient  Atom+Function         Bfn.  Coefficient  Atom+Function  
  ----- ------------  ---------------      ----- ------------  ---------------
    55      5.959793  2 H  s                  5      4.399465  1 Cl s          
    37     -3.843935  1 Cl dzz               43     -3.326882  1 Cl dzz        
    32     -3.288810  1 Cl dxx               35     -3.288810  1 Cl dyy        
     6      2.990429  1 Cl s                 56      2.738634  2 H  s          
    21      2.655462  1 Cl pz                18      2.630532  1 Cl pz         
 
 Vector   58  Occ=0.000000D+00  E= 4.641458D+00  Symmetry=a1
              MO Center=  1.5D-18,  1.0D-17, -8.8D-01, r^2= 9.7D-01
   Bfn.  Coefficient  Atom+Function         Bfn.  Coefficient  Atom+Function  
  ----- ------------  ---------------      ----- ------------  ---------------
    55      4.092505  2 H  s                 18      3.594672  1 Cl pz         
    53     -2.444500  1 Cl fzzz               6     -2.370031  1 Cl s          
    72     -2.268298  2 H  dzz                5     -1.737649  1 Cl s          
    37      1.701161  1 Cl dzz               46     -1.558872  1 Cl fxxz       
    51     -1.558872  1 Cl fyyz              67     -1.116365  2 H  dxx        
 
 Vector   59  Occ=0.000000D+00  E= 5.073356D+00  Symmetry=b1
              MO Center= -2.4D-17,  7.8D-17,  6.7D-02, r^2= 4.1D-01
   Bfn.  Coefficient  Atom+Function         Bfn.  Coefficient  Atom+Function  
  ----- ------------  ---------------      ----- ------------  ---------------
    26      0.972828  1 Cl dxx               29     -0.972828  1 Cl dyy        
    32     -0.698611  1 Cl dxx               35      0.698611  1 Cl dyy        
    38      0.223744  1 Cl dxx               41     -0.223744  1 Cl dyy        
    67      0.037776  2 H  dxx               70     -0.037776  2 H  dyy        
 
 Vector   60  Occ=0.000000D+00  E= 5.073369D+00  Symmetry=b2
              MO Center= -4.2D-17, -2.0D-17,  6.7D-02, r^2= 4.1D-01
   Bfn.  Coefficient  Atom+Function         Bfn.  Coefficient  Atom+Function  
  ----- ------------  ---------------      ----- ------------  ---------------
    27      1.945655  1 Cl dxy               33     -1.397225  1 Cl dxy        
    39      0.447490  1 Cl dxy               68      0.075554  2 H  dxy        
    48      0.038234  1 Cl fxyz       
 
 Vector   61  Occ=0.000000D+00  E= 5.341988D+00  Symmetry=e
              MO Center= -2.4D-18, -2.0D-17, -8.1D-02, r^2= 5.3D-01
   Bfn.  Coefficient  Atom+Function         Bfn.  Coefficient  Atom+Function  
  ----- ------------  ---------------      ----- ------------  ---------------
    28      1.880378  1 Cl dxz               34     -1.671280  1 Cl dxz        
    69     -0.814066  2 H  dxz               49      0.750324  1 Cl fxzz       
    40      0.389833  1 Cl dxz               61     -0.260044  2 H  px         
    30      0.231623  1 Cl dyz               36     -0.205867  1 Cl dyz        
    16      0.110376  1 Cl px                71     -0.100276  2 H  dyz        
 
 Vector   62  Occ=0.000000D+00  E= 5.341988D+00  Symmetry=e
              MO Center= -1.0D-16,  5.9D-17, -8.1D-02, r^2= 5.3D-01
   Bfn.  Coefficient  Atom+Function         Bfn.  Coefficient  Atom+Function  
  ----- ------------  ---------------      ----- ------------  ---------------
    30      1.880378  1 Cl dyz               36     -1.671280  1 Cl dyz        
    71     -0.814066  2 H  dyz               52      0.750324  1 Cl fyzz       
    42      0.389833  1 Cl dyz               62     -0.260044  2 H  py         
    28     -0.231623  1 Cl dxz               34      0.205867  1 Cl dxz        
    17      0.110376  1 Cl py                69      0.100276  2 H  dxz        
 
 Vector   63  Occ=0.000000D+00  E= 6.665229D+00  Symmetry=a1
              MO Center= -2.5D-18,  1.6D-18, -2.5D-01, r^2= 6.8D-01
   Bfn.  Coefficient  Atom+Function         Bfn.  Coefficient  Atom+Function  
  ----- ------------  ---------------      ----- ------------  ---------------
    37      3.756670  1 Cl dzz               53     -2.865629  1 Cl fzzz       
     5     -2.433575  1 Cl s                 63     -2.371447  2 H  pz         
    72     -2.020882  2 H  dzz               31     -0.908012  1 Cl dzz        
     6      0.755207  1 Cl s                 26      0.726604  1 Cl dxx        
    29      0.726604  1 Cl dyy               55     -0.627244  2 H  s          
 
 Vector   64  Occ=0.000000D+00  E= 8.506083D+00  Symmetry=e
              MO Center= -1.4D-16,  5.0D-18, -1.2D+00, r^2= 2.9D-01
   Bfn.  Coefficient  Atom+Function         Bfn.  Coefficient  Atom+Function  
  ----- ------------  ---------------      ----- ------------  ---------------
    59      1.278894  2 H  py                62     -0.971486  2 H  py         
    65      0.355892  2 H  py                36     -0.324649  1 Cl dyz        
    17      0.298853  1 Cl py                52      0.299912  1 Cl fyzz       
    71     -0.229640  2 H  dyz               45     -0.180579  1 Cl fxxy       
    50     -0.180579  1 Cl fyyy              20     -0.161620  1 Cl py         
 
 Vector   65  Occ=0.000000D+00  E= 8.506083D+00  Symmetry=e
              MO Center= -6.0D-18, -3.1D-17, -1.2D+00, r^2= 2.9D-01
   Bfn.  Coefficient  Atom+Function         Bfn.  Coefficient  Atom+Function  
  ----- ------------  ---------------      ----- ------------  ---------------
    58      1.278894  2 H  px                61     -0.971486  2 H  px         
    64      0.355892  2 H  px                34     -0.324649  1 Cl dxz        
    16      0.298853  1 Cl px                49      0.299912  1 Cl fxzz       
    69     -0.229640  2 H  dxz               44     -0.180579  1 Cl fxxx       
    47     -0.180579  1 Cl fxyy              19     -0.161620  1 Cl px         
 
 Vector   66  Occ=0.000000D+00  E= 9.346318D+00  Symmetry=a1
              MO Center= -1.8D-19, -1.6D-19, -1.1D+00, r^2= 4.6D-01
   Bfn.  Coefficient  Atom+Function         Bfn.  Coefficient  Atom+Function  
  ----- ------------  ---------------      ----- ------------  ---------------
    63      2.663377  2 H  pz                37     -2.205320  1 Cl dzz        
    55      1.813452  2 H  s                  5      1.785774  1 Cl s          
    60     -1.435931  2 H  pz                53      1.253682  1 Cl fzzz       
    72      1.168124  2 H  dzz                6     -1.153825  1 Cl s          
    18      0.853841  1 Cl pz                26     -0.373696  1 Cl dxx        
 
 Vector   67  Occ=0.000000D+00  E= 1.118800D+01  Symmetry=a1
              MO Center= -5.4D-18,  9.2D-19,  5.5D-02, r^2= 6.5D-01
   Bfn.  Coefficient  Atom+Function         Bfn.  Coefficient  Atom+Function  
  ----- ------------  ---------------      ----- ------------  ---------------
     5     14.312578  1 Cl s                 37     -5.522083  1 Cl dzz        
    32     -5.330397  1 Cl dxx               35     -5.330397  1 Cl dyy        
     6      3.989612  1 Cl s                 26     -3.261728  1 Cl dxx        
    29     -3.261728  1 Cl dyy               31     -3.197086  1 Cl dzz        
     3     -1.800233  1 Cl s                 43     -1.381886  1 Cl dzz        
 
 Vector   68  Occ=0.000000D+00  E= 2.807645D+01  Symmetry=a1
              MO Center=  1.5D-18, -1.8D-18,  7.2D-02, r^2= 2.6D-01
   Bfn.  Coefficient  Atom+Function         Bfn.  Coefficient  Atom+Function  
  ----- ------------  ---------------      ----- ------------  ---------------
     4     13.737914  1 Cl s                  5     11.902178  1 Cl s          
     3    -10.891495  1 Cl s                 26     -6.008819  1 Cl dxx        
    29     -6.008819  1 Cl dyy               31     -5.984590  1 Cl dzz        
    37     -4.014502  1 Cl dzz               32     -3.911101  1 Cl dxx        
    35     -3.911101  1 Cl dyy                6      2.109413  1 Cl s          
 
 Vector   69  Occ=0.000000D+00  E= 3.189921D+01  Symmetry=e
              MO Center= -1.2D-17, -1.1D-17,  7.3D-02, r^2= 4.1D-01
   Bfn.  Coefficient  Atom+Function         Bfn.  Coefficient  Atom+Function  
  ----- ------------  ---------------      ----- ------------  ---------------
    16     -3.213209  1 Cl px                 7      3.111714  1 Cl px         
    10      3.001843  1 Cl px                17     -2.792533  1 Cl py         
     8      2.704326  1 Cl py                11      2.608839  1 Cl py         
    49      2.192314  1 Cl fxzz              44      2.163054  1 Cl fxxx       
    47      2.163054  1 Cl fxyy              52      1.905294  1 Cl fyzz       
 
 Vector   70  Occ=0.000000D+00  E= 3.189921D+01  Symmetry=e
              MO Center= -4.8D-19, -2.1D-18,  7.3D-02, r^2= 4.1D-01
   Bfn.  Coefficient  Atom+Function         Bfn.  Coefficient  Atom+Function  
  ----- ------------  ---------------      ----- ------------  ---------------
    17     -3.213209  1 Cl py                 8      3.111714  1 Cl py         
    11      3.001843  1 Cl py                16      2.792533  1 Cl px         
     7     -2.704326  1 Cl px                10     -2.608839  1 Cl px         
    52      2.192314  1 Cl fyzz              45      2.163054  1 Cl fxxy       
    50      2.163054  1 Cl fyyy              49     -1.905294  1 Cl fxzz       
 
 Vector   71  Occ=0.000000D+00  E= 3.240783D+01  Symmetry=a1
              MO Center=  1.2D-20,  8.8D-21,  7.1D-02, r^2= 3.9D-01
   Bfn.  Coefficient  Atom+Function         Bfn.  Coefficient  Atom+Function  
  ----- ------------  ---------------      ----- ------------  ---------------
    18      5.510185  1 Cl pz                 9     -4.183003  1 Cl pz         
    12     -4.021222  1 Cl pz                53     -3.383865  1 Cl fzzz       
    46     -3.342017  1 Cl fxxz              51     -3.342017  1 Cl fyyz       
    15      1.536246  1 Cl pz                55      0.954295  2 H  s          
     6     -0.947403  1 Cl s                 56      0.870690  2 H  s          
 
 Vector   72  Occ=0.000000D+00  E= 2.478382D+02  Symmetry=a1
              MO Center= -1.7D-21,  2.0D-20,  7.0D-02, r^2= 3.5D-02
   Bfn.  Coefficient  Atom+Function         Bfn.  Coefficient  Atom+Function  
  ----- ------------  ---------------      ----- ------------  ---------------
     4      6.659636  1 Cl s                  3     -5.822418  1 Cl s          
     5      4.051916  1 Cl s                 26     -2.426617  1 Cl dxx        
    29     -2.426617  1 Cl dyy               31     -2.417642  1 Cl dzz        
     2      2.313868  1 Cl s                  1     -1.624286  1 Cl s          
    37     -1.391029  1 Cl dzz               32     -1.348407  1 Cl dxx        
 

 center of mass
 --------------
 x =   0.00000000 y =   0.00000000 z =   0.06661955

 moments of inertia (a.u.)
 ------------------
           5.731251853562           0.000000000000           0.000000000000
           0.000000000000           5.731251853562           0.000000000000
           0.000000000000           0.000000000000           0.000000000000
 
     Multipole analysis of the density
     ---------------------------------
 
     L   x y z        total         alpha         beta         nuclear
     -   - - -        -----         -----         ----         -------
     0   0 0 0     -0.000000     -9.000000     -9.000000     18.000000
 
     1   1 0 0      0.000000      0.000000      0.000000      0.000000
     1   0 1 0      0.000000      0.000000      0.000000      0.000000
     1   0 0 1     -0.429107     -0.214554     -0.214554     -0.000000
 
     2   2 0 0    -10.426327     -5.213164     -5.213164      0.000000
     2   1 1 0      0.000000      0.000000      0.000000      0.000000
     2   1 0 1      0.000000      0.000000      0.000000      0.000000
     2   0 2 0    -10.426327     -5.213164     -5.213164      0.000000
     2   0 1 1      0.000000      0.000000      0.000000      0.000000
     2   0 0 2     -7.791270     -6.658442     -6.658442      5.525613
 

 Parallel integral file used      30 records with       0 large values


 Task  times  cpu:        1.3s     wall:        2.4s
 
 
                                NWChem Input Module
                                -------------------
 
 
 Summary of allocated global arrays
-----------------------------------
  No active global arrays



                         GA Statistics for process    0
                         ------------------------------

       create   destroy   get      put      acc     scatter   gather  read&inc
calls:  241      241     1342      884      345        0        0      142     
number of processes/call 2.37e+00 1.50e+00 4.12e+00 0.00e+00 0.00e+00
bytes total:             1.45e+07 3.51e+06 9.39e+06 0.00e+00 0.00e+00 1.14e+03
bytes remote:            6.31e+06 6.74e+05 3.54e+06 0.00e+00 0.00e+00 0.00e+00
Max memory consumed for GA by this process: 824520 bytes
 
MA_summarize_allocated_blocks: starting scan ...
MA_summarize_allocated_blocks: scan completed: 0 heap blocks, 0 stack blocks
MA usage statistics:

	allocation statistics:
					      heap	     stack
					      ----	     -----
	current number of blocks	         0	         0
	maximum number of blocks	        22	        57
	current total bytes		         0	         0
	maximum total bytes		   1893936	  22512664
	maximum total K-bytes		      1894	     22513
	maximum total M-bytes		         2	        23
 
 
                                     CITATION
                                     --------
                Please cite the following reference when publishing
                           results obtained with NWChem:
 
                 M. Valiev, E.J. Bylaska, N. Govind, K. Kowalski,
              T.P. Straatsma, H.J.J. van Dam, D. Wang, J. Nieplocha,
                        E. Apra, T.L. Windus, W.A. de Jong
                 "NWChem: a comprehensive and scalable open-source
                  solution for large scale molecular simulations"
                      Comput. Phys. Commun. 181, 1477 (2010)
                           doi:10.1016/j.cpc.2010.04.018
 
                                      AUTHORS
                                      -------
          E. Apra, E. J. Bylaska, W. A. de Jong, N. Govind, K. Kowalski,
       T. P. Straatsma, M. Valiev, H. J. J. van Dam, D. Wang, T. L. Windus,
        J. Hammond, J. Autschbach, K. Bhaskaran-Nair, J. Brabec, K. Lopata,
    S. A. Fischer, S. Krishnamoorthy, M. Jacquelin, W. Ma, M. Klemm, O. Villa,
      Y. Chen, V. Anisimov, F. Aquino, S. Hirata, M. T. Hackler, V. Konjkov,
            D. Mejia-Rodriguez, T. Risthaus, M. Malagoli, A. Marenich,
   A. Otero-de-la-Roza, J. Mullin, P. Nichols, R. Peverati, J. Pittner, Y. Zhao,
        P.-D. Fan, A. Fonari, M. J. Williamson, R. J. Harrison, J. R. Rehr,
      M. Dupuis, D. Silverstein, D. M. A. Smith, J. Nieplocha, V. Tipparaju,
    M. Krishnan, B. E. Van Kuiken, A. Vazquez-Mayagoitia, L. Jensen, M. Swart,
      Q. Wu, T. Van Voorhis, A. A. Auer, M. Nooijen, L. D. Crosby, E. Brown,
      G. Cisneros, G. I. Fann, H. Fruchtl, J. Garza, K. Hirao, R. A. Kendall,
      J. A. Nichols, K. Tsemekhman, K. Wolinski, J. Anchell, D. E. Bernholdt,
      P. Borowski, T. Clark, D. Clerc, H. Dachsel, M. J. O. Deegan, K. Dyall,
    D. Elwood, E. Glendening, M. Gutowski, A. C. Hess, J. Jaffe, B. G. Johnson,
     J. Ju, R. Kobayashi, R. Kutteh, Z. Lin, R. Littlefield, X. Long, B. Meng,
      T. Nakajima, S. Niu, L. Pollack, M. Rosing, K. Glaesemann, G. Sandrone,
      M. Stave, H. Taylor, G. Thomas, J. H. van Lenthe, A. T. Wong, Z. Zhang.

 Total times  cpu:        1.3s     wall:        2.6s
