 argument  1 = /storage/home/rabeet/work/nwc/pa8/nwtpss/NH3+.xyz.nw
  NWChem w/ OpenMP: maximum threads =  1
                                         
                                         
 
 
              Northwest Computational Chemistry Package (NWChem) 6.8
              ------------------------------------------------------
 
 
                    Environmental Molecular Sciences Laboratory
                       Pacific Northwest National Laboratory
                                Richland, WA 99352
 
                              Copyright (c) 1994-2018
                       Pacific Northwest National Laboratory
                            Battelle Memorial Institute
 
             NWChem is an open-source computational chemistry package
                        distributed under the terms of the
                      Educational Community License (ECL) 2.0
             A copy of the license is included with this distribution
                              in the LICENSE.TXT file
 
                                  ACKNOWLEDGMENT
                                  --------------

            This software and its documentation were developed at the
            EMSL at Pacific Northwest National Laboratory, a multiprogram
            national laboratory, operated for the U.S. Department of Energy
            by Battelle under Contract Number DE-AC05-76RL01830. Support
            for this work was provided by the Department of Energy Office
            of Biological and Environmental Research, Office of Basic
            Energy Sciences, and the Office of Advanced Scientific Computing.


           Job information
           ---------------

    hostname        = r8n4.niserhpc.org
    program         = /home/rabeet/nwchem-6.8/bin/LINUX64/nwchem
    date            = Sun Oct 27 10:45:45 2019

    compiled        = Fri_Jun_28_18:24:12_2019
    source          = /home/rabeet/nwchem-6.8
    nwchem branch   = Development
    nwchem revision = N/A
    ga revision     = 5.6.5
    use scalapack   = T
    input           = /storage/home/rabeet/work/nwc/pa8/nwtpss/NH3+.xyz.nw
    prefix          = NH3+.xyz.
    data base       = ./NH3+.xyz.db
    status          = startup
    nproc           =       16
    time left       =     -1s



           Memory information
           ------------------

    heap     =   13107196 doubles =    100.0 Mbytes
    stack    =   13107201 doubles =    100.0 Mbytes
    global   =   26214400 doubles =    200.0 Mbytes (distinct from heap & stack)
    total    =   52428797 doubles =    400.0 Mbytes
    verify   = yes
    hardfail = no 


           Directory information
           ---------------------
 
  0 permanent = .
  0 scratch   = .
 
 
 
 
                                NWChem Input Module
                                -------------------
 
 

 Scaling coordinates for geometry "geometry" by  1.889725989
 (inverse scale =  0.529177249)

 TD  symmetry detected

          ------
          auto-z
          ------
  Looking for out-of-plane bends
  no constraints, skipping   0.000000000000000E+000
  no constraints, skipping   0.000000000000000E+000
 
 
                             Geometry "geometry" -> ""
                             -------------------------
 
 Output coordinates in angstroms (scale by  1.889725989 to convert to a.u.)
 
  No.       Tag          Charge          X              Y              Z
 ---- ---------------- ---------- -------------- -------------- --------------
    1 N                    7.0000     0.00000000     0.00000000     0.00000000
    2 H                    1.0000     0.59382114     0.59382114     0.59382114
    3 H                    1.0000    -0.59382114    -0.59382114     0.59382114
    4 H                    1.0000     0.59382114    -0.59382114    -0.59382114
    5 H                    1.0000    -0.59382114     0.59382114    -0.59382114
 
      Atomic Mass 
      ----------- 
 
      N                 14.003070
      H                  1.007825
 

 Effective nuclear repulsion energy (a.u.)      16.2963750822

            Nuclear Dipole moment (a.u.) 
            ----------------------------
        X                 Y               Z
 ---------------- ---------------- ----------------
     0.0000000000     0.0000000000     0.0000000000
 
      Symmetry information
      --------------------
 
 Group name              Td       
 Group number             42
 Group order              24
 No. of unique centers     2
 
      Symmetry unique atoms
 
     1    2
 


                                Z-matrix (autoz)
                                -------- 

 Units are Angstrom for bonds and degrees for angles
 
      Type          Name      I     J     K     L     M      Value
      ----------- --------  ----- ----- ----- ----- ----- ----------
    1 Stretch                  1     2                       1.02853
    2 Stretch                  1     3                       1.02853
    3 Stretch                  1     4                       1.02853
    4 Stretch                  1     5                       1.02853
    5 Bend                     2     1     3               109.47122
    6 Bend                     2     1     4               109.47122
    7 Bend                     2     1     5               109.47122
    8 Bend                     3     1     4               109.47122
    9 Bend                     3     1     5               109.47122
   10 Bend                     4     1     5               109.47122
 
 
            XYZ format geometry
            -------------------
     5
 geometry
 N                     0.00000000     0.00000000     0.00000000
 H                     0.59382114     0.59382114     0.59382114
 H                    -0.59382114    -0.59382114     0.59382114
 H                     0.59382114    -0.59382114    -0.59382114
 H                    -0.59382114     0.59382114    -0.59382114
 
 ==============================================================================
                                internuclear distances
 ------------------------------------------------------------------------------
       center one      |      center two      | atomic units |  angstroms
 ------------------------------------------------------------------------------
    2 H                |   1 N                |     1.94364  |     1.02853
    3 H                |   1 N                |     1.94364  |     1.02853
    4 H                |   1 N                |     1.94364  |     1.02853
    5 H                |   1 N                |     1.94364  |     1.02853
 ------------------------------------------------------------------------------
                         number of included internuclear distances:          4
 ==============================================================================



 ==============================================================================
                                 internuclear angles
 ------------------------------------------------------------------------------
        center 1       |       center 2       |       center 3       |  degrees
 ------------------------------------------------------------------------------
    2 H                |   1 N                |   3 H                |   109.47
    2 H                |   1 N                |   4 H                |   109.47
    2 H                |   1 N                |   5 H                |   109.47
    3 H                |   1 N                |   4 H                |   109.47
    3 H                |   1 N                |   5 H                |   109.47
    4 H                |   1 N                |   5 H                |   109.47
 ------------------------------------------------------------------------------
                            number of included internuclear angles:          6
 ==============================================================================





 Summary of "ao basis" -> "" (cartesian)
 ------------------------------------------------------------------------------
       Tag                 Description            Shells   Functions and Types
 ---------------- ------------------------------  ------  ---------------------
 *                     6-311++G(3df,3pd)              on all atoms 


 
                                 NWChem DFT Module
                                 -----------------
 
 
                      Basis "ao basis" -> "ao basis" (cartesian)
                      -----
  N (Nitrogen)
  ------------
            Exponent  Coefficients 
       -------------- ---------------------------------------------------------
  1 S  6.29348000E+03  0.001970
  1 S  9.49044000E+02  0.014961
  1 S  2.18776000E+02  0.073501
  1 S  6.36916000E+01  0.248937
  1 S  1.88282000E+01  0.602460
  1 S  2.72023000E+00  0.256202
 
  2 S  3.06331000E+01  0.111906
  2 S  7.02614000E+00  0.921666
  2 S  2.11205000E+00 -0.002569
 
  3 P  3.06331000E+01  0.038312
  3 P  7.02614000E+00  0.237403
  3 P  2.11205000E+00  0.817592
 
  4 S  6.84009000E-01  1.000000
 
  5 P  6.84009000E-01  1.000000
 
  6 S  2.00878000E-01  1.000000
 
  7 P  2.00878000E-01  1.000000
 
  8 S  6.39000000E-02  1.000000
 
  9 P  6.39000000E-02  1.000000
 
 10 D  3.65200000E+00  1.000000
 
 11 D  9.13000000E-01  1.000000
 
 12 D  2.28250000E-01  1.000000
 
 13 F  1.00000000E+00  1.000000
 
  H (Hydrogen)
  ------------
            Exponent  Coefficients 
       -------------- ---------------------------------------------------------
  1 S  3.38650000E+01  0.025494
  1 S  5.09479000E+00  0.190373
  1 S  1.15879000E+00  0.852161
 
  2 S  3.25840000E-01  1.000000
 
  3 S  1.02741000E-01  1.000000
 
  4 S  3.60000000E-02  1.000000
 
  5 P  3.00000000E+00  1.000000
 
  6 P  7.50000000E-01  1.000000
 
  7 P  1.87500000E-01  1.000000
 
  8 D  1.00000000E+00  1.000000
 


 Summary of "ao basis" -> "ao basis" (cartesian)
 ------------------------------------------------------------------------------
       Tag                 Description            Shells   Functions and Types
 ---------------- ------------------------------  ------  ---------------------
 N                     6-311++G(3df,3pd)            13       45   5s4p3d1f
 H                     6-311++G(3df,3pd)             8       19   4s3p1d




 Summary of "ao basis" -> "ao basis" (cartesian)
 ------------------------------------------------------------------------------
       Tag                 Description            Shells   Functions and Types
 ---------------- ------------------------------  ------  ---------------------
 N                     6-311++G(3df,3pd)            13       45   5s4p3d1f
 H                     6-311++G(3df,3pd)             8       19   4s3p1d


      Symmetry analysis of basis
      --------------------------
 
        a1         18
        a2          0
        e          16
        t1         18
        t2         69
 
  Caching 1-el integrals 
 
            General Information
            -------------------
          SCF calculation type: DFT
          Wavefunction type:  closed shell.
          No. of atoms     :     5
          No. of electrons :    10
           Alpha electrons :     5
            Beta electrons :     5
          Charge           :     1
          Spin multiplicity:     1
          Use of symmetry is: on ; symmetry adaption is: on 
          Maximum number of iterations: ***
          AO basis - number of functions:   121
                     number of shells:    45
          Convergence on energy requested:  1.00D-06
          Convergence on density requested:  1.00D-05
          Convergence on gradient requested:  5.00D-04
 
              XC Information
              --------------
                  TPSS metaGGA Exchange Functional  1.000          
             TPSS03 metaGGA Correlation Functional  1.000          
 
             Grid Information
             ----------------
          Grid used for XC integration:  medium    
          Radial quadrature: Mura-Knowles        
          Angular quadrature: Lebedev. 
          Tag              B.-S. Rad. Rad. Pts. Rad. Cut. Ang. Pts.
          ---              ---------- --------- --------- ---------
          N                   0.65       49           9.0       434
          H                   0.35       45          11.0       434
          Grid pruning is: on 
          Number of quadrature shells:    94
          Spatial weights used:  Erf1
 
          Convergence Information
          -----------------------
          Convergence aids based upon iterative change in 
          total energy or number of iterations. 
          Levelshifting, if invoked, occurs when the 
          HOMO/LUMO gap drops below (HL_TOL):  1.00D-02
          DIIS, if invoked, will attempt to extrapolate 
          using up to (NFOCK): 10 stored Fock matrices.

                    Damping( 0%)  Levelshifting(0.5)       DIIS
                  --------------- ------------------- ---------------
          dE  on:    start            ASAP                start   
          dE off:    2 iters        *** iters           *** iters 

 
      Screening Tolerance Information
      -------------------------------
          Density screening/tol_rho:  1.00D-10
          AO Gaussian exp screening on grid/accAOfunc:  14
          CD Gaussian exp screening on grid/accCDfunc:  20
          XC Gaussian exp screening on grid/accXCfunc:  20
          Schwarz screening/accCoul:  1.00D-08

 
      Superposition of Atomic Density Guess
      -------------------------------------
 
 Sum of atomic energies:         -56.30724068

 Renormalizing density from      11.00 to     10
 
      Non-variational initial energy
      ------------------------------

 Total energy =     -53.136373
 1-e energy   =     -97.360441
 2-e energy   =      27.927693
 HOMO         =      -1.185144
 LUMO         =      -0.294485
 
 
      Symmetry analysis of molecular orbitals - initial
      -------------------------------------------------
 
  Numbering of irreducible representations: 
 
     1 a1          2 a2          3 e           4 t1          5 t2      
 
  Orbital symmetries:
 
     1 a1          2 a1          3 t2          4 t2          5 t2      
     6 a1          7 t2          8 t2          9 t2         10 t2      
    11 t2         12 t2         13 a1         14 t2         15 t2      
 
   Time after variat. SCF:      0.6
   Time prior to 1st pass:      0.6

 Integral file          = ./NH3+.xyz.aoints.00
 Record size in doubles =    65536    No. of integs per rec  =    43688
 Max. records in memory =        4    Max. records in file   =  8902759
 No. of bits per label  =        8    No. of bits per value  =       64


 #quartets = 7.666D+04 #integrals = 4.210D+06 #direct =  0.0% #cached =100.0%


File balance: exchanges=     8  moved=     6  time=   0.0


 Grid_pts file          = ./NH3+.xyz.gridpts.00
 Record size in doubles =  12289        No. of grid_pts per rec  =   3070
 Max. records in memory =      2        Max. recs in file   =    999521


           Memory utilization after 1st SCF pass: 
           Heap Space remaining (MW):       12.82            12816804
          Stack Space remaining (MW):       13.11            13106428

   convergence    iter        energy       DeltaE   RMS-Dens  Diis-err    time
 ---------------- ----- ----------------- --------- --------- ---------  ------
 d= 0,ls=0.0,diis     1    -56.7238602466 -7.30D+01  8.44D-03  2.54D+00     1.6
 d= 0,ls=0.0,diis     2    -56.5365860698  1.87D-01  5.51D-03  3.59D+00     1.7
 d= 0,ls=0.0,diis     3    -56.9244225121 -3.88D-01  3.99D-04  3.67D-02     2.3
 d= 0,ls=0.0,diis     4    -56.9283842456 -3.96D-03  6.24D-05  3.23D-05     2.4
 d= 0,ls=0.0,diis     5    -56.9283860142 -1.77D-06  7.90D-06  2.07D-07     2.6
 d= 0,ls=0.0,diis     6    -56.9283860272 -1.30D-08  3.68D-07  6.07D-10     2.7


         Total DFT energy =      -56.928386027207
      One electron energy =     -104.884032064384
           Coulomb energy =       39.804915401494
          Exchange energy =       -7.825116365465
       Correlation energy =       -0.320528081080
 Nuclear repulsion energy =       16.296375082228

 Numeric. integr. density =       10.000003153317

     Total iterative time =      2.1s


 
                  Occupations of the irreducible representations
                  ----------------------------------------------
 
                     irrep           alpha         beta
                     --------     --------     --------
                     a1                2.0          2.0
                     a2                0.0          0.0
                     e                 0.0          0.0
                     t1                0.0          0.0
                     t2                3.0          3.0
 
 
                       DFT Final Molecular Orbital Analysis
                       ------------------------------------
 
 Vector    1  Occ=2.000000D+00  E=-1.447383D+01  Symmetry=a1
              MO Center= -2.6D-21, -4.6D-22,  2.7D-21, r^2= 2.0D-02
   Bfn.  Coefficient  Atom+Function         Bfn.  Coefficient  Atom+Function  
  ----- ------------  ---------------      ----- ------------  ---------------
     1      0.558011  1 N  s                  2      0.466698  1 N  s          
 
 Vector    2  Occ=2.000000D+00  E=-1.184682D+00  Symmetry=a1
              MO Center=  2.0D-17,  7.4D-18, -4.9D-18, r^2= 6.9D-01
   Bfn.  Coefficient  Atom+Function         Bfn.  Coefficient  Atom+Function  
  ----- ------------  ---------------      ----- ------------  ---------------
     6      0.523497  1 N  s                 10      0.409315  1 N  s          
     2     -0.199508  1 N  s                  1     -0.113265  1 N  s          
    46      0.080282  2 H  s                 65      0.080282  3 H  s          
    84      0.080282  4 H  s                103      0.080282  5 H  s          
    47      0.071210  2 H  s                 66      0.071210  3 H  s          
 
 Vector    3  Occ=2.000000D+00  E=-7.767969D-01  Symmetry=t2
              MO Center= -1.9D-01, -5.6D-02,  6.7D-02, r^2= 8.7D-01
   Bfn.  Coefficient  Atom+Function         Bfn.  Coefficient  Atom+Function  
  ----- ------------  ---------------      ----- ------------  ---------------
     8      0.251398  1 N  py                 9     -0.212578  1 N  pz         
    12      0.188886  1 N  py                 4      0.179401  1 N  py         
    65     -0.169929  3 H  s                 66     -0.162848  3 H  s          
    13     -0.159719  1 N  pz                 5     -0.151698  1 N  pz         
   103      0.123202  5 H  s                104      0.118069  5 H  s          
 
 Vector    4  Occ=2.000000D+00  E=-7.767969D-01  Symmetry=t2
              MO Center=  9.6D-02, -1.2D-01, -1.6D-01, r^2= 8.7D-01
   Bfn.  Coefficient  Atom+Function         Bfn.  Coefficient  Atom+Function  
  ----- ------------  ---------------      ----- ------------  ---------------
     7      0.240199  1 N  px                 8     -0.190207  1 N  py         
    11      0.180471  1 N  px                84      0.180619  4 H  s          
    85      0.173093  4 H  s                  3      0.171409  1 N  px         
    12     -0.142910  1 N  py                 9     -0.141372  1 N  pz         
     4     -0.135734  1 N  py                13     -0.106219  1 N  pz         
 
 Vector    5  Occ=2.000000D+00  E=-7.767969D-01  Symmetry=t2
              MO Center=  9.5D-02,  1.8D-01,  9.7D-02, r^2= 8.7D-01
   Bfn.  Coefficient  Atom+Function         Bfn.  Coefficient  Atom+Function  
  ----- ------------  ---------------      ----- ------------  ---------------
     7      0.225155  1 N  px                 9      0.220647  1 N  pz         
    46      0.178837  2 H  s                 47      0.171386  2 H  s          
    11      0.169168  1 N  px                13      0.165781  1 N  pz         
     3      0.160674  1 N  px                 5      0.157456  1 N  pz         
     8      0.120336  1 N  py               103     -0.102811  5 H  s          
 
 Vector    6  Occ=0.000000D+00  E=-2.461267D-01  Symmetry=a1
              MO Center= -3.2D-16,  1.4D-16,  1.1D-16, r^2= 4.8D+00
   Bfn.  Coefficient  Atom+Function         Bfn.  Coefficient  Atom+Function  
  ----- ------------  ---------------      ----- ------------  ---------------
    10      0.704855  1 N  s                  6      0.363577  1 N  s          
    48     -0.238506  2 H  s                 67     -0.238506  3 H  s          
    86     -0.238506  4 H  s                105     -0.238506  5 H  s          
    14      0.151311  1 N  s                 49     -0.146618  2 H  s          
    68     -0.146618  3 H  s                 87     -0.146618  4 H  s          
 
 Vector    7  Occ=0.000000D+00  E=-1.659352D-01  Symmetry=t2
              MO Center=  2.1D-01,  6.8D-01,  1.1D-01, r^2= 4.7D+00
   Bfn.  Coefficient  Atom+Function         Bfn.  Coefficient  Atom+Function  
  ----- ------------  ---------------      ----- ------------  ---------------
    48      1.072484  2 H  s                 49      1.008604  2 H  s          
   105     -0.864823  5 H  s                106     -0.813312  5 H  s          
    13     -0.451146  1 N  pz                17     -0.426342  1 N  pz         
    86     -0.385382  4 H  s                 87     -0.362428  4 H  s          
    47      0.263929  2 H  s                 11     -0.247946  1 N  px         
 
 Vector    8  Occ=0.000000D+00  E=-1.659352D-01  Symmetry=t2
              MO Center= -4.5D-01, -1.3D-01,  4.0D-01, r^2= 4.9D+00
   Bfn.  Coefficient  Atom+Function         Bfn.  Coefficient  Atom+Function  
  ----- ------------  ---------------      ----- ------------  ---------------
    67      1.066830  3 H  s                 68      1.003286  3 H  s          
   105     -0.684762  5 H  s                106     -0.643975  5 H  s          
    48     -0.637259  2 H  s                 49     -0.599302  2 H  s          
    12      0.477061  1 N  py                16      0.450832  1 N  py         
    66      0.262537  3 H  s                 86      0.255192  4 H  s          
 
 Vector    9  Occ=0.000000D+00  E=-1.659352D-01  Symmetry=t2
              MO Center=  2.4D-01, -5.5D-01, -5.1D-01, r^2= 4.6D+00
   Bfn.  Coefficient  Atom+Function         Bfn.  Coefficient  Atom+Function  
  ----- ------------  ---------------      ----- ------------  ---------------
    86      1.159760  4 H  s                 87      1.090681  4 H  s          
    67     -0.623678  3 H  s                 68     -0.586530  3 H  s          
   105     -0.584693  5 H  s                106     -0.549867  5 H  s          
    11     -0.436050  1 N  px                15     -0.412076  1 N  px         
    85      0.285407  4 H  s                  7     -0.216629  1 N  px         
 
 Vector   10  Occ=0.000000D+00  E=-1.161668D-01  Symmetry=t2
              MO Center= -3.4D-01,  4.6D-01,  4.8D-01, r^2= 5.6D+00
   Bfn.  Coefficient  Atom+Function         Bfn.  Coefficient  Atom+Function  
  ----- ------------  ---------------      ----- ------------  ---------------
    86      2.654330  4 H  s                 15     -1.260902  1 N  px         
   105     -1.106278  5 H  s                 67     -1.063615  3 H  s          
    16      0.924347  1 N  py                17      0.899556  1 N  pz         
    85      0.550465  4 H  s                 11     -0.511921  1 N  px         
    48     -0.484436  2 H  s                 12      0.375281  1 N  py         
 
 Vector   11  Occ=0.000000D+00  E=-1.161668D-01  Symmetry=t2
              MO Center=  6.2D-01,  1.2D-01, -1.6D-01, r^2= 5.7D+00
   Bfn.  Coefficient  Atom+Function         Bfn.  Coefficient  Atom+Function  
  ----- ------------  ---------------      ----- ------------  ---------------
    67      2.386412  3 H  s                105     -1.909417  5 H  s          
    16      1.422783  1 N  py                17     -1.073477  1 N  pz         
    12      0.577644  1 N  py                48     -0.539059  2 H  s          
    66      0.494903  3 H  s                 13     -0.435827  1 N  pz         
   104     -0.395982  5 H  s                 15      0.277177  1 N  px         
 
 Vector   12  Occ=0.000000D+00  E=-1.161668D-01  Symmetry=t2
              MO Center= -2.8D-01, -5.8D-01, -3.1D-01, r^2= 5.7D+00
   Bfn.  Coefficient  Atom+Function         Bfn.  Coefficient  Atom+Function  
  ----- ------------  ---------------      ----- ------------  ---------------
    48      2.588666  2 H  s                105     -1.535164  5 H  s          
    15     -1.259679  1 N  px                17     -1.136634  1 N  pz         
    67     -0.632625  3 H  s                 16     -0.612179  1 N  py         
    47      0.536848  2 H  s                 11     -0.511424  1 N  px         
    13     -0.461469  1 N  pz                86     -0.420877  4 H  s          
 
 Vector   13  Occ=0.000000D+00  E=-5.091886D-02  Symmetry=a1
              MO Center= -1.7D-13,  6.2D-13, -7.3D-13, r^2= 1.4D+01
   Bfn.  Coefficient  Atom+Function         Bfn.  Coefficient  Atom+Function  
  ----- ------------  ---------------      ----- ------------  ---------------
    14      7.144479  1 N  s                 48     -1.231493  2 H  s          
    67     -1.231493  3 H  s                 86     -1.231493  4 H  s          
   105     -1.231493  5 H  s                 49     -0.968834  2 H  s          
    68     -0.968834  3 H  s                 87     -0.968834  4 H  s          
   106     -0.968834  5 H  s                 10      0.737841  1 N  s          
 
 Vector   14  Occ=0.000000D+00  E=-1.114847D-02  Symmetry=t2
              MO Center=  1.4D-01,  7.1D-01,  5.4D-02, r^2= 1.4D+01
   Bfn.  Coefficient  Atom+Function         Bfn.  Coefficient  Atom+Function  
  ----- ------------  ---------------      ----- ------------  ---------------
    49      3.537511  2 H  s                106     -3.170211  5 H  s          
    17     -2.455790  1 N  pz                87     -1.630500  4 H  s          
    68      1.263199  3 H  s                 15     -0.975527  1 N  px         
    48      0.706703  2 H  s                105     -0.633326  5 H  s          
    86     -0.325731  4 H  s                 67      0.252354  3 H  s          
 
 Vector   15  Occ=0.000000D+00  E=-1.114847D-02  Symmetry=t2
              MO Center= -2.9D-01, -6.4D-01,  6.7D-01, r^2= 1.3D+01
   Bfn.  Coefficient  Atom+Function         Bfn.  Coefficient  Atom+Function  
  ----- ------------  ---------------      ----- ------------  ---------------
    68      4.135939  3 H  s                 15      2.246527  1 N  px         
    49     -2.239637  2 H  s                 87     -2.151994  4 H  s          
    16      1.014882  1 N  py                17     -0.970048  1 N  pz         
    67      0.826253  3 H  s                 48     -0.447421  2 H  s          
    86     -0.429912  4 H  s                106      0.255692  5 H  s          
 
 Vector   16  Occ=0.000000D+00  E=-1.114847D-02  Symmetry=t2
              MO Center=  1.5D-01, -6.4D-02, -7.3D-01, r^2= 1.4D+01
   Bfn.  Coefficient  Atom+Function         Bfn.  Coefficient  Atom+Function  
  ----- ------------  ---------------      ----- ------------  ---------------
    87      3.581091  4 H  s                106     -3.161994  5 H  s          
    16      2.439790  1 N  py                49     -1.607438  2 H  s          
    68      1.188340  3 H  s                 15     -1.009617  1 N  px         
    86      0.715409  4 H  s                105     -0.631684  5 H  s          
    48     -0.321124  2 H  s                 67      0.237399  3 H  s          
 
 Vector   17  Occ=0.000000D+00  E= 2.432535D-03  Symmetry=e
              MO Center= -9.2D-15, -2.3D-15, -6.3D-15, r^2= 3.4D+00
   Bfn.  Coefficient  Atom+Function         Bfn.  Coefficient  Atom+Function  
  ----- ------------  ---------------      ----- ------------  ---------------
    58      0.519448  2 H  pz                77      0.519448  3 H  pz         
    96     -0.519448  4 H  pz               115     -0.519448  5 H  pz         
    35     -0.365095  1 N  dzz               56     -0.338789  2 H  px         
    75      0.338789  3 H  px                94     -0.338789  4 H  px         
   113      0.338789  5 H  px                30      0.238119  1 N  dxx        
 
 Vector   18  Occ=0.000000D+00  E= 2.432535D-03  Symmetry=e
              MO Center=  1.3D-14, -7.0D-15, -1.3D-15, r^2= 3.4D+00
   Bfn.  Coefficient  Atom+Function         Bfn.  Coefficient  Atom+Function  
  ----- ------------  ---------------      ----- ------------  ---------------
    57      0.495503  2 H  py                76     -0.495503  3 H  py         
    95     -0.495503  4 H  py               114      0.495503  5 H  py         
    56     -0.404207  2 H  px                75      0.404207  3 H  px         
    94     -0.404207  4 H  px               113      0.404207  5 H  px         
    33     -0.348266  1 N  dyy               30      0.284098  1 N  dxx        
 
 Vector   19  Occ=0.000000D+00  E= 7.200356D-02  Symmetry=a1
              MO Center=  6.9D-14,  2.5D-13,  1.9D-13, r^2= 9.4D+00
   Bfn.  Coefficient  Atom+Function         Bfn.  Coefficient  Atom+Function  
  ----- ------------  ---------------      ----- ------------  ---------------
    14     23.159119  1 N  s                 48     -6.952493  2 H  s          
    67     -6.952493  3 H  s                 86     -6.952493  4 H  s          
   105     -6.952493  5 H  s                 10      4.326454  1 N  s          
    49     -1.098405  2 H  s                 68     -1.098405  3 H  s          
    87     -1.098405  4 H  s                106     -1.098405  5 H  s          
 
 Vector   20  Occ=0.000000D+00  E= 1.355588D-01  Symmetry=t2
              MO Center=  2.9D-01, -1.1D-01,  6.6D-02, r^2= 7.3D+00
   Bfn.  Coefficient  Atom+Function         Bfn.  Coefficient  Atom+Function  
  ----- ------------  ---------------      ----- ------------  ---------------
   105      7.690129  5 H  s                 67     -5.785862  3 H  s          
    17      2.884433  1 N  pz                13      2.835860  1 N  pz         
    48     -2.633335  2 H  s                 16     -1.732468  1 N  py         
    12     -1.703293  1 N  py                31      1.457378  1 N  dxy        
   104      1.158621  5 H  s                113      1.149498  5 H  px         
 
 Vector   21  Occ=0.000000D+00  E= 1.355588D-01  Symmetry=t2
              MO Center=  1.3D-03,  1.4D-01, -5.7D-03, r^2= 7.3D+00
   Bfn.  Coefficient  Atom+Function         Bfn.  Coefficient  Atom+Function  
  ----- ------------  ---------------      ----- ------------  ---------------
    67      6.005831  3 H  s                 86     -5.920256  4 H  s          
    48     -3.847861  2 H  s                105      3.762287  5 H  s          
    15      3.346576  1 N  px                11      3.290220  1 N  px         
    34      1.690879  1 N  dyz               76      0.939634  3 H  py         
    95     -0.931326  4 H  py                66      0.904859  3 H  s          
 
 Vector   22  Occ=0.000000D+00  E= 1.355588D-01  Symmetry=t2
              MO Center= -2.9D-01, -3.4D-02, -6.0D-02, r^2= 7.3D+00
   Bfn.  Coefficient  Atom+Function         Bfn.  Coefficient  Atom+Function  
  ----- ------------  ---------------      ----- ------------  ---------------
    48      7.302035  2 H  s                 86     -6.283250  4 H  s          
    16     -2.957149  1 N  py                12     -2.907351  1 N  py         
    67     -2.348191  3 H  s                 17     -1.697197  1 N  pz         
    13     -1.668616  1 N  pz                32     -1.494118  1 N  dxz        
   105      1.329406  5 H  s                 56     -1.115085  2 H  px         
 
 Vector   23  Occ=0.000000D+00  E= 2.714931D-01  Symmetry=t1
              MO Center= -5.2D-02,  2.5D-01,  8.6D-02, r^2= 4.0D+00
   Bfn.  Coefficient  Atom+Function         Bfn.  Coefficient  Atom+Function  
  ----- ------------  ---------------      ----- ------------  ---------------
    57      0.992743  2 H  py               114     -0.992743  5 H  py         
    58     -0.744898  2 H  pz                77      0.744898  3 H  pz         
    75      0.500691  3 H  px               113     -0.500691  5 H  px         
    96      0.492052  4 H  pz               115     -0.492052  5 H  pz         
    56     -0.247845  2 H  px                94      0.247845  4 H  px         
 
 Vector   24  Occ=0.000000D+00  E= 2.714931D-01  Symmetry=t1
              MO Center=  9.8D-02,  9.8D-03, -5.7D-02, r^2= 4.1D+00
   Bfn.  Coefficient  Atom+Function         Bfn.  Coefficient  Atom+Function  
  ----- ------------  ---------------      ----- ------------  ---------------
    56      0.844185  2 H  px                94     -0.844185  4 H  px         
    96     -0.791418  4 H  pz               115      0.791418  5 H  pz         
    58     -0.647910  2 H  pz                77      0.647910  3 H  pz         
    75      0.595144  3 H  px               113     -0.595144  5 H  px         
    57     -0.196275  2 H  py               114      0.196275  5 H  py         
 
 Vector   25  Occ=0.000000D+00  E= 2.714931D-01  Symmetry=t1
              MO Center= -4.6D-02, -2.6D-01, -2.9D-02, r^2= 4.0D+00
   Bfn.  Coefficient  Atom+Function         Bfn.  Coefficient  Atom+Function  
  ----- ------------  ---------------      ----- ------------  ---------------
    76      1.007333  3 H  py                95     -1.007333  4 H  py         
    75     -0.687207  3 H  px               113      0.687207  5 H  px         
    56      0.550514  2 H  px                94     -0.550514  4 H  px         
    96      0.456819  4 H  pz               115     -0.456819  5 H  pz         
    58     -0.320126  2 H  pz                77      0.320126  3 H  pz         
 
 Vector   26  Occ=0.000000D+00  E= 3.227469D-01  Symmetry=t2
              MO Center=  7.2D-03, -2.6D-01, -1.3D-02, r^2= 6.8D+00
   Bfn.  Coefficient  Atom+Function         Bfn.  Coefficient  Atom+Function  
  ----- ------------  ---------------      ----- ------------  ---------------
    87     -2.494936  4 H  s                 15      2.403803  1 N  px         
    68      2.406414  3 H  s                 17     -1.351139  1 N  pz         
    56     -1.102501  2 H  px               113     -1.092633  5 H  px         
    86      1.079914  4 H  s                 34     -1.069428  1 N  dyz        
    67     -1.041598  3 H  s                 75     -0.905900  3 H  px         
 
 Vector   27  Occ=0.000000D+00  E= 3.227469D-01  Symmetry=t2
              MO Center=  2.6D-01,  1.3D-01,  1.5D-01, r^2= 6.8D+00
   Bfn.  Coefficient  Atom+Function         Bfn.  Coefficient  Atom+Function  
  ----- ------------  ---------------      ----- ------------  ---------------
    49      3.021951  2 H  s                 16     -1.931779  1 N  py         
    87     -1.708968  4 H  s                 17     -1.692595  1 N  pz         
    48     -1.308028  2 H  s                 15     -1.005880  1 N  px         
   114      0.999370  5 H  py                77      0.917342  3 H  pz         
    32      0.859430  1 N  dxz               76      0.853006  3 H  py         
 
 Vector   28  Occ=0.000000D+00  E= 3.227469D-01  Symmetry=t2
              MO Center= -2.6D-01,  1.2D-01, -1.4D-01, r^2= 6.8D+00
   Bfn.  Coefficient  Atom+Function         Bfn.  Coefficient  Atom+Function  
  ----- ------------  ---------------      ----- ------------  ---------------
   106      2.989553  5 H  s                 16     -1.967759  1 N  py         
    68     -1.808715  3 H  s                 17      1.708212  1 N  pz         
   105     -1.294005  5 H  s                 57      1.008098  2 H  py         
    96     -0.919086  4 H  pz                15      0.904644  1 N  px         
    32      0.875437  1 N  dxz               95      0.876465  4 H  py         
 
 Vector   29  Occ=0.000000D+00  E= 3.335430D-01  Symmetry=a1
              MO Center= -4.9D-13,  7.1D-13, -1.1D-12, r^2= 6.3D+00
   Bfn.  Coefficient  Atom+Function         Bfn.  Coefficient  Atom+Function  
  ----- ------------  ---------------      ----- ------------  ---------------
    14     10.598793  1 N  s                 48     -5.137719  2 H  s          
    67     -5.137719  3 H  s                 86     -5.137719  4 H  s          
   105     -5.137719  5 H  s                 30      2.146162  1 N  dxx        
    33      2.146162  1 N  dyy               35      2.146162  1 N  dzz        
    47      0.634292  2 H  s                 66      0.634292  3 H  s          
 
 Vector   30  Occ=0.000000D+00  E= 3.582017D-01  Symmetry=a1
              MO Center=  5.6D-13, -8.6D-13,  1.1D-12, r^2= 6.8D+00
   Bfn.  Coefficient  Atom+Function         Bfn.  Coefficient  Atom+Function  
  ----- ------------  ---------------      ----- ------------  ---------------
    14     25.650353  1 N  s                 10     13.873725  1 N  s          
    48     -9.507808  2 H  s                 67     -9.507808  3 H  s          
    86     -9.507808  4 H  s                105     -9.507808  5 H  s          
    56      1.307164  2 H  px                57      1.307164  2 H  py         
    58      1.307164  2 H  pz                75     -1.307164  3 H  px         
 
 Vector   31  Occ=0.000000D+00  E= 4.358972D-01  Symmetry=t2
              MO Center= -4.7D-02, -2.8D-01,  2.8D-02, r^2= 4.1D+00
   Bfn.  Coefficient  Atom+Function         Bfn.  Coefficient  Atom+Function  
  ----- ------------  ---------------      ----- ------------  ---------------
    67      5.083497  3 H  s                 86     -4.490338  4 H  s          
    13     -2.281357  1 N  pz                76      1.703996  3 H  py         
    31      1.679738  1 N  dxy               75      1.582890  3 H  px         
    95     -1.551197  4 H  py               105     -1.551156  5 H  s          
    77     -1.479502  3 H  pz                94      1.381210  4 H  px         
 
 Vector   32  Occ=0.000000D+00  E= 4.358972D-01  Symmetry=t2
              MO Center=  9.7D-02,  2.7D-01,  1.6D-01, r^2= 4.1D+00
   Bfn.  Coefficient  Atom+Function         Bfn.  Coefficient  Atom+Function  
  ----- ------------  ---------------      ----- ------------  ---------------
    48      5.660991  2 H  s                105     -3.573033  5 H  s          
    11     -2.151534  1 N  px                67     -2.124664  3 H  s          
    57     -1.838757  2 H  py                58     -1.779079  2 H  pz         
    56     -1.690021  2 H  px                34      1.584150  1 N  dyz        
    13     -1.335369  1 N  pz               114      1.300897  5 H  py         
 
 Vector   33  Occ=0.000000D+00  E= 4.358972D-01  Symmetry=t2
              MO Center= -5.0D-02,  1.6D-02, -1.8D-01, r^2= 4.2D+00
   Bfn.  Coefficient  Atom+Function         Bfn.  Coefficient  Atom+Function  
  ----- ------------  ---------------      ----- ------------  ---------------
   105      4.671621  5 H  s                 86     -4.102707  4 H  s          
    67     -2.576927  3 H  s                 12     -2.522328  1 N  py         
    48      2.008013  2 H  s                 32      1.857162  1 N  dxz        
   115      1.564953  5 H  pz               113      1.502085  5 H  px         
    96     -1.418400  4 H  pz                94      1.308649  4 H  px         
 
 Vector   34  Occ=0.000000D+00  E= 5.139512D-01  Symmetry=e
              MO Center= -6.0D-15, -5.2D-15,  2.3D-14, r^2= 3.3D+00
   Bfn.  Coefficient  Atom+Function         Bfn.  Coefficient  Atom+Function  
  ----- ------------  ---------------      ----- ------------  ---------------
    35      2.602439  1 N  dzz               30     -1.386987  1 N  dxx        
    33     -1.215451  1 N  dyy               58     -0.980429  2 H  pz         
    77     -0.980429  3 H  pz                96      0.980429  4 H  pz         
   115      0.980429  5 H  pz                56      0.522526  2 H  px         
    75     -0.522526  3 H  px                94      0.522526  4 H  px         
 
 Vector   35  Occ=0.000000D+00  E= 5.139512D-01  Symmetry=e
              MO Center= -2.2D-14, -1.6D-14, -2.1D-15, r^2= 3.3D+00
   Bfn.  Coefficient  Atom+Function         Bfn.  Coefficient  Atom+Function  
  ----- ------------  ---------------      ----- ------------  ---------------
    33     -2.303296  1 N  dyy               30      2.204260  1 N  dxx        
    57      0.867732  2 H  py                76     -0.867732  3 H  py         
    95     -0.867732  4 H  py               114      0.867732  5 H  py         
    56     -0.830421  2 H  px                75      0.830421  3 H  px         
    94     -0.830421  4 H  px               113      0.830421  5 H  px         
 
 Vector   36  Occ=0.000000D+00  E= 6.449292D-01  Symmetry=t2
              MO Center= -1.2D-01,  1.1D-01, -6.8D-02, r^2= 4.1D+00
   Bfn.  Coefficient  Atom+Function         Bfn.  Coefficient  Atom+Function  
  ----- ------------  ---------------      ----- ------------  ---------------
   105      6.846166  5 H  s                104      5.424568  5 H  s          
    31      3.955881  1 N  dxy               13      3.258678  1 N  pz         
    67     -3.217335  3 H  s                 48     -2.984985  2 H  s          
    66     -2.549259  3 H  s                115      2.542142  5 H  pz         
    32     -2.462687  1 N  dxz               47     -2.365157  2 H  s          
 
 Vector   37  Occ=0.000000D+00  E= 6.449292D-01  Symmetry=t2
              MO Center=  1.5D-01, -7.8D-03, -1.2D-02, r^2= 4.1D+00
   Bfn.  Coefficient  Atom+Function         Bfn.  Coefficient  Atom+Function  
  ----- ------------  ---------------      ----- ------------  ---------------
    86     -5.820535  4 H  s                 48      5.459675  2 H  s          
    85     -4.611908  4 H  s                 32     -4.351166  1 N  dxz        
    47      4.325980  2 H  s                 12     -3.584297  1 N  py         
    31     -2.843427  1 N  dxy               95     -2.374809  4 H  py         
    13     -2.342289  1 N  pz                57     -2.285877  2 H  py         
 
 Vector   38  Occ=0.000000D+00  E= 6.449292D-01  Symmetry=t2
              MO Center= -3.1D-02, -1.0D-01,  8.0D-02, r^2= 4.1D+00
   Bfn.  Coefficient  Atom+Function         Bfn.  Coefficient  Atom+Function  
  ----- ------------  ---------------      ----- ------------  ---------------
    67      6.209276  3 H  s                 66      4.919927  3 H  s          
    34      4.654122  1 N  dyz               86     -3.951742  4 H  s          
    11      3.833858  1 N  px                48     -3.345331  2 H  s          
    85     -3.131167  4 H  s                 47     -2.650677  2 H  s          
    75      2.536086  3 H  px                94      1.979728  4 H  px         
 
 Vector   39  Occ=0.000000D+00  E= 7.746464D-01  Symmetry=t2
              MO Center= -1.2D-02,  7.4D-03,  9.1D-02, r^2= 3.9D+00
   Bfn.  Coefficient  Atom+Function         Bfn.  Coefficient  Atom+Function  
  ----- ------------  ---------------      ----- ------------  ---------------
    12      8.538363  1 N  py                86      5.846247  4 H  s          
    11     -5.454514  1 N  px                85      5.420404  4 H  s          
   105     -5.289844  5 H  s                104     -4.904529  5 H  s          
    32      3.523162  1 N  dxz               34     -2.250682  1 N  dyz        
    16      1.962377  1 N  py               115     -1.624290  5 H  pz         
 
 Vector   40  Occ=0.000000D+00  E= 7.746464D-01  Symmetry=t2
              MO Center=  2.8D-02,  1.9D-02, -2.7D-03, r^2= 3.9D+00
   Bfn.  Coefficient  Atom+Function         Bfn.  Coefficient  Atom+Function  
  ----- ------------  ---------------      ----- ------------  ---------------
    13     10.006951  1 N  pz                67     -4.939422  3 H  s          
    66     -4.579632  3 H  s                105      4.168865  5 H  s          
    31      4.129142  1 N  dxy              104      3.865203  5 H  s          
    86      3.795067  4 H  s                 85      3.518633  4 H  s          
    48     -3.024510  2 H  s                 47     -2.804203  2 H  s          
 
 Vector   41  Occ=0.000000D+00  E= 7.746464D-01  Symmetry=t2
              MO Center= -1.6D-02, -2.6D-02, -8.8D-02, r^2= 3.9D+00
   Bfn.  Coefficient  Atom+Function         Bfn.  Coefficient  Atom+Function  
  ----- ------------  ---------------      ----- ------------  ---------------
    11      8.512048  1 N  px                48     -6.130414  2 H  s          
    47     -5.683871  2 H  s                 12      5.307816  1 N  py         
    67      4.867987  3 H  s                 66      4.513400  3 H  s          
    34      3.512304  1 N  dyz               32      2.190150  1 N  dxz        
    15      1.956329  1 N  px               105      1.906241  5 H  s          
 
 Vector   42  Occ=0.000000D+00  E= 8.397609D-01  Symmetry=a1
              MO Center= -7.9D-14, -4.4D-13,  1.2D-12, r^2= 5.0D+00
   Bfn.  Coefficient  Atom+Function         Bfn.  Coefficient  Atom+Function  
  ----- ------------  ---------------      ----- ------------  ---------------
    10     24.621499  1 N  s                 14     22.521420  1 N  s          
    48    -11.212392  2 H  s                 67    -11.212392  3 H  s          
    86    -11.212392  4 H  s                105    -11.212392  5 H  s          
    30      4.070693  1 N  dxx               33      4.070693  1 N  dyy        
    35      4.070693  1 N  dzz               47     -3.999363  2 H  s          
 
 Vector   43  Occ=0.000000D+00  E= 1.390988D+00  Symmetry=a1
              MO Center=  1.5D-13,  1.4D-13,  6.6D-14, r^2= 3.2D+00
   Bfn.  Coefficient  Atom+Function         Bfn.  Coefficient  Atom+Function  
  ----- ------------  ---------------      ----- ------------  ---------------
    10     17.183854  1 N  s                  6     -3.387145  1 N  s          
    47     -2.890378  2 H  s                 66     -2.890378  3 H  s          
    85     -2.890378  4 H  s                104     -2.890378  5 H  s          
    30     -2.746350  1 N  dxx               33     -2.746350  1 N  dyy        
    35     -2.746350  1 N  dzz               14      1.463786  1 N  s          
 
 Vector   44  Occ=0.000000D+00  E= 1.476809D+00  Symmetry=t1
              MO Center=  1.1D-01, -1.1D-01,  2.6D-01, r^2= 2.1D+00
   Bfn.  Coefficient  Atom+Function         Bfn.  Coefficient  Atom+Function  
  ----- ------------  ---------------      ----- ------------  ---------------
    58     -0.630474  2 H  pz                77      0.630474  3 H  pz         
    55      0.621503  2 H  pz                74     -0.621503  3 H  pz         
    56      0.460098  2 H  px                94     -0.460098  4 H  px         
    53     -0.453552  2 H  px                91      0.453552  4 H  px         
    76      0.439157  3 H  py                95     -0.439157  4 H  py         
 
 Vector   45  Occ=0.000000D+00  E= 1.476809D+00  Symmetry=t1
              MO Center=  3.6D-02,  2.3D-01, -1.9D-02, r^2= 2.1D+00
   Bfn.  Coefficient  Atom+Function         Bfn.  Coefficient  Atom+Function  
  ----- ------------  ---------------      ----- ------------  ---------------
    57     -0.628076  2 H  py               114      0.628076  5 H  py         
    54      0.619140  2 H  py               111     -0.619140  5 H  py         
    56      0.444700  2 H  px                94     -0.444700  4 H  px         
    53     -0.438373  2 H  px                91      0.438373  4 H  px         
    75     -0.376360  3 H  px               113      0.376360  5 H  px         
 
 Vector   46  Occ=0.000000D+00  E= 1.476809D+00  Symmetry=t1
              MO Center= -1.5D-01, -1.3D-01, -2.4D-01, r^2= 2.1D+00
   Bfn.  Coefficient  Atom+Function         Bfn.  Coefficient  Atom+Function  
  ----- ------------  ---------------      ----- ------------  ---------------
    96     -0.608488  4 H  pz               115      0.608488  5 H  pz         
    93      0.599830  4 H  pz               112     -0.599830  5 H  pz         
    75      0.505776  3 H  px               113     -0.505776  5 H  px         
    72     -0.498579  3 H  px               110      0.498579  5 H  px         
    76     -0.451615  3 H  py                95      0.451615  4 H  py         
 
 Vector   47  Occ=0.000000D+00  E= 1.609353D+00  Symmetry=t2
              MO Center=  6.0D-02, -3.3D-02, -5.9D-02, r^2= 2.5D+00
   Bfn.  Coefficient  Atom+Function         Bfn.  Coefficient  Atom+Function  
  ----- ------------  ---------------      ----- ------------  ---------------
    86      3.783793  4 H  s                 12      3.526477  1 N  py         
    85      3.246335  4 H  s                 13      1.984349  1 N  pz         
    11     -1.962518  1 N  px                48     -1.796527  2 H  s          
   105     -1.774421  5 H  s                 47     -1.541344  2 H  s          
   104     -1.522378  5 H  s                 95      1.487255  4 H  py         
 
 Vector   48  Occ=0.000000D+00  E= 1.609353D+00  Symmetry=t2
              MO Center= -7.8D-02, -3.4D-02,  2.6D-02, r^2= 2.5D+00
   Bfn.  Coefficient  Atom+Function         Bfn.  Coefficient  Atom+Function  
  ----- ------------  ---------------      ----- ------------  ---------------
    67     -3.662926  3 H  s                 13      3.484325  1 N  pz         
    66     -3.142637  3 H  s                 12     -2.600501  1 N  py         
   105      2.498632  5 H  s                104      2.143721  5 H  s          
    77      1.442684  3 H  pz                76     -1.405863  3 H  py         
    75     -1.345426  3 H  px                11     -1.149795  1 N  px         
 
 Vector   49  Occ=0.000000D+00  E= 1.609353D+00  Symmetry=t2
              MO Center=  1.8D-02,  6.8D-02,  3.4D-02, r^2= 2.5D+00
   Bfn.  Coefficient  Atom+Function         Bfn.  Coefficient  Atom+Function  
  ----- ------------  ---------------      ----- ------------  ---------------
    11      3.879646  1 N  px                48     -3.508306  2 H  s          
    47     -3.009979  2 H  s                105      2.482362  5 H  s          
   104      2.129762  5 H  s                 13      2.036418  1 N  pz         
    67      1.446208  3 H  s                 56      1.404382  2 H  px         
    58      1.327592  2 H  pz                57      1.284963  2 H  py         
 
 Vector   50  Occ=0.000000D+00  E= 1.727012D+00  Symmetry=e
              MO Center= -2.9D-14, -2.2D-14,  7.3D-16, r^2= 1.9D+00
   Bfn.  Coefficient  Atom+Function         Bfn.  Coefficient  Atom+Function  
  ----- ------------  ---------------      ----- ------------  ---------------
    33      2.443516  1 N  dyy               30     -1.987700  1 N  dxx        
    54     -0.539993  2 H  py                73      0.539993  3 H  py         
    92      0.539993  4 H  py               111     -0.539993  5 H  py         
    57     -0.521813  2 H  py                76      0.521813  3 H  py         
    95      0.521813  4 H  py               114     -0.521813  5 H  py         
 
 Vector   51  Occ=0.000000D+00  E= 1.727012D+00  Symmetry=e
              MO Center=  3.1D-15,  2.4D-15,  9.6D-15, r^2= 1.9D+00
   Bfn.  Coefficient  Atom+Function         Bfn.  Coefficient  Atom+Function  
  ----- ------------  ---------------      ----- ------------  ---------------
    35      2.558364  1 N  dzz               30     -1.673930  1 N  dxx        
    33     -0.884434  1 N  dyy               55     -0.565373  2 H  pz         
    74     -0.565373  3 H  pz                93      0.565373  4 H  pz         
   112      0.565373  5 H  pz                58     -0.546339  2 H  pz         
    77     -0.546339  3 H  pz                96      0.546339  4 H  pz         
 
 Vector   52  Occ=0.000000D+00  E= 1.761719D+00  Symmetry=t2
              MO Center=  2.4D-01, -4.2D-04, -4.9D-04, r^2= 2.4D+00
   Bfn.  Coefficient  Atom+Function         Bfn.  Coefficient  Atom+Function  
  ----- ------------  ---------------      ----- ------------  ---------------
    47      3.291641  2 H  s                 85     -3.297964  4 H  s          
    12     -2.522308  1 N  py                48      2.443028  2 H  s          
    86     -2.447721  4 H  s                 13     -2.161636  1 N  pz         
    56     -1.241539  2 H  px                94      1.242490  4 H  px         
    16     -1.046357  1 N  py                17     -0.896735  1 N  pz         
 
 Vector   53  Occ=0.000000D+00  E= 1.761719D+00  Symmetry=t2
              MO Center= -2.2D-01,  8.8D-02, -7.5D-02, r^2= 2.4D+00
   Bfn.  Coefficient  Atom+Function         Bfn.  Coefficient  Atom+Function  
  ----- ------------  ---------------      ----- ------------  ---------------
   104      3.769870  5 H  s                105      2.797965  5 H  s          
    66     -2.615307  3 H  s                 13      2.444846  1 N  pz         
    12     -2.093788  1 N  py                67     -1.941059  3 H  s          
   113      1.290277  5 H  px                75     -1.116691  3 H  px         
   114     -1.087334  5 H  py               115      1.031373  5 H  pz         
 
 Vector   54  Occ=0.000000D+00  E= 1.761719D+00  Symmetry=t2
              MO Center= -1.5D-02, -8.7D-02,  7.5D-02, r^2= 2.4D+00
   Bfn.  Coefficient  Atom+Function         Bfn.  Coefficient  Atom+Function  
  ----- ------------  ---------------      ----- ------------  ---------------
    11      3.218882  1 N  px                66      3.078564  3 H  s          
    85     -2.322600  4 H  s                 67      2.284885  3 H  s          
    47     -2.205883  2 H  s                 86     -1.723814  4 H  s          
    48     -1.637188  2 H  s                104      1.449919  5 H  s          
    15      1.335325  1 N  px                76      1.074845  3 H  py         
 
 Vector   55  Occ=0.000000D+00  E= 2.184006D+00  Symmetry=e
              MO Center=  6.0D-17, -8.6D-16,  2.1D-16, r^2= 1.6D+00
   Bfn.  Coefficient  Atom+Function         Bfn.  Coefficient  Atom+Function  
  ----- ------------  ---------------      ----- ------------  ---------------
    30      0.850725  1 N  dxx               24     -0.644881  1 N  dxx        
    35     -0.468654  1 N  dzz               33     -0.382071  1 N  dyy        
    56     -0.367545  2 H  px                75      0.367545  3 H  px         
    94     -0.367545  4 H  px               113      0.367545  5 H  px         
    29      0.355257  1 N  dzz               63     -0.343764  2 H  dyz        
 
 Vector   56  Occ=0.000000D+00  E= 2.184006D+00  Symmetry=e
              MO Center=  7.6D-18,  1.8D-15,  1.3D-15, r^2= 1.6D+00
   Bfn.  Coefficient  Atom+Function         Bfn.  Coefficient  Atom+Function  
  ----- ------------  ---------------      ----- ------------  ---------------
    33      0.761744  1 N  dyy               35     -0.711755  1 N  dzz        
    27     -0.577430  1 N  dyy               29      0.539537  1 N  dzz        
    57     -0.329102  2 H  py                76      0.329102  3 H  py         
    95      0.329102  4 H  py               114     -0.329102  5 H  py         
    58      0.307505  2 H  pz                61     -0.307808  2 H  dxz        
 
 Vector   57  Occ=0.000000D+00  E= 2.361047D+00  Symmetry=a1
              MO Center= -2.5D-13,  3.9D-15,  1.2D-13, r^2= 2.8D+00
   Bfn.  Coefficient  Atom+Function         Bfn.  Coefficient  Atom+Function  
  ----- ------------  ---------------      ----- ------------  ---------------
    10     22.363414  1 N  s                 14     12.347063  1 N  s          
    47     -7.357702  2 H  s                 66     -7.357702  3 H  s          
    85     -7.357702  4 H  s                104     -7.357702  5 H  s          
    48     -7.195322  2 H  s                 67     -7.195322  3 H  s          
    86     -7.195322  4 H  s                105     -7.195322  5 H  s          
 
 Vector   58  Occ=0.000000D+00  E= 2.503261D+00  Symmetry=t2
              MO Center= -1.5D-02, -5.1D-03,  8.2D-03, r^2= 1.8D+00
   Bfn.  Coefficient  Atom+Function         Bfn.  Coefficient  Atom+Function  
  ----- ------------  ---------------      ----- ------------  ---------------
    66      6.371895  3 H  s                104     -4.114374  5 H  s          
    12      3.636440  1 N  py                32      3.470575  1 N  dxz        
    67      3.476148  3 H  s                 47     -2.369281  2 H  s          
    13     -2.244917  1 N  pz               105     -2.244572  5 H  s          
    31     -2.142522  1 N  dxy               76      1.593743  3 H  py         
 
 Vector   59  Occ=0.000000D+00  E= 2.503261D+00  Symmetry=t2
              MO Center=  1.6D-02,  3.9D-05,  2.4D-05, r^2= 1.8D+00
   Bfn.  Coefficient  Atom+Function         Bfn.  Coefficient  Atom+Function  
  ----- ------------  ---------------      ----- ------------  ---------------
    47      5.473035  2 H  s                 85     -5.462799  4 H  s          
    13     -3.793577  1 N  pz                31     -3.620545  1 N  dxy        
    48      2.985781  2 H  s                 86     -2.980197  4 H  s          
    12     -2.339925  1 N  py                32     -2.233196  1 N  dxz        
    58     -1.453724  2 H  pz                96     -1.451903  4 H  pz         
 
 Vector   60  Occ=0.000000D+00  E= 2.503261D+00  Symmetry=t2
              MO Center= -1.3D-03,  5.0D-03, -8.2D-03, r^2= 1.8D+00
   Bfn.  Coefficient  Atom+Function         Bfn.  Coefficient  Atom+Function  
  ----- ------------  ---------------      ----- ------------  ---------------
   104      5.361491  5 H  s                 11      4.273560  1 N  px         
    85     -4.184693  4 H  s                 34      4.078635  1 N  dyz        
    47     -3.434926  2 H  s                105      2.924929  5 H  s          
    86     -2.282934  4 H  s                 66      2.258128  3 H  s          
    48     -1.873903  2 H  s                 39      1.503666  1 N  fxyy       
 
 Vector   61  Occ=0.000000D+00  E= 2.584063D+00  Symmetry=a1
              MO Center=  4.8D-16,  6.2D-15,  1.3D-15, r^2= 2.3D+00
   Bfn.  Coefficient  Atom+Function         Bfn.  Coefficient  Atom+Function  
  ----- ------------  ---------------      ----- ------------  ---------------
    10     11.183768  1 N  s                 14     -3.660812  1 N  s          
    47     -3.269159  2 H  s                 66     -3.269159  3 H  s          
    85     -3.269159  4 H  s                104     -3.269159  5 H  s          
    48      1.580422  2 H  s                 67      1.580422  3 H  s          
    86      1.580422  4 H  s                105      1.580422  5 H  s          
 
 Vector   62  Occ=0.000000D+00  E= 2.737536D+00  Symmetry=t2
              MO Center= -1.2D-02, -9.7D-04,  5.8D-02, r^2= 2.3D+00
   Bfn.  Coefficient  Atom+Function         Bfn.  Coefficient  Atom+Function  
  ----- ------------  ---------------      ----- ------------  ---------------
    12      9.567310  1 N  py                66      6.876166  3 H  s          
    47     -6.667127  2 H  s                104     -5.881489  5 H  s          
    85      5.672451  4 H  s                 32      3.895774  1 N  dxz        
    67      2.962366  3 H  s                 48     -2.872309  2 H  s          
   105     -2.533843  5 H  s                 86      2.443786  4 H  s          
 
 Vector   63  Occ=0.000000D+00  E= 2.737536D+00  Symmetry=t2
              MO Center=  1.7D-02, -2.0D-01, -5.7D-02, r^2= 2.3D+00
   Bfn.  Coefficient  Atom+Function         Bfn.  Coefficient  Atom+Function  
  ----- ------------  ---------------      ----- ------------  ---------------
    11      9.167733  1 N  px                85     -8.313555  4 H  s          
    66      7.300624  3 H  s                104      4.723903  5 H  s          
    34      3.733068  1 N  dyz               47     -3.710971  2 H  s          
    86     -3.581617  4 H  s                 67      3.145229  3 H  s          
    13     -2.736821  1 N  pz               105      2.035135  5 H  s          
 
 Vector   64  Occ=0.000000D+00  E= 2.737536D+00  Symmetry=t2
              MO Center= -4.7D-03,  2.0D-01, -1.4D-03, r^2= 2.3D+00
   Bfn.  Coefficient  Atom+Function         Bfn.  Coefficient  Atom+Function  
  ----- ------------  ---------------      ----- ------------  ---------------
    13      9.198823  1 N  pz               104      7.872006  5 H  s          
    47     -7.788052  2 H  s                 66     -4.277252  3 H  s          
    85      4.193298  4 H  s                 31      3.745727  1 N  dxy        
   105      3.391390  5 H  s                 48     -3.355222  2 H  s          
    11      2.740710  1 N  px                67     -1.842711  3 H  s          
 
 Vector   65  Occ=0.000000D+00  E= 2.762865D+00  Symmetry=t1
              MO Center=  1.6D-01,  6.1D-02, -1.7D-02, r^2= 1.5D+00
   Bfn.  Coefficient  Atom+Function         Bfn.  Coefficient  Atom+Function  
  ----- ------------  ---------------      ----- ------------  ---------------
    59      0.425615  2 H  dxx               97     -0.425615  4 H  dxx        
    63      0.402881  2 H  dyz              101     -0.402881  4 H  dyz        
    62     -0.368067  2 H  dyy              119      0.368067  5 H  dyy        
    61     -0.348408  2 H  dxz              118      0.348408  5 H  dxz        
    81     -0.294020  3 H  dyy              100      0.294020  4 H  dyy        
 
 Vector   66  Occ=0.000000D+00  E= 2.762865D+00  Symmetry=t1
              MO Center= -8.2D-02, -1.2D-01, -2.6D-01, r^2= 1.4D+00
   Bfn.  Coefficient  Atom+Function         Bfn.  Coefficient  Atom+Function  
  ----- ------------  ---------------      ----- ------------  ---------------
   102     -0.467313  4 H  dzz              121      0.467313  5 H  dzz        
    98      0.442352  4 H  dxy              117     -0.442352  5 H  dxy        
    81     -0.360396  3 H  dyy              100      0.360396  4 H  dyy        
    80      0.341146  3 H  dxz               99     -0.341146  4 H  dxz        
    78      0.278434  3 H  dxx              116     -0.278434  5 H  dxx        
 
 Vector   67  Occ=0.000000D+00  E= 2.762865D+00  Symmetry=t1
              MO Center= -7.3D-02,  5.6D-02,  2.8D-01, r^2= 1.4D+00
   Bfn.  Coefficient  Atom+Function         Bfn.  Coefficient  Atom+Function  
  ----- ------------  ---------------      ----- ------------  ---------------
    64      0.479353  2 H  dzz               83     -0.479353  3 H  dzz        
    60      0.453749  2 H  dxy               79     -0.453749  3 H  dxy        
    78      0.326135  3 H  dxx              116     -0.326135  5 H  dxx        
    82     -0.308715  3 H  dyz              120      0.308715  5 H  dyz        
    62     -0.262030  2 H  dyy              119      0.262030  5 H  dyy        
 
 Vector   68  Occ=0.000000D+00  E= 2.971779D+00  Symmetry=t2
              MO Center=  4.0D-02, -8.8D-02,  9.0D-02, r^2= 1.6D+00
   Bfn.  Coefficient  Atom+Function         Bfn.  Coefficient  Atom+Function  
  ----- ------------  ---------------      ----- ------------  ---------------
    11      5.412742  1 N  px               104      4.847791  5 H  s          
   105      3.245937  5 H  s                 34      3.010743  1 N  dyz        
    85     -2.601582  4 H  s                 47     -2.534414  2 H  s          
    12     -2.438030  1 N  py                13      2.367243  1 N  pz         
    86     -1.741942  4 H  s                 48     -1.696969  2 H  s          
 
 Vector   69  Occ=0.000000D+00  E= 2.971779D+00  Symmetry=t2
              MO Center= -1.0D-01,  5.2D-02,  2.3D-02, r^2= 1.6D+00
   Bfn.  Coefficient  Atom+Function         Bfn.  Coefficient  Atom+Function  
  ----- ------------  ---------------      ----- ------------  ---------------
    13      5.693167  1 N  pz                85      4.555959  4 H  s          
    47     -3.297566  2 H  s                 31      3.166724  1 N  dxy        
    86      3.050535  4 H  s                 12      2.583534  1 N  py         
    48     -2.207952  2 H  s                 66     -2.104517  3 H  s          
    32      1.437046  1 N  dxz               67     -1.409122  3 H  s          
 
 Vector   70  Occ=0.000000D+00  E= 2.971779D+00  Symmetry=t2
              MO Center=  6.1D-02,  3.6D-02, -1.1D-01, r^2= 1.6D+00
   Bfn.  Coefficient  Atom+Function         Bfn.  Coefficient  Atom+Function  
  ----- ------------  ---------------      ----- ------------  ---------------
    12      5.312905  1 N  py                66      4.803089  3 H  s          
    47     -3.206949  2 H  s                 67      3.216006  3 H  s          
    11      3.128742  1 N  px                32      2.955211  1 N  dxz        
    48     -2.147278  2 H  s                104     -1.834315  5 H  s          
    34      1.740308  1 N  dyz               13     -1.682146  1 N  pz         
 
 Vector   71  Occ=0.000000D+00  E= 2.991151D+00  Symmetry=e
              MO Center=  5.0D-16, -1.8D-15, -1.8D-15, r^2= 1.7D+00
   Bfn.  Coefficient  Atom+Function         Bfn.  Coefficient  Atom+Function  
  ----- ------------  ---------------      ----- ------------  ---------------
    35      1.011170  1 N  dzz               33     -0.800558  1 N  dyy        
    60     -0.418517  2 H  dxy               79     -0.418517  3 H  dxy        
    98      0.418517  4 H  dxy              117      0.418517  5 H  dxy        
    64     -0.401646  2 H  dzz               83     -0.401646  3 H  dzz        
   102     -0.401646  4 H  dzz              121     -0.401646  5 H  dzz        
 
 Vector   72  Occ=0.000000D+00  E= 2.991151D+00  Symmetry=e
              MO Center= -8.3D-16, -1.5D-15,  9.2D-16, r^2= 1.7D+00
   Bfn.  Coefficient  Atom+Function         Bfn.  Coefficient  Atom+Function  
  ----- ------------  ---------------      ----- ------------  ---------------
    30      1.046002  1 N  dxx               33     -0.705397  1 N  dyy        
    63     -0.432933  2 H  dyz               82      0.432933  3 H  dyz        
   101     -0.432933  4 H  dyz              120      0.432933  5 H  dyz        
    59     -0.415481  2 H  dxx               78     -0.415481  3 H  dxx        
    97     -0.415481  4 H  dxx              116     -0.415481  5 H  dxx        
 
 Vector   73  Occ=0.000000D+00  E= 3.412862D+00  Symmetry=t1
              MO Center= -1.4D-02, -4.6D-03, -1.7D-01, r^2= 1.6D+00
   Bfn.  Coefficient  Atom+Function         Bfn.  Coefficient  Atom+Function  
  ----- ------------  ---------------      ----- ------------  ---------------
    98      0.738783  4 H  dxy              117     -0.738783  5 H  dxy        
    82     -0.571087  3 H  dyz              120      0.571087  5 H  dyz        
    63     -0.540242  2 H  dyz              101      0.540242  4 H  dyz        
    60      0.372547  2 H  dxy               79     -0.372547  3 H  dxy        
   102      0.269567  4 H  dzz              121     -0.269567  5 H  dzz        
 
 Vector   74  Occ=0.000000D+00  E= 3.412862D+00  Symmetry=t1
              MO Center= -7.5D-02,  2.4D-01,  1.2D-01, r^2= 1.5D+00
   Bfn.  Coefficient  Atom+Function         Bfn.  Coefficient  Atom+Function  
  ----- ------------  ---------------      ----- ------------  ---------------
    61      0.781512  2 H  dxz              118     -0.781512  5 H  dxz        
    60     -0.626200  2 H  dxy               79      0.626200  3 H  dxy        
    82      0.453038  3 H  dyz              120     -0.453038  5 H  dyz        
    98      0.328474  4 H  dxy              117     -0.328474  5 H  dxy        
    62     -0.285158  2 H  dyy              119      0.285158  5 H  dyy        
 
 Vector   75  Occ=0.000000D+00  E= 3.412862D+00  Symmetry=t1
              MO Center=  8.9D-02, -2.3D-01,  5.1D-02, r^2= 1.5D+00
   Bfn.  Coefficient  Atom+Function         Bfn.  Coefficient  Atom+Function  
  ----- ------------  ---------------      ----- ------------  ---------------
    80      0.784642  3 H  dxz               99     -0.784642  4 H  dxz        
    63      0.607522  2 H  dyz              101     -0.607522  4 H  dyz        
    60     -0.392618  2 H  dxy               79      0.392618  3 H  dxy        
    82     -0.392024  3 H  dyz              120      0.392024  5 H  dyz        
    81      0.286301  3 H  dyy              100     -0.286301  4 H  dyy        
 
 Vector   76  Occ=0.000000D+00  E= 3.806222D+00  Symmetry=t2
              MO Center=  1.9D-02,  3.0D-02,  1.1D-02, r^2= 1.6D+00
   Bfn.  Coefficient  Atom+Function         Bfn.  Coefficient  Atom+Function  
  ----- ------------  ---------------      ----- ------------  ---------------
    47      1.445722  2 H  s                 48      1.050364  2 H  s          
    13     -1.012340  1 N  pz               104     -0.906468  5 H  s          
    31      0.771625  1 N  dxy                9     -0.703815  1 N  pz         
    61      0.658435  2 H  dxz              105     -0.658579  5 H  s          
    63      0.612122  2 H  dyz               85     -0.606794  4 H  s          
 
 Vector   77  Occ=0.000000D+00  E= 3.806222D+00  Symmetry=t2
              MO Center=  1.1D-02, -1.8D-02, -3.1D-02, r^2= 1.6D+00
   Bfn.  Coefficient  Atom+Function         Bfn.  Coefficient  Atom+Function  
  ----- ------------  ---------------      ----- ------------  ---------------
    85      1.447298  4 H  s                 86      1.051510  4 H  s          
    11     -1.000733  1 N  px               104     -0.933220  5 H  s          
    34      0.762778  1 N  dyz                7     -0.695746  1 N  px         
   105     -0.678015  5 H  s                 98     -0.663134  4 H  dxy        
    99     -0.605872  4 H  dxz               12      0.591783  1 N  py         
 
 Vector   78  Occ=0.000000D+00  E= 3.806222D+00  Symmetry=t2
              MO Center= -3.0D-02, -1.2D-02,  2.0D-02, r^2= 1.6D+00
   Bfn.  Coefficient  Atom+Function         Bfn.  Coefficient  Atom+Function  
  ----- ------------  ---------------      ----- ------------  ---------------
    66      1.463637  3 H  s                 67      1.063381  3 H  s          
    12      0.994786  1 N  py               104     -0.877971  5 H  s          
    32     -0.758245  1 N  dxz                8      0.691611  1 N  py         
    82     -0.660454  3 H  dyz              105     -0.637875  5 H  s          
    79      0.618894  3 H  dxy               47     -0.609051  2 H  s          
 
 Vector   79  Occ=0.000000D+00  E= 4.047439D+00  Symmetry=a1
              MO Center= -1.4D-14,  1.3D-13, -4.6D-15, r^2= 1.7D+00
   Bfn.  Coefficient  Atom+Function         Bfn.  Coefficient  Atom+Function  
  ----- ------------  ---------------      ----- ------------  ---------------
    10     11.450085  1 N  s                  6      3.326664  1 N  s          
    47     -3.109245  2 H  s                 66     -3.109245  3 H  s          
    85     -3.109245  4 H  s                104     -3.109245  5 H  s          
    40      2.818542  1 N  fxyz              14      2.462845  1 N  s          
    48     -1.010831  2 H  s                 67     -1.010831  3 H  s          
 
 Vector   80  Occ=0.000000D+00  E= 4.254923D+00  Symmetry=t2
              MO Center= -2.3D-02,  7.1D-02, -4.2D-02, r^2= 1.4D+00
   Bfn.  Coefficient  Atom+Function         Bfn.  Coefficient  Atom+Function  
  ----- ------------  ---------------      ----- ------------  ---------------
   104      3.092862  5 H  s                 47     -2.040147  2 H  s          
    11      1.942918  1 N  px               105      1.843128  5 H  s          
    85     -1.293173  4 H  s                 48     -1.215783  2 H  s          
    28      1.166004  1 N  dyz               34      1.062162  1 N  dyz        
    39     -1.063109  1 N  fxyy              41     -1.063109  1 N  fxzz       
 
 Vector   81  Occ=0.000000D+00  E= 4.254923D+00  Symmetry=t2
              MO Center= -1.3D-02, -4.5D-03,  5.8D-02, r^2= 1.4D+00
   Bfn.  Coefficient  Atom+Function         Bfn.  Coefficient  Atom+Function  
  ----- ------------  ---------------      ----- ------------  ---------------
    66      2.649960  3 H  s                 47     -2.362979  2 H  s          
    12      2.151986  1 N  py                67      1.579189  3 H  s          
    48     -1.408169  2 H  s                104     -1.329023  5 H  s          
    26      1.291473  1 N  dxz               32      1.176456  1 N  dxz        
    37     -1.177505  1 N  fxxy              44     -1.177505  1 N  fyzz       
 
 Vector   82  Occ=0.000000D+00  E= 4.254923D+00  Symmetry=t2
              MO Center=  3.5D-02, -6.7D-02, -1.6D-02, r^2= 1.4D+00
   Bfn.  Coefficient  Atom+Function         Bfn.  Coefficient  Atom+Function  
  ----- ------------  ---------------      ----- ------------  ---------------
    85      2.972446  4 H  s                 66     -2.124494  3 H  s          
    13      2.030630  1 N  pz                86      1.771368  4 H  s          
    47     -1.359307  2 H  s                 67     -1.266049  3 H  s          
    25      1.218643  1 N  dxy               31      1.110113  1 N  dxy        
    38     -1.111103  1 N  fxxz              43     -1.111103  1 N  fyyz       
 
 Vector   83  Occ=0.000000D+00  E= 4.506670D+00  Symmetry=t2
              MO Center=  2.2D-02, -2.2D-03, -1.1D-01, r^2= 2.5D+00
   Bfn.  Coefficient  Atom+Function         Bfn.  Coefficient  Atom+Function  
  ----- ------------  ---------------      ----- ------------  ---------------
    12     11.161298  1 N  py                85     10.096422  4 H  s          
   104     -9.739527  5 H  s                 47     -8.350875  2 H  s          
    66      7.993980  3 H  s                 32      5.526320  1 N  dxz        
    86      3.687807  4 H  s                105     -3.557447  5 H  s          
    48     -3.050230  2 H  s                 67      2.919871  3 H  s          
 
 Vector   84  Occ=0.000000D+00  E= 4.506670D+00  Symmetry=t2
              MO Center= -3.7D-02, -1.6D-01,  5.2D-03, r^2= 2.5D+00
   Bfn.  Coefficient  Atom+Function         Bfn.  Coefficient  Atom+Function  
  ----- ------------  ---------------      ----- ------------  ---------------
    13     11.100685  1 N  pz                66    -10.556309  3 H  s          
    85      9.957990  4 H  s                104      8.034169  5 H  s          
    47     -7.435850  2 H  s                 31      5.496308  1 N  dxy        
    67     -3.855784  3 H  s                 86      3.637243  4 H  s          
   105      2.934551  5 H  s                 48     -2.716009  2 H  s          
 
 Vector   85  Occ=0.000000D+00  E= 4.506670D+00  Symmetry=t2
              MO Center=  1.5D-02,  1.6D-01,  1.0D-01, r^2= 2.5D+00
   Bfn.  Coefficient  Atom+Function         Bfn.  Coefficient  Atom+Function  
  ----- ------------  ---------------      ----- ------------  ---------------
    11     11.054485  1 N  px                47    -11.081459  2 H  s          
   104      9.403269  5 H  s                 66      8.514009  3 H  s          
    85     -6.835819  4 H  s                 34      5.473433  1 N  dyz        
    48     -4.047600  2 H  s                105      3.434626  5 H  s          
    67      3.109816  3 H  s                 86     -2.496843  4 H  s          
 
 Vector   86  Occ=0.000000D+00  E= 4.627179D+00  Symmetry=e
              MO Center=  1.2D-14,  1.7D-14,  4.3D-16, r^2= 1.4D+00
   Bfn.  Coefficient  Atom+Function         Bfn.  Coefficient  Atom+Function  
  ----- ------------  ---------------      ----- ------------  ---------------
    27     -1.463011  1 N  dyy               24      1.385895  1 N  dxx        
    33     -1.278675  1 N  dyy               30      1.211275  1 N  dxx        
    61      0.722761  2 H  dxz               80     -0.722761  3 H  dxz        
    99     -0.722761  4 H  dxz              118      0.722761  5 H  dxz        
    63     -0.684663  2 H  dyz               82      0.684663  3 H  dyz        
 
 Vector   87  Occ=0.000000D+00  E= 4.627179D+00  Symmetry=e
              MO Center= -2.5D-14, -3.2D-15,  7.0D-15, r^2= 1.4D+00
   Bfn.  Coefficient  Atom+Function         Bfn.  Coefficient  Atom+Function  
  ----- ------------  ---------------      ----- ------------  ---------------
    29      1.644817  1 N  dzz               35      1.437573  1 N  dzz        
    24     -0.889193  1 N  dxx               60     -0.812577  2 H  dxy        
    79     -0.812577  3 H  dxy               98      0.812577  4 H  dxy        
   117      0.812577  5 H  dxy               30     -0.777157  1 N  dxx        
    27     -0.755623  1 N  dyy               33     -0.660416  1 N  dyy        
 
 Vector   88  Occ=0.000000D+00  E= 4.874916D+00  Symmetry=a1
              MO Center= -1.7D-13,  1.4D-14, -2.9D-14, r^2= 1.6D+00
   Bfn.  Coefficient  Atom+Function         Bfn.  Coefficient  Atom+Function  
  ----- ------------  ---------------      ----- ------------  ---------------
    14      6.224879  1 N  s                 30      4.681670  1 N  dxx        
    33      4.681670  1 N  dyy               35      4.681670  1 N  dzz        
    24      4.104590  1 N  dxx               27      4.104590  1 N  dyy        
    29      4.104590  1 N  dzz               47     -4.104651  2 H  s          
    66     -4.104651  3 H  s                 85     -4.104651  4 H  s          
 
 Vector   89  Occ=0.000000D+00  E= 5.014273D+00  Symmetry=t2
              MO Center=  1.8D-02,  7.1D-02,  8.2D-03, r^2= 1.2D+00
   Bfn.  Coefficient  Atom+Function         Bfn.  Coefficient  Atom+Function  
  ----- ------------  ---------------      ----- ------------  ---------------
    25      2.219572  1 N  dxy               38      1.505949  1 N  fxxz       
    43      1.505949  1 N  fyyz              45     -1.281597  1 N  fzzz       
    28      1.015965  1 N  dyz              118      0.911669  5 H  dxz        
    13     -0.874432  1 N  pz                61     -0.838982  2 H  dxz        
   101      0.814121  4 H  dyz               55      0.751972  2 H  pz         
 
 Vector   90  Occ=0.000000D+00  E= 5.014273D+00  Symmetry=t2
              MO Center= -4.2D-02, -1.3D-02,  5.1D-02, r^2= 1.2D+00
   Bfn.  Coefficient  Atom+Function         Bfn.  Coefficient  Atom+Function  
  ----- ------------  ---------------      ----- ------------  ---------------
    26      2.273703  1 N  dxz               37      1.542676  1 N  fxxy       
    44      1.542676  1 N  fyzz              42     -1.312853  1 N  fyyy       
    12     -0.895757  1 N  py                60     -0.891676  2 H  dxy        
   120      0.875647  5 H  dyz               73      0.770217  3 H  py         
     8      0.760547  1 N  py                66      0.728750  3 H  s          
 
 Vector   91  Occ=0.000000D+00  E= 5.014273D+00  Symmetry=t2
              MO Center=  2.4D-02, -5.8D-02, -5.9D-02, r^2= 1.2D+00
   Bfn.  Coefficient  Atom+Function         Bfn.  Coefficient  Atom+Function  
  ----- ------------  ---------------      ----- ------------  ---------------
    28      2.117392  1 N  dyz               39      1.436621  1 N  fxyy       
    41      1.436621  1 N  fxzz              36     -1.222598  1 N  fxxx       
    80     -0.933741  3 H  dxz              117     -0.936469  5 H  dxy        
    26     -0.888235  1 N  dxz               25     -0.866966  1 N  dxy        
    11     -0.834177  1 N  px                85     -0.789461  4 H  s          
 
 Vector   92  Occ=0.000000D+00  E= 5.185114D+00  Symmetry=a1
              MO Center= -5.3D-14,  9.3D-14,  4.2D-16, r^2= 1.4D+00
   Bfn.  Coefficient  Atom+Function         Bfn.  Coefficient  Atom+Function  
  ----- ------------  ---------------      ----- ------------  ---------------
    10      8.774530  1 N  s                 47     -4.560546  2 H  s          
    66     -4.560546  3 H  s                 85     -4.560546  4 H  s          
   104     -4.560546  5 H  s                 14      2.946994  1 N  s          
    40      2.766501  1 N  fxyz              30      2.106748  1 N  dxx        
    33      2.106748  1 N  dyy               35      2.106748  1 N  dzz        
 
 Vector   93  Occ=0.000000D+00  E= 5.201376D+00  Symmetry=t1
[...]
 
 Vector  101  Occ=0.000000D+00  E= 8.287162D+00  Symmetry=t1
              MO Center=  4.9D-02, -1.1D-02,  8.8D-04, r^2= 1.3D+00
   Bfn.  Coefficient  Atom+Function         Bfn.  Coefficient  Atom+Function  
  ----- ------------  ---------------      ----- ------------  ---------------
    50      0.489178  2 H  px                88     -0.489178  4 H  px         
    70      0.460079  3 H  py                89     -0.460079  4 H  py         
    51     -0.443697  2 H  py               108      0.443697  5 H  py         
    69     -0.414598  3 H  px               107      0.414598  5 H  px         
    53     -0.347310  2 H  px                91      0.347310  4 H  px         
 
 Vector  102  Occ=0.000000D+00  E= 8.469297D+00  Symmetry=t2
              MO Center=  8.6D-03,  1.0D-01, -1.8D-03, r^2= 1.4D+00
   Bfn.  Coefficient  Atom+Function         Bfn.  Coefficient  Atom+Function  
  ----- ------------  ---------------      ----- ------------  ---------------
    13      1.357332  1 N  pz                66     -0.871848  3 H  s          
    85      0.846398  4 H  s                 52      0.622351  2 H  pz         
   109      0.615767  5 H  pz                67     -0.573360  3 H  s          
   104      0.567211  5 H  s                 86      0.556624  4 H  s          
    47     -0.541761  2 H  s                 90      0.543530  4 H  pz         
 
 Vector  103  Occ=0.000000D+00  E= 8.469297D+00  Symmetry=t2
              MO Center= -2.1D-02, -1.0D-01, -9.7D-02, r^2= 1.3D+00
   Bfn.  Coefficient  Atom+Function         Bfn.  Coefficient  Atom+Function  
  ----- ------------  ---------------      ----- ------------  ---------------
    11      1.327839  1 N  px                47     -0.990877  2 H  s          
   104      0.695354  5 H  s                 66      0.687539  3 H  s          
    48     -0.651639  2 H  s                 88      0.644528  4 H  px         
    69      0.568064  3 H  px               107      0.566042  5 H  px         
    74     -0.536181  3 H  pz               111     -0.536452  5 H  py         
 
 Vector  104  Occ=0.000000D+00  E= 8.469297D+00  Symmetry=t2
              MO Center=  1.3D-02, -2.7D-03,  9.9D-02, r^2= 1.4D+00
   Bfn.  Coefficient  Atom+Function         Bfn.  Coefficient  Atom+Function  
  ----- ------------  ---------------      ----- ------------  ---------------
    12      1.359188  1 N  py               104     -0.873820  5 H  s          
    85      0.835907  4 H  s                 51      0.623404  2 H  py         
    70      0.613595  3 H  py                66      0.579636  3 H  s          
   105     -0.574657  5 H  s                 86      0.549724  4 H  s          
    89      0.547288  4 H  py                47     -0.541723  2 H  s          
 
 Vector  105  Occ=0.000000D+00  E= 8.557868D+00  Symmetry=e
              MO Center=  7.7D-15,  1.4D-14,  4.2D-15, r^2= 1.3D+00
   Bfn.  Coefficient  Atom+Function         Bfn.  Coefficient  Atom+Function  
  ----- ------------  ---------------      ----- ------------  ---------------
    33      1.183810  1 N  dyy               30     -0.673325  1 N  dxx        
    54     -0.584028  2 H  py                73      0.584028  3 H  py         
    92      0.584028  4 H  py               111     -0.584028  5 H  py         
    51      0.542550  2 H  py                70     -0.542550  3 H  py         
    89     -0.542550  4 H  py               108      0.542550  5 H  py         
 
 Vector  106  Occ=0.000000D+00  E= 8.557868D+00  Symmetry=e
              MO Center=  5.4D-16,  1.2D-14, -2.1D-15, r^2= 1.3D+00
   Bfn.  Coefficient  Atom+Function         Bfn.  Coefficient  Atom+Function  
  ----- ------------  ---------------      ----- ------------  ---------------
    35     -1.072217  1 N  dzz               30      0.978201  1 N  dxx        
    55      0.528975  2 H  pz                74      0.528975  3 H  pz         
    93     -0.528975  4 H  pz               112     -0.528975  5 H  pz         
    52     -0.491406  2 H  pz                71     -0.491406  3 H  pz         
    90      0.491406  4 H  pz               109      0.491406  5 H  pz         
 
 Vector  107  Occ=0.000000D+00  E= 9.221401D+00  Symmetry=t2
              MO Center=  3.6D-01, -5.0D-02, -9.5D-02, r^2= 1.2D+00
   Bfn.  Coefficient  Atom+Function         Bfn.  Coefficient  Atom+Function  
  ----- ------------  ---------------      ----- ------------  ---------------
    85      5.730195  4 H  s                 12      4.743831  1 N  py         
    47     -4.763963  2 H  s                  8      2.887315  1 N  py         
    13      2.509115  1 N  pz                26      2.172816  1 N  dxz        
    32      2.173768  1 N  dxz              104     -2.099801  5 H  s          
    86      1.886477  4 H  s                 91     -1.736210  4 H  px         
 
 Vector  108  Occ=0.000000D+00  E= 9.221401D+00  Symmetry=t2
              MO Center= -6.1D-02,  3.7D-01, -1.1D-01, r^2= 1.1D+00
   Bfn.  Coefficient  Atom+Function         Bfn.  Coefficient  Atom+Function  
  ----- ------------  ---------------      ----- ------------  ---------------
   104      5.837669  5 H  s                 47     -4.740406  2 H  s          
    11      4.641748  1 N  px                 7      2.825183  1 N  px         
    13      2.669197  1 N  pz                28      2.126059  1 N  dyz        
    34      2.126990  1 N  dyz               85     -1.975656  4 H  s          
   105      1.921860  5 H  s                111     -1.762415  5 H  py         
 
 Vector  109  Occ=0.000000D+00  E= 9.221401D+00  Symmetry=t2
              MO Center= -3.0D-01, -3.2D-01,  2.0D-01, r^2= 1.1D+00
   Bfn.  Coefficient  Atom+Function         Bfn.  Coefficient  Atom+Function  
  ----- ------------  ---------------      ----- ------------  ---------------
    66      6.622832  3 H  s                 13     -3.978100  1 N  pz         
    85     -3.029870  4 H  s                104     -2.725971  5 H  s          
    11      2.693282  1 N  px                12      2.483245  1 N  py         
     9     -2.421256  1 N  pz                67      2.180349  3 H  s          
    73      1.867216  3 H  py                72      1.850100  3 H  px         
 
 Vector  110  Occ=0.000000D+00  E= 9.386710D+00  Symmetry=a1
              MO Center= -5.1D-13, -7.3D-14,  3.6D-14, r^2= 1.8D+00
   Bfn.  Coefficient  Atom+Function         Bfn.  Coefficient  Atom+Function  
  ----- ------------  ---------------      ----- ------------  ---------------
    40     11.316713  1 N  fxyz              14     -7.497025  1 N  s          
    30     -5.340323  1 N  dxx               33     -5.340323  1 N  dyy        
    35     -5.340323  1 N  dzz               10      5.183063  1 N  s          
    48      4.417065  2 H  s                 67      4.417065  3 H  s          
    86      4.417065  4 H  s                105      4.417065  5 H  s          
 
 Vector  111  Occ=0.000000D+00  E= 9.468616D+00  Symmetry=a1
              MO Center= -4.9D-14,  7.1D-14, -1.5D-13, r^2= 1.2D+00
   Bfn.  Coefficient  Atom+Function         Bfn.  Coefficient  Atom+Function  
  ----- ------------  ---------------      ----- ------------  ---------------
    40      5.736285  1 N  fxyz              24      1.903480  1 N  dxx        
    27      1.903480  1 N  dyy               29      1.903480  1 N  dzz        
    47      1.331501  2 H  s                 66      1.331501  3 H  s          
    85      1.331501  4 H  s                104      1.331501  5 H  s          
    10     -1.304747  1 N  s                  6     -1.293672  1 N  s          
 
 Vector  112  Occ=0.000000D+00  E= 1.074008D+01  Symmetry=e
              MO Center=  6.8D-17,  2.3D-17, -8.3D-17, r^2= 3.3D-01
   Bfn.  Coefficient  Atom+Function         Bfn.  Coefficient  Atom+Function  
  ----- ------------  ---------------      ----- ------------  ---------------
    27      1.388228  1 N  dyy               21     -1.190311  1 N  dyy        
    29     -0.950859  1 N  dzz               23      0.815297  1 N  dzz        
    24     -0.437369  1 N  dxx               18      0.375014  1 N  dxx        
    54     -0.356641  2 H  py                73      0.356641  3 H  py         
    92      0.356641  4 H  py               111     -0.356641  5 H  py         
 
 Vector  113  Occ=0.000000D+00  E= 1.074008D+01  Symmetry=e
              MO Center=  2.4D-16, -1.1D-16, -1.9D-16, r^2= 3.3D-01
   Bfn.  Coefficient  Atom+Function         Bfn.  Coefficient  Atom+Function  
  ----- ------------  ---------------      ----- ------------  ---------------
    24      1.350473  1 N  dxx               18     -1.157939  1 N  dxx        
    29     -1.054009  1 N  dzz               23      0.903741  1 N  dzz        
    53     -0.346942  2 H  px                72      0.346942  3 H  px         
    91     -0.346942  4 H  px               110      0.346942  5 H  px         
    63     -0.343081  2 H  dyz               82      0.343081  3 H  dyz        
 
 Vector  114  Occ=0.000000D+00  E= 1.088524D+01  Symmetry=t2
              MO Center=  7.4D-04, -5.0D-03, -2.0D-04, r^2= 3.5D-01
   Bfn.  Coefficient  Atom+Function         Bfn.  Coefficient  Atom+Function  
  ----- ------------  ---------------      ----- ------------  ---------------
     9      9.783741  1 N  pz                45     -5.587248  1 N  fzzz       
    38     -5.136447  1 N  fxxz              43     -5.136447  1 N  fyyz       
     5     -2.925425  1 N  pz                 7     -2.579984  1 N  px         
    36      1.473364  1 N  fxxx              39      1.354487  1 N  fxyy       
    41      1.354487  1 N  fxzz              13     -0.845067  1 N  pz         
 
 Vector  115  Occ=0.000000D+00  E= 1.088524D+01  Symmetry=t2
              MO Center= -1.5D-03,  4.8D-03, -5.5D-03, r^2= 3.5D-01
   Bfn.  Coefficient  Atom+Function         Bfn.  Coefficient  Atom+Function  
  ----- ------------  ---------------      ----- ------------  ---------------
     7      9.327585  1 N  px                36     -5.326749  1 N  fxxx       
    39     -4.896966  1 N  fxyy              41     -4.896966  1 N  fxzz       
     8     -2.980257  1 N  py                 3     -2.789030  1 N  px         
     9      2.576809  1 N  pz                42      1.701950  1 N  fyyy       
    37      1.564630  1 N  fxxy              44      1.564630  1 N  fyzz       
 
 Vector  116  Occ=0.000000D+00  E= 1.088524D+01  Symmetry=t2
              MO Center=  7.7D-04,  2.4D-04,  5.7D-03, r^2= 3.5D-01
   Bfn.  Coefficient  Atom+Function         Bfn.  Coefficient  Atom+Function  
  ----- ------------  ---------------      ----- ------------  ---------------
     8      9.669332  1 N  py                42     -5.521912  1 N  fyyy       
    37     -5.076382  1 N  fxxy              44     -5.076382  1 N  fyzz       
     7      2.977509  1 N  px                 4     -2.891215  1 N  py         
    36     -1.700380  1 N  fxxx              39     -1.563187  1 N  fxyy       
    41     -1.563187  1 N  fxzz               3     -0.890301  1 N  px         
 
 Vector  117  Occ=0.000000D+00  E= 1.249115D+01  Symmetry=t2
              MO Center= -5.1D-02,  1.2D-01, -6.3D-02, r^2= 4.7D-01
   Bfn.  Coefficient  Atom+Function         Bfn.  Coefficient  Atom+Function  
  ----- ------------  ---------------      ----- ------------  ---------------
    28      4.310767  1 N  dyz               39      3.629577  1 N  fxyy       
    41      3.629577  1 N  fxzz              25      3.480712  1 N  dxy        
    38      2.930687  1 N  fxxz              43      2.930687  1 N  fyyz       
    36      2.031944  1 N  fxxx              26     -1.862022  1 N  dxz        
   110      1.652706  5 H  px                45      1.640685  1 N  fzzz       
 
 Vector  118  Occ=0.000000D+00  E= 1.249115D+01  Symmetry=t2
              MO Center= -6.6D-02, -1.1D-01,  7.0D-02, r^2= 4.7D-01
   Bfn.  Coefficient  Atom+Function         Bfn.  Coefficient  Atom+Function  
  ----- ------------  ---------------      ----- ------------  ---------------
    28     -3.943587  1 N  dyz               25      3.675143  1 N  dxy        
    39     -3.320419  1 N  fxyy              41     -3.320419  1 N  fxzz       
    38      3.094394  1 N  fxxz              43      3.094394  1 N  fyyz       
    26     -2.259788  1 N  dxz               37     -1.902695  1 N  fxxy       
    44     -1.902695  1 N  fyzz              36     -1.858869  1 N  fxxx       
 
 Vector  119  Occ=0.000000D+00  E= 1.249115D+01  Symmetry=t2
              MO Center=  1.2D-01, -4.0D-03, -7.0D-03, r^2= 4.8D-01
   Bfn.  Coefficient  Atom+Function         Bfn.  Coefficient  Atom+Function  
  ----- ------------  ---------------      ----- ------------  ---------------
    26      5.058797  1 N  dxz               37      4.259402  1 N  fxxy       
    44      4.259402  1 N  fyzz              25      2.922870  1 N  dxy        
    38      2.460996  1 N  fxxz              43      2.460996  1 N  fyyz       
    42      2.384539  1 N  fyyy              20     -1.817813  1 N  dxz        
     8     -1.742771  1 N  py                92      1.424720  4 H  py         
 
 Vector  120  Occ=0.000000D+00  E= 1.419019D+01  Symmetry=a1
              MO Center=  1.6D-14,  1.0D-14, -1.3D-14, r^2= 8.1D-01
   Bfn.  Coefficient  Atom+Function         Bfn.  Coefficient  Atom+Function  
  ----- ------------  ---------------      ----- ------------  ---------------
     6     16.929213  1 N  s                 24     -9.886007  1 N  dxx        
    27     -9.886007  1 N  dyy               29     -9.886007  1 N  dzz        
    40     -8.341319  1 N  fxyz               2     -4.483204  1 N  s          
    18     -3.949486  1 N  dxx               21     -3.949486  1 N  dyy        
    23     -3.949486  1 N  dzz               53     -1.912984  2 H  px         
 
 Vector  121  Occ=0.000000D+00  E= 4.272488D+01  Symmetry=a1
              MO Center=  1.8D-16, -8.7D-18, -6.7D-18, r^2= 6.6D-02
   Bfn.  Coefficient  Atom+Function         Bfn.  Coefficient  Atom+Function  
  ----- ------------  ---------------      ----- ------------  ---------------
     6      3.866863  1 N  s                  1     -2.135835  1 N  s          
     2      1.797593  1 N  s                 10      1.096657  1 N  s          
    18     -0.982532  1 N  dxx               21     -0.982532  1 N  dyy        
    23     -0.982532  1 N  dzz               40      0.778036  1 N  fxyz       
    24     -0.752465  1 N  dxx               27     -0.752465  1 N  dyy        
 

 center of mass
 --------------
 x =   0.00000000 y =   0.00000000 z =   0.00000000

 moments of inertia (a.u.)
 ------------------
          10.152759392735           0.000000000000           0.000000000000
           0.000000000000          10.152759392735           0.000000000000
           0.000000000000           0.000000000000          10.152759392735
 
     Multipole analysis of the density
     ---------------------------------
 
     L   x y z        total         alpha         beta         nuclear
     -   - - -        -----         -----         ----         -------
     0   0 0 0      1.000000     -5.000000     -5.000000     11.000000
 
     1   1 0 0      0.000000      0.000000      0.000000      0.000000
     1   0 1 0     -0.000000     -0.000000     -0.000000      0.000000
     1   0 0 1     -0.000000     -0.000000     -0.000000      0.000000
 
     2   2 0 0     -3.208710     -4.122838     -4.122838      5.036965
     2   1 1 0      0.000000      0.000000      0.000000      0.000000
     2   1 0 1      0.000000      0.000000      0.000000      0.000000
     2   0 2 0     -3.208710     -4.122838     -4.122838      5.036965
     2   0 1 1      0.000000      0.000000      0.000000      0.000000
     2   0 0 2     -3.208710     -4.122838     -4.122838      5.036965
 

------------------------------------------------------------
EAF file 0: "./NH3+.xyz.aoints.00" size=2097152 bytes
------------------------------------------------------------
               write      read    awrite     aread      wait
               -----      ----    ------     -----      ----
     calls:        6         6         0        16        16
   data(b): 3.15e+06  3.15e+06  0.00e+00  8.39e+06
   time(s): 0.00e+00  0.00e+00  0.00e+00  0.00e+00  0.00e+00
rate(mb/s): 0.00e+00  0.00e+00
------------------------------------------------------------


 Parallel integral file used     105 records with       0 large values


 Task  times  cpu:        1.7s     wall:        2.7s
 
 
                                NWChem Input Module
                                -------------------
 
 
 Summary of allocated global arrays
-----------------------------------
  No active global arrays



                         GA Statistics for process    0
                         ------------------------------

       create   destroy   get      put      acc     scatter   gather  read&inc
calls:  200      200     1845      874     1228        0        0      184     
number of processes/call 2.65e+00 1.69e+00 2.04e+00 0.00e+00 0.00e+00
bytes total:             2.92e+07 3.87e+06 2.19e+07 0.00e+00 0.00e+00 1.47e+03
bytes remote:            2.38e+07 1.94e+06 1.29e+07 0.00e+00 0.00e+00 0.00e+00
Max memory consumed for GA by this process: 768856 bytes
 
MA_summarize_allocated_blocks: starting scan ...
MA_summarize_allocated_blocks: scan completed: 0 heap blocks, 0 stack blocks
MA usage statistics:

	allocation statistics:
					      heap	     stack
					      ----	     -----
	current number of blocks	         0	         0
	maximum number of blocks	        22	        57
	current total bytes		         0	         0
	maximum total bytes		   2322744	  24004328
	maximum total K-bytes		      2323	     24005
	maximum total M-bytes		         3	        25
 
 
                                     CITATION
                                     --------
                Please cite the following reference when publishing
                           results obtained with NWChem:
 
                 M. Valiev, E.J. Bylaska, N. Govind, K. Kowalski,
              T.P. Straatsma, H.J.J. van Dam, D. Wang, J. Nieplocha,
                        E. Apra, T.L. Windus, W.A. de Jong
                 "NWChem: a comprehensive and scalable open-source
                  solution for large scale molecular simulations"
                      Comput. Phys. Commun. 181, 1477 (2010)
                           doi:10.1016/j.cpc.2010.04.018
 
                                      AUTHORS
                                      -------
          E. Apra, E. J. Bylaska, W. A. de Jong, N. Govind, K. Kowalski,
       T. P. Straatsma, M. Valiev, H. J. J. van Dam, D. Wang, T. L. Windus,
        J. Hammond, J. Autschbach, K. Bhaskaran-Nair, J. Brabec, K. Lopata,
    S. A. Fischer, S. Krishnamoorthy, M. Jacquelin, W. Ma, M. Klemm, O. Villa,
      Y. Chen, V. Anisimov, F. Aquino, S. Hirata, M. T. Hackler, V. Konjkov,
            D. Mejia-Rodriguez, T. Risthaus, M. Malagoli, A. Marenich,
   A. Otero-de-la-Roza, J. Mullin, P. Nichols, R. Peverati, J. Pittner, Y. Zhao,
        P.-D. Fan, A. Fonari, M. J. Williamson, R. J. Harrison, J. R. Rehr,
      M. Dupuis, D. Silverstein, D. M. A. Smith, J. Nieplocha, V. Tipparaju,
    M. Krishnan, B. E. Van Kuiken, A. Vazquez-Mayagoitia, L. Jensen, M. Swart,
      Q. Wu, T. Van Voorhis, A. A. Auer, M. Nooijen, L. D. Crosby, E. Brown,
      G. Cisneros, G. I. Fann, H. Fruchtl, J. Garza, K. Hirao, R. A. Kendall,
      J. A. Nichols, K. Tsemekhman, K. Wolinski, J. Anchell, D. E. Bernholdt,
      P. Borowski, T. Clark, D. Clerc, H. Dachsel, M. J. O. Deegan, K. Dyall,
    D. Elwood, E. Glendening, M. Gutowski, A. C. Hess, J. Jaffe, B. G. Johnson,
     J. Ju, R. Kobayashi, R. Kutteh, Z. Lin, R. Littlefield, X. Long, B. Meng,
      T. Nakajima, S. Niu, L. Pollack, M. Rosing, K. Glaesemann, G. Sandrone,
      M. Stave, H. Taylor, G. Thomas, J. H. van Lenthe, A. T. Wong, Z. Zhang.

 Total times  cpu:        1.7s     wall:        3.0s
