 argument  1 = /storage/home/rabeet/work/nwc/pa8/nwtpss/PH3+.xyz.nw
  NWChem w/ OpenMP: maximum threads =  1
                                         
                                         
 
 
              Northwest Computational Chemistry Package (NWChem) 6.8
              ------------------------------------------------------
 
 
                    Environmental Molecular Sciences Laboratory
                       Pacific Northwest National Laboratory
                                Richland, WA 99352
 
                              Copyright (c) 1994-2018
                       Pacific Northwest National Laboratory
                            Battelle Memorial Institute
 
             NWChem is an open-source computational chemistry package
                        distributed under the terms of the
                      Educational Community License (ECL) 2.0
             A copy of the license is included with this distribution
                              in the LICENSE.TXT file
 
                                  ACKNOWLEDGMENT
                                  --------------

            This software and its documentation were developed at the
            EMSL at Pacific Northwest National Laboratory, a multiprogram
            national laboratory, operated for the U.S. Department of Energy
            by Battelle under Contract Number DE-AC05-76RL01830. Support
            for this work was provided by the Department of Energy Office
            of Biological and Environmental Research, Office of Basic
            Energy Sciences, and the Office of Advanced Scientific Computing.


           Job information
           ---------------

    hostname        = r8n4.niserhpc.org
    program         = /home/rabeet/nwchem-6.8/bin/LINUX64/nwchem
    date            = Sun Oct 27 10:45:51 2019

    compiled        = Fri_Jun_28_18:24:12_2019
    source          = /home/rabeet/nwchem-6.8
    nwchem branch   = Development
    nwchem revision = N/A
    ga revision     = 5.6.5
    use scalapack   = T
    input           = /storage/home/rabeet/work/nwc/pa8/nwtpss/PH3+.xyz.nw
    prefix          = PH3+.xyz.
    data base       = ./PH3+.xyz.db
    status          = startup
    nproc           =       16
    time left       =     -1s



           Memory information
           ------------------

    heap     =   13107198 doubles =    100.0 Mbytes
    stack    =   13107195 doubles =    100.0 Mbytes
    global   =   26214400 doubles =    200.0 Mbytes (distinct from heap & stack)
    total    =   52428793 doubles =    400.0 Mbytes
    verify   = yes
    hardfail = no 


           Directory information
           ---------------------
 
  0 permanent = .
  0 scratch   = .
 
 
 
 
                                NWChem Input Module
                                -------------------
 
 

 Scaling coordinates for geometry "geometry" by  1.889725989
 (inverse scale =  0.529177249)

 C3V symmetry detected

          ------
          auto-z
          ------
  Looking for out-of-plane bends
  no constraints, skipping   0.000000000000000E+000
  no constraints, skipping   0.000000000000000E+000
 
 
                             Geometry "geometry" -> ""
                             -------------------------
 
 Output coordinates in angstroms (scale by  1.889725989 to convert to a.u.)
 
  No.       Tag          Charge          X              Y              Z
 ---- ---------------- ---------- -------------- -------------- --------------
    1 P                   15.0000    -0.00000000    -0.00000000     0.00000053
    2 H                    1.0000    -0.00000000    -0.00000000     1.39292053
    3 H                    1.0000     0.92861239     0.92861239    -0.46430947
    4 H                    1.0000     0.33989572    -1.26850811    -0.46430947
    5 H                    1.0000    -1.26850811     0.33989572    -0.46430947
 
      Atomic Mass 
      ----------- 
 
      P                 30.973760
      H                  1.007825
 

 Effective nuclear repulsion energy (a.u.)      24.1901609506

            Nuclear Dipole moment (a.u.) 
            ----------------------------
        X                 Y               Z
 ---------------- ---------------- ----------------
     0.0000000000     0.0000000000    -0.0000000000
 
      Symmetry information
      --------------------
 
 Group name             C3v       
 Group number             17
 Group order               6
 No. of unique centers     3
 
      Symmetry unique atoms
 
     1    2    3
 


                                Z-matrix (autoz)
                                -------- 

 Units are Angstrom for bonds and degrees for angles
 
      Type          Name      I     J     K     L     M      Value
      ----------- --------  ----- ----- ----- ----- ----- ----------
    1 Stretch                  1     2                       1.39292
    2 Stretch                  1     3                       1.39292
    3 Stretch                  1     4                       1.39292
    4 Stretch                  1     5                       1.39292
    5 Bend                     2     1     3               109.47137
    6 Bend                     2     1     4               109.47137
    7 Bend                     2     1     5               109.47137
    8 Bend                     3     1     4               109.47107
    9 Bend                     3     1     5               109.47107
   10 Bend                     4     1     5               109.47107
 
 
            XYZ format geometry
            -------------------
     5
 geometry
 P                    -0.00000000    -0.00000000     0.00000053
 H                    -0.00000000    -0.00000000     1.39292053
 H                     0.92861239     0.92861239    -0.46430947
 H                     0.33989572    -1.26850811    -0.46430947
 H                    -1.26850811     0.33989572    -0.46430947
 
 ==============================================================================
                                internuclear distances
 ------------------------------------------------------------------------------
       center one      |      center two      | atomic units |  angstroms
 ------------------------------------------------------------------------------
    2 H                |   1 P                |     2.63224  |     1.39292
    3 H                |   1 P                |     2.63224  |     1.39292
    4 H                |   1 P                |     2.63224  |     1.39292
    5 H                |   1 P                |     2.63224  |     1.39292
 ------------------------------------------------------------------------------
                         number of included internuclear distances:          4
 ==============================================================================



 ==============================================================================
                                 internuclear angles
 ------------------------------------------------------------------------------
        center 1       |       center 2       |       center 3       |  degrees
 ------------------------------------------------------------------------------
    2 H                |   1 P                |   3 H                |   109.47
    2 H                |   1 P                |   4 H                |   109.47
    2 H                |   1 P                |   5 H                |   109.47
    3 H                |   1 P                |   4 H                |   109.47
    3 H                |   1 P                |   5 H                |   109.47
    4 H                |   1 P                |   5 H                |   109.47
 ------------------------------------------------------------------------------
                            number of included internuclear angles:          6
 ==============================================================================





 Summary of "ao basis" -> "" (cartesian)
 ------------------------------------------------------------------------------
       Tag                 Description            Shells   Functions and Types
 ---------------- ------------------------------  ------  ---------------------
 *                     6-311++G(3df,3pd)              on all atoms 


 
                                 NWChem DFT Module
                                 -----------------
 
 
                      Basis "ao basis" -> "ao basis" (cartesian)
                      -----
  P (Phosphorous)
  ---------------
            Exponent  Coefficients 
       -------------- ---------------------------------------------------------
  1 S  7.74924000E+04  0.000781
  1 S  1.16058000E+04  0.006068
  1 S  2.64596000E+03  0.031160
  1 S  7.54976000E+02  0.123431
  1 S  2.48755000E+02  0.378209
  1 S  9.11565000E+01  0.563262
 
  2 S  9.11565000E+01  0.160255
  2 S  3.62257000E+01  0.627647
  2 S  1.52113000E+01  0.263849
 
  3 S  4.79417000E+00  1.000000
 
  4 S  1.80793000E+00  1.000000
 
  5 S  3.56816000E-01  1.000000
 
  6 S  1.14783000E-01  1.000000
 
  7 P  3.84843000E+02  0.009206
  7 P  9.05521000E+01  0.069874
  7 P  2.91339000E+01  0.292470
  7 P  1.08862000E+01  0.728103
 
  8 P  4.35259000E+00  0.628349
  8 P  1.77706000E+00  0.428044
 
  9 P  6.97005000E-01  1.000000
 
 10 P  2.53532000E-01  1.000000
 
 11 P  6.84930000E-02  1.000000
 
 12 S  3.48000000E-02  1.000000
 
 13 P  3.48000000E-02  1.000000
 
 14 D  2.20000000E+00  1.000000
 
 15 D  5.50000000E-01  1.000000
 
 16 D  1.37500000E-01  1.000000
 
 17 F  4.50000000E-01  1.000000
 
  H (Hydrogen)
  ------------
            Exponent  Coefficients 
       -------------- ---------------------------------------------------------
  1 S  3.38650000E+01  0.025494
  1 S  5.09479000E+00  0.190373
  1 S  1.15879000E+00  0.852161
 
  2 S  3.25840000E-01  1.000000
 
  3 S  1.02741000E-01  1.000000
 
  4 S  3.60000000E-02  1.000000
 
  5 P  3.00000000E+00  1.000000
 
  6 P  7.50000000E-01  1.000000
 
  7 P  1.87500000E-01  1.000000
 
  8 D  1.00000000E+00  1.000000
 


 Summary of "ao basis" -> "ao basis" (cartesian)
 ------------------------------------------------------------------------------
       Tag                 Description            Shells   Functions and Types
 ---------------- ------------------------------  ------  ---------------------
 P                     6-311++G(3df,3pd)            17       53   7s6p3d1f
 H                     6-311++G(3df,3pd)             8       19   4s3p1d




 Summary of "ao basis" -> "ao basis" (cartesian)
 ------------------------------------------------------------------------------
       Tag                 Description            Shells   Functions and Types
 ---------------- ------------------------------  ------  ---------------------
 P                     6-311++G(3df,3pd)            17       53   7s6p3d1f
 H                     6-311++G(3df,3pd)             8       19   4s3p1d


      Symmetry analysis of basis
      --------------------------
 
        a1         45
        a2          6
        e          78
 
  Caching 1-el integrals 
  Rotation of axis 
 
            General Information
            -------------------
          SCF calculation type: DFT
          Wavefunction type:  closed shell.
          No. of atoms     :     5
          No. of electrons :    18
           Alpha electrons :     9
            Beta electrons :     9
          Charge           :     1
          Spin multiplicity:     1
          Use of symmetry is: on ; symmetry adaption is: on 
          Maximum number of iterations: ***
          AO basis - number of functions:   129
                     number of shells:    49
          Convergence on energy requested:  1.00D-06
          Convergence on density requested:  1.00D-05
          Convergence on gradient requested:  5.00D-04
 
              XC Information
              --------------
                  TPSS metaGGA Exchange Functional  1.000          
             TPSS03 metaGGA Correlation Functional  1.000          
 
             Grid Information
             ----------------
          Grid used for XC integration:  medium    
          Radial quadrature: Mura-Knowles        
          Angular quadrature: Lebedev. 
          Tag              B.-S. Rad. Rad. Pts. Rad. Cut. Ang. Pts.
          ---              ---------- --------- --------- ---------
          P                   1.00       88          11.0       590
          H                   0.35       45          12.0       434
          Grid pruning is: on 
          Number of quadrature shells:   178
          Spatial weights used:  Erf1
 
          Convergence Information
          -----------------------
          Convergence aids based upon iterative change in 
          total energy or number of iterations. 
          Levelshifting, if invoked, occurs when the 
          HOMO/LUMO gap drops below (HL_TOL):  1.00D-02
          DIIS, if invoked, will attempt to extrapolate 
          using up to (NFOCK): 10 stored Fock matrices.

                    Damping( 0%)  Levelshifting(0.5)       DIIS
                  --------------- ------------------- ---------------
          dE  on:    start            ASAP                start   
          dE off:    2 iters        *** iters           *** iters 

 
      Screening Tolerance Information
      -------------------------------
          Density screening/tol_rho:  1.00D-10
          AO Gaussian exp screening on grid/accAOfunc:  14
          CD Gaussian exp screening on grid/accCDfunc:  20
          XC Gaussian exp screening on grid/accXCfunc:  20
          Schwarz screening/accCoul:  1.00D-08

 
      Superposition of Atomic Density Guess
      -------------------------------------
 
 Sum of atomic energies:        -342.64974827

 Renormalizing density from      19.00 to     18
 
      Non-variational initial energy
      ------------------------------

 Total energy =    -331.400305
 1-e energy   =    -493.420749
 2-e energy   =     137.830282
 HOMO         =      -0.941380
 LUMO         =      -0.272302
 
 
      Symmetry analysis of molecular orbitals - initial
      -------------------------------------------------
 
  Numbering of irreducible representations: 
 
     1 a1          2 a2          3 e       
 
  Orbital symmetries:
 
     1 a1          2 a1          3 a1          4 e           5 e       
     6 a1          7 a1          8 e           9 e          10 e       
    11 e          12 a1         13 a1         14 e          15 e       
    16 a1         17 e          18 e          19 a1      
 
   Time after variat. SCF:      0.8
   Time prior to 1st pass:      0.8

 Integral file          = ./PH3+.xyz.aoints.00
 Record size in doubles =  65536        No. of integs per rec  =  43688
 Max. records in memory =     16        Max. records in file   = 380862
 No. of bits per label  =      8        No. of bits per value  =     64


 #quartets = 2.519D+05 #integrals = 1.003D+07 #direct =  0.0% #cached =100.0%


File balance: exchanges=    24  moved=    25  time=   0.0


 Grid_pts file          = ./PH3+.xyz.gridpts.00
 Record size in doubles =  12289        No. of grid_pts per rec  =   3070
 Max. records in memory =      4        Max. recs in file   =  47473427


           Memory utilization after 1st SCF pass: 
           Heap Space remaining (MW):       12.00            12004910
          Stack Space remaining (MW):       13.11            13106380

   convergence    iter        energy       DeltaE   RMS-Dens  Diis-err    time
 ---------------- ----- ----------------- --------- --------- ---------  ------
 d= 0,ls=0.0,diis     1   -343.3028809982 -3.67D+02  1.17D-02  5.67D+00     4.6
 d= 0,ls=0.0,diis     2   -343.3800518850 -7.72D-02  4.47D-03  2.32D+00     4.8
 d= 0,ls=0.0,diis     3   -343.4934316176 -1.13D-01  7.44D-04  1.78D-02     4.9
 d= 0,ls=0.0,diis     4   -343.4958136372 -2.38D-03  1.63D-04  1.14D-03     5.1
 d= 0,ls=0.0,diis     5   -343.4959840781 -1.70D-04  4.73D-06  4.45D-07     5.2
 d= 0,ls=0.0,diis     6   -343.4959841054 -2.73D-08  5.65D-07  3.45D-09     5.4


         Total DFT energy =     -343.495984105398
      One electron energy =     -516.459228927813
           Coulomb energy =      173.278337470520
          Exchange energy =      -23.860873206291
       Correlation energy =       -0.644380392433
 Nuclear repulsion energy =       24.190160950619

 Numeric. integr. density =       17.999992649270

     Total iterative time =      4.6s


 
                  Occupations of the irreducible representations
                  ----------------------------------------------
 
                     irrep           alpha         beta
                     --------     --------     --------
                     a1                5.0          5.0
                     a2                0.0          0.0
                     e                 4.0          4.0
 
 
                       DFT Final Molecular Orbital Analysis
                       ------------------------------------
 
 Vector    1  Occ=2.000000D+00  E=-7.690610D+01  Symmetry=a1
              MO Center= -4.8D-23,  4.5D-23,  5.3D-07, r^2= 4.1D-03
   Bfn.  Coefficient  Atom+Function         Bfn.  Coefficient  Atom+Function  
  ----- ------------  ---------------      ----- ------------  ---------------
     2      0.645121  1 P  s                  1      0.419623  1 P  s          
 
 Vector    2  Occ=2.000000D+00  E=-6.691939D+00  Symmetry=a1
              MO Center= -1.4D-15,  2.0D-15,  5.6D-07, r^2= 9.0D-02
   Bfn.  Coefficient  Atom+Function         Bfn.  Coefficient  Atom+Function  
  ----- ------------  ---------------      ----- ------------  ---------------
     4      0.593013  1 P  s                  3      0.506516  1 P  s          
     2     -0.312445  1 P  s                  5      0.125146  1 P  s          
     1     -0.119784  1 P  s                  6     -0.053073  1 P  s          
 
 Vector    3  Occ=2.000000D+00  E=-4.868241D+00  Symmetry=e
              MO Center= -7.6D-07, -1.0D-05,  7.8D-06, r^2= 8.3D-02
   Bfn.  Coefficient  Atom+Function         Bfn.  Coefficient  Atom+Function  
  ----- ------------  ---------------      ----- ------------  ---------------
    10      0.619569  1 P  px                 7      0.370250  1 P  px         
    11      0.283972  1 P  py                 8      0.169699  1 P  py         
    13      0.048395  1 P  px         
 
 Vector    4  Occ=2.000000D+00  E=-4.868241D+00  Symmetry=e
              MO Center=  7.6D-07,  1.0D-05,  7.8D-06, r^2= 8.3D-02
   Bfn.  Coefficient  Atom+Function         Bfn.  Coefficient  Atom+Function  
  ----- ------------  ---------------      ----- ------------  ---------------
    11      0.619569  1 P  py                 8      0.370250  1 P  py         
    10     -0.283972  1 P  px                 7     -0.169699  1 P  px         
    14      0.048395  1 P  py         
 
 Vector    5  Occ=2.000000D+00  E=-4.868240D+00  Symmetry=a1
              MO Center= -3.7D-16,  8.2D-16, -1.4D-05, r^2= 8.3D-02
   Bfn.  Coefficient  Atom+Function         Bfn.  Coefficient  Atom+Function  
  ----- ------------  ---------------      ----- ------------  ---------------
    12      0.681547  1 P  pz                 9      0.407287  1 P  pz         
    15      0.053236  1 P  pz         
 
 Vector    6  Occ=2.000000D+00  E=-9.164046D-01  Symmetry=a1
              MO Center= -9.2D-16, -1.4D-15,  9.0D-07, r^2= 1.3D+00
   Bfn.  Coefficient  Atom+Function         Bfn.  Coefficient  Atom+Function  
  ----- ------------  ---------------      ----- ------------  ---------------
     6      0.489140  1 P  s                  5      0.450266  1 P  s          
     4     -0.319481  1 P  s                  3     -0.186109  1 P  s          
     2      0.086390  1 P  s                 55      0.082251  2 H  s          
    74      0.082253  3 H  s                 93      0.082253  4 H  s          
   112      0.082253  5 H  s                 38     -0.076561  1 P  dxx        
 
 Vector    7  Occ=2.000000D+00  E=-6.632701D-01  Symmetry=a1
              MO Center= -7.5D-18,  2.6D-17,  5.3D-01, r^2= 1.6D+00
   Bfn.  Coefficient  Atom+Function         Bfn.  Coefficient  Atom+Function  
  ----- ------------  ---------------      ----- ------------  ---------------
    55      0.291222  2 H  s                 18      0.265812  1 P  pz         
    15      0.197931  1 P  pz                54      0.176196  2 H  s          
    56      0.154562  2 H  s                 12     -0.147825  1 P  pz         
    74     -0.097073  3 H  s                 93     -0.097073  4 H  s          
   112     -0.097073  5 H  s                  9     -0.086125  1 P  pz         
 
 Vector    8  Occ=2.000000D+00  E=-6.632692D-01  Symmetry=e
              MO Center= -3.5D-01,  1.4D-01, -2.6D-01, r^2= 1.6D+00
   Bfn.  Coefficient  Atom+Function         Bfn.  Coefficient  Atom+Function  
  ----- ------------  ---------------      ----- ------------  ---------------
   112     -0.274049  5 H  s                 16      0.260486  1 P  px         
    13      0.193969  1 P  px               111     -0.165807  5 H  s          
    74      0.151606  3 H  s                 10     -0.144865  1 P  px         
   113     -0.145450  5 H  s                 93      0.122443  4 H  s          
    73      0.091726  3 H  s                  7     -0.084401  1 P  px         
 
 Vector    9  Occ=2.000000D+00  E=-6.632692D-01  Symmetry=e
              MO Center=  3.5D-01, -1.4D-01, -2.6D-01, r^2= 1.6D+00
   Bfn.  Coefficient  Atom+Function         Bfn.  Coefficient  Atom+Function  
  ----- ------------  ---------------      ----- ------------  ---------------
    17      0.260486  1 P  py                93     -0.245752  4 H  s          
    74      0.228915  3 H  s                 14      0.193969  1 P  py         
    92     -0.148686  4 H  s                 11     -0.144865  1 P  py         
    73      0.138499  3 H  s                 94     -0.130432  4 H  s          
    75      0.121495  3 H  s                  8     -0.084401  1 P  py         
 
 Vector   10  Occ=0.000000D+00  E=-2.510442D-01  Symmetry=a1
              MO Center=  2.2D-16,  8.4D-16, -1.6D-01, r^2= 2.9D+00
   Bfn.  Coefficient  Atom+Function         Bfn.  Coefficient  Atom+Function  
  ----- ------------  ---------------      ----- ------------  ---------------
    18      0.774314  1 P  pz                56     -0.525131  2 H  s          
    21      0.474814  1 P  pz                57     -0.476563  2 H  s          
    55     -0.277238  2 H  s                 25      0.248668  1 P  pz         
    43     -0.242840  1 P  dzz               37     -0.185638  1 P  dzz        
    75      0.175043  3 H  s                 94      0.175043  4 H  s          
 
 Vector   11  Occ=0.000000D+00  E=-2.510441D-01  Symmetry=e
              MO Center= -1.1D-01,  3.1D-02,  8.1D-02, r^2= 2.9D+00
   Bfn.  Coefficient  Atom+Function         Bfn.  Coefficient  Atom+Function  
  ----- ------------  ---------------      ----- ------------  ---------------
    17      0.749126  1 P  py                20      0.459366  1 P  py         
    94      0.430259  4 H  s                 75     -0.427256  3 H  s          
    95      0.390465  4 H  s                 76     -0.387739  3 H  s          
    39     -0.296361  1 P  dxy               24      0.240584  1 P  py         
    42      0.234936  1 P  dyz               33     -0.226552  1 P  dxy        
 
 Vector   12  Occ=0.000000D+00  E=-2.510441D-01  Symmetry=e
              MO Center=  1.1D-01, -3.1D-02,  8.1D-02, r^2= 2.9D+00
   Bfn.  Coefficient  Atom+Function         Bfn.  Coefficient  Atom+Function  
  ----- ------------  ---------------      ----- ------------  ---------------
    16      0.749126  1 P  px               113      0.495087  5 H  s          
    19      0.459366  1 P  px               114      0.449296  5 H  s          
   112      0.261377  5 H  s                 75     -0.250145  3 H  s          
    94     -0.244942  4 H  s                 23      0.240584  1 P  px         
    40      0.234936  1 P  dxz               76     -0.227009  3 H  s          
 
 Vector   13  Occ=0.000000D+00  E=-2.233432D-01  Symmetry=a1
              MO Center=  9.0D-15, -1.5D-14, -4.2D-06, r^2= 5.8D+00
   Bfn.  Coefficient  Atom+Function         Bfn.  Coefficient  Atom+Function  
  ----- ------------  ---------------      ----- ------------  ---------------
     6      1.183563  1 P  s                 22      0.581443  1 P  s          
     5      0.413197  1 P  s                 56     -0.335043  2 H  s          
    75     -0.335047  3 H  s                 94     -0.335047  4 H  s          
   113     -0.335047  5 H  s                 57     -0.296306  2 H  s          
    76     -0.296333  3 H  s                 95     -0.296333  4 H  s          
 
 Vector   14  Occ=0.000000D+00  E=-1.265992D-01  Symmetry=e
              MO Center= -8.6D-06, -1.4D-05,  2.4D-05, r^2= 3.0D+00
   Bfn.  Coefficient  Atom+Function         Bfn.  Coefficient  Atom+Function  
  ----- ------------  ---------------      ----- ------------  ---------------
    42      0.705047  1 P  dyz               40     -0.559770  1 P  dxz        
    38      0.316207  1 P  dxx               41     -0.316207  1 P  dyy        
    36      0.256373  1 P  dyz               34     -0.203546  1 P  dxz        
    32      0.114979  1 P  dxx               35     -0.114979  1 P  dyy        
   104     -0.083310  4 H  pz                65      0.075434  2 H  py         
 
 Vector   15  Occ=0.000000D+00  E=-1.265992D-01  Symmetry=e
              MO Center=  8.6D-06,  1.4D-05,  2.4D-05, r^2= 3.0D+00
   Bfn.  Coefficient  Atom+Function         Bfn.  Coefficient  Atom+Function  
  ----- ------------  ---------------      ----- ------------  ---------------
    40      0.705047  1 P  dxz               39      0.632415  1 P  dxy        
    42      0.559770  1 P  dyz               34      0.256373  1 P  dxz        
    33      0.229958  1 P  dxy               36      0.203546  1 P  dyz        
    85      0.090215  3 H  pz               102     -0.088660  4 H  px         
   122     -0.079686  5 H  py                64      0.075434  2 H  px         
 
 Vector   16  Occ=0.000000D+00  E=-1.242799D-01  Symmetry=e
              MO Center=  2.1D-01,  9.7D-02, -1.7D-01, r^2= 1.1D+01
   Bfn.  Coefficient  Atom+Function         Bfn.  Coefficient  Atom+Function  
  ----- ------------  ---------------      ----- ------------  ---------------
    24      0.681999  1 P  py                23      0.471238  1 P  px         
    76      0.403455  3 H  s                 17     -0.273152  1 P  py         
    95     -0.265583  4 H  s                 16     -0.188739  1 P  px         
    20     -0.161591  1 P  py               114     -0.137872  5 H  s          
    19     -0.111653  1 P  px                14     -0.079947  1 P  py         
 
 Vector   17  Occ=0.000000D+00  E=-1.242799D-01  Symmetry=e
              MO Center= -2.1D-01, -9.7D-02, -1.7D-01, r^2= 1.1D+01
   Bfn.  Coefficient  Atom+Function         Bfn.  Coefficient  Atom+Function  
  ----- ------------  ---------------      ----- ------------  ---------------
    23      0.681999  1 P  px                24     -0.471238  1 P  py         
   114     -0.386269  5 H  s                 95      0.312535  4 H  s          
    16     -0.273152  1 P  px                17      0.188739  1 P  py         
    19     -0.161591  1 P  px                20      0.111653  1 P  py         
    13     -0.079947  1 P  px                76      0.073734  3 H  s          
 
 Vector   18  Occ=0.000000D+00  E=-1.242797D-01  Symmetry=a1
              MO Center= -6.3D-10,  4.4D-10,  3.3D-01, r^2= 1.1D+01
   Bfn.  Coefficient  Atom+Function         Bfn.  Coefficient  Atom+Function  
  ----- ------------  ---------------      ----- ------------  ---------------
    25      0.828893  1 P  pz                57      0.435129  2 H  s          
    18     -0.331993  1 P  pz                21     -0.196363  1 P  pz         
    76     -0.145019  3 H  s                 95     -0.145019  4 H  s          
   114     -0.145019  5 H  s                 15     -0.097180  1 P  pz         
    56      0.080162  2 H  s                 66      0.080402  2 H  pz         
 
 Vector   19  Occ=0.000000D+00  E=-7.479076D-02  Symmetry=a1
              MO Center= -1.4D-14,  8.8D-15, -1.0D-05, r^2= 1.1D+01
   Bfn.  Coefficient  Atom+Function         Bfn.  Coefficient  Atom+Function  
  ----- ------------  ---------------      ----- ------------  ---------------
     6      2.212065  1 P  s                 22     -1.472373  1 P  s          
    56     -1.280085  2 H  s                 75     -1.280136  3 H  s          
    94     -1.280136  4 H  s                113     -1.280136  5 H  s          
    57      0.986975  2 H  s                 76      0.987085  3 H  s          
    95      0.987085  4 H  s                114      0.987085  5 H  s          
 
 Vector   20  Occ=0.000000D+00  E=-4.152597D-02  Symmetry=e
              MO Center= -1.3D-01,  7.0D-02, -1.1D-01, r^2= 1.6D+01
   Bfn.  Coefficient  Atom+Function         Bfn.  Coefficient  Atom+Function  
  ----- ------------  ---------------      ----- ------------  ---------------
   114      6.559717  5 H  s                 23      4.653737  1 P  px         
    76     -3.899764  3 H  s                 95     -2.659953  4 H  s          
    19     -1.574221  1 P  px               113     -1.431089  5 H  s          
    16     -1.018373  1 P  px                75      0.850785  3 H  s          
    24     -0.718145  1 P  py                94      0.580304  4 H  s          
 
 Vector   21  Occ=0.000000D+00  E=-4.152597D-02  Symmetry=e
              MO Center=  1.3D-01, -7.0D-02, -1.1D-01, r^2= 1.6D+01
   Bfn.  Coefficient  Atom+Function         Bfn.  Coefficient  Atom+Function  
  ----- ------------  ---------------      ----- ------------  ---------------
    95      6.038784  4 H  s                 76     -5.322979  3 H  s          
    24      4.653737  1 P  py                20     -1.574221  1 P  py         
    94     -1.317441  4 H  s                 75      1.161278  3 H  s          
    17     -1.018373  1 P  py                23      0.718145  1 P  px         
   114     -0.715805  5 H  s                 19     -0.242927  1 P  px         
 
 Vector   22  Occ=0.000000D+00  E=-4.152532D-02  Symmetry=a1
              MO Center=  3.3D-15, -7.6D-16,  2.1D-01, r^2= 1.6D+01
   Bfn.  Coefficient  Atom+Function         Bfn.  Coefficient  Atom+Function  
  ----- ------------  ---------------      ----- ------------  ---------------
    57      6.998967  2 H  s                 25     -4.708804  1 P  pz         
    76     -2.332931  3 H  s                 95     -2.332931  4 H  s          
   114     -2.332931  5 H  s                 21      1.592790  1 P  pz         
    56     -1.526866  2 H  s                 18      1.030445  1 P  pz         
    75      0.508972  3 H  s                 94      0.508972  4 H  s          
 
 Vector   23  Occ=0.000000D+00  E=-1.710606D-02  Symmetry=a1
              MO Center=  2.8D-13, -2.1D-13, -8.7D-06, r^2= 1.6D+01
   Bfn.  Coefficient  Atom+Function         Bfn.  Coefficient  Atom+Function  
  ----- ------------  ---------------      ----- ------------  ---------------
    22     22.570841  1 P  s                 57     -5.545976  2 H  s          
    76     -5.546057  3 H  s                 95     -5.546057  4 H  s          
   114     -5.546057  5 H  s                 56     -1.020718  2 H  s          
    75     -1.020721  3 H  s                 94     -1.020721  4 H  s          
   113     -1.020721  5 H  s                  6      0.560675  1 P  s          
 
 Vector   24  Occ=0.000000D+00  E= 5.402303D-02  Symmetry=e
              MO Center= -1.5D-02, -1.7D-03,  1.1D-02, r^2= 1.3D+01
   Bfn.  Coefficient  Atom+Function         Bfn.  Coefficient  Atom+Function  
  ----- ------------  ---------------      ----- ------------  ---------------
    20      3.069132  1 P  py                24     -2.200112  1 P  py         
    19      1.478228  1 P  px                23     -1.059670  1 P  px         
    17     -1.044347  1 P  py                75     -0.660928  3 H  s          
    94      0.530713  4 H  s                 16     -0.503003  1 P  px         
    76      0.340092  3 H  s                 45      0.295742  1 P  fxxy       
 
 Vector   25  Occ=0.000000D+00  E= 5.402303D-02  Symmetry=e
              MO Center=  1.5D-02,  1.7D-03,  1.1D-02, r^2= 1.3D+01
   Bfn.  Coefficient  Atom+Function         Bfn.  Coefficient  Atom+Function  
  ----- ------------  ---------------      ----- ------------  ---------------
    19      3.069132  1 P  px                23     -2.200112  1 P  px         
    20     -1.478228  1 P  py                24      1.059670  1 P  py         
    16     -1.044347  1 P  px               113      0.687994  5 H  s          
    17      0.503003  1 P  py                94     -0.456767  4 H  s          
   114     -0.354019  5 H  s                 44      0.295742  1 P  fxxx       
 
 Vector   26  Occ=0.000000D+00  E= 5.402355D-02  Symmetry=a1
              MO Center=  3.9D-16, -1.5D-16, -2.2D-02, r^2= 1.3D+01
   Bfn.  Coefficient  Atom+Function         Bfn.  Coefficient  Atom+Function  
  ----- ------------  ---------------      ----- ------------  ---------------
    21      3.406507  1 P  pz                25     -2.442025  1 P  pz         
    18     -1.159176  1 P  pz                56     -0.742560  2 H  s          
    57      0.382213  2 H  s                 66      0.356342  2 H  pz         
    53      0.333829  1 P  fzzz              46      0.311549  1 P  fxxz       
    51      0.311549  1 P  fyyz              55     -0.275609  2 H  s          
 
 Vector   27  Occ=0.000000D+00  E= 1.348978D-01  Symmetry=e
              MO Center=  1.1D-01, -1.4D-01, -1.3D-01, r^2= 1.0D+01
   Bfn.  Coefficient  Atom+Function         Bfn.  Coefficient  Atom+Function  
  ----- ------------  ---------------      ----- ------------  ---------------
    94      7.781962  4 H  s                 20      7.077278  1 P  py         
    95     -5.820760  4 H  s                 75     -5.299215  3 H  s          
    24     -4.901147  1 P  py                76      3.963713  3 H  s          
    17      2.566374  1 P  py               113     -2.482747  5 H  s          
    42     -2.299820  1 P  dyz               39      2.171325  1 P  dxy        
 
 Vector   28  Occ=0.000000D+00  E= 1.348978D-01  Symmetry=e
              MO Center= -1.1D-01,  1.4D-01, -1.3D-01, r^2= 1.0D+01
   Bfn.  Coefficient  Atom+Function         Bfn.  Coefficient  Atom+Function  
  ----- ------------  ---------------      ----- ------------  ---------------
   113      7.552422  5 H  s                 19      7.077278  1 P  px         
    75     -5.926333  3 H  s                114     -5.649068  5 H  s          
    23     -4.901147  1 P  px                76      4.432785  3 H  s          
    16      2.566374  1 P  px                39      2.428283  1 P  dxy        
    40     -2.299820  1 P  dxz               94     -1.626089  4 H  s          
 
 Vector   29  Occ=0.000000D+00  E= 1.348980D-01  Symmetry=a1
              MO Center=  7.4D-09,  4.1D-10,  2.5D-01, r^2= 1.0D+01
   Bfn.  Coefficient  Atom+Function         Bfn.  Coefficient  Atom+Function  
  ----- ------------  ---------------      ----- ------------  ---------------
    56      8.432291  2 H  s                 21     -7.088376  1 P  pz         
    57     -6.307259  2 H  s                 25      4.908846  1 P  pz         
    75     -2.810794  3 H  s                 94     -2.810794  4 H  s          
   113     -2.810794  5 H  s                 18     -2.570384  1 P  pz         
    43     -2.303416  1 P  dzz               76      2.102369  3 H  s          
 
 Vector   30  Occ=0.000000D+00  E= 1.645363D-01  Symmetry=a1
              MO Center=  1.7D-14,  1.1D-13, -2.3D-05, r^2= 9.7D+00
   Bfn.  Coefficient  Atom+Function         Bfn.  Coefficient  Atom+Function  
  ----- ------------  ---------------      ----- ------------  ---------------
    22     11.453600  1 P  s                  6      9.567234  1 P  s          
    56     -4.703877  2 H  s                 75     -4.703837  3 H  s          
    94     -4.703837  4 H  s                113     -4.703837  5 H  s          
    57     -1.907665  2 H  s                 76     -1.907757  3 H  s          
    95     -1.907757  4 H  s                114     -1.907757  5 H  s          
 
 Vector   31  Occ=0.000000D+00  E= 1.685521D-01  Symmetry=e
              MO Center= -2.7D-01,  1.7D-01,  2.3D-01, r^2= 4.4D+00
   Bfn.  Coefficient  Atom+Function         Bfn.  Coefficient  Atom+Function  
  ----- ------------  ---------------      ----- ------------  ---------------
    64      0.843025  2 H  px               123      0.790580  5 H  pz         
    85     -0.499600  3 H  pz               104     -0.290980  4 H  pz         
    83     -0.281002  3 H  px               102     -0.281005  4 H  px         
   121     -0.280997  5 H  px                65     -0.093629  2 H  py         
    49      0.077461  1 P  fxzz              48     -0.034435  1 P  fxyz       
 
 Vector   32  Occ=0.000000D+00  E= 1.685521D-01  Symmetry=e
              MO Center=  2.7D-01, -1.7D-01,  2.3D-01, r^2= 4.4D+00
   Bfn.  Coefficient  Atom+Function         Bfn.  Coefficient  Atom+Function  
  ----- ------------  ---------------      ----- ------------  ---------------
    65      0.843025  2 H  py               104      0.744886  4 H  pz         
    85     -0.624439  3 H  pz                84     -0.281001  3 H  py         
   103     -0.280998  4 H  py               122     -0.281006  5 H  py         
   123     -0.120447  5 H  pz                64      0.093629  2 H  px         
    52      0.077461  1 P  fyzz              48     -0.043039  1 P  fxyz       
 
 Vector   33  Occ=0.000000D+00  E= 1.685527D-01  Symmetry=a2
              MO Center=  8.0D-17, -3.2D-14, -4.5D-01, r^2= 4.3D+00
   Bfn.  Coefficient  Atom+Function         Bfn.  Coefficient  Atom+Function  
  ----- ------------  ---------------      ----- ------------  ---------------
   102      0.772450  4 H  px               122     -0.772450  5 H  py         
    83     -0.565473  3 H  px                84      0.565473  3 H  py         
   103      0.206977  4 H  py               121     -0.206977  5 H  px         
    45     -0.058463  1 P  fxxy              47      0.058463  1 P  fxyy       
 
 Vector   34  Occ=0.000000D+00  E= 2.313374D-01  Symmetry=a1
              MO Center=  2.3D-13, -4.4D-14, -2.5D-05, r^2= 1.0D+01
   Bfn.  Coefficient  Atom+Function         Bfn.  Coefficient  Atom+Function  
  ----- ------------  ---------------      ----- ------------  ---------------
    22     17.942041  1 P  s                 57     -4.405675  2 H  s          
    76     -4.405908  3 H  s                 95     -4.405908  4 H  s          
   114     -4.405908  5 H  s                 38     -2.817187  1 P  dxx        
    41     -2.817187  1 P  dyy               43     -2.817248  1 P  dzz        
    56      1.312842  2 H  s                 75      1.313052  3 H  s          
 
 Vector   35  Occ=0.000000D+00  E= 2.432854D-01  Symmetry=a1
              MO Center= -4.8D-15, -1.4D-15, -9.5D-02, r^2= 6.1D+00
   Bfn.  Coefficient  Atom+Function         Bfn.  Coefficient  Atom+Function  
  ----- ------------  ---------------      ----- ------------  ---------------
    56      3.649230  2 H  s                 57     -3.643522  2 H  s          
    21     -2.674768  1 P  pz                25      2.446507  1 P  pz         
    55     -1.874093  2 H  s                 43      1.423978  1 P  dzz        
    75     -1.216353  3 H  s                 76      1.214328  3 H  s          
    94     -1.216353  4 H  s                 95      1.214328  4 H  s          
 
 Vector   36  Occ=0.000000D+00  E= 2.432855D-01  Symmetry=e
              MO Center= -5.7D-02,  3.6D-02,  4.8D-02, r^2= 6.1D+00
   Bfn.  Coefficient  Atom+Function         Bfn.  Coefficient  Atom+Function  
  ----- ------------  ---------------      ----- ------------  ---------------
    94      3.206908  4 H  s                 95     -3.201799  4 H  s          
    75     -2.682589  3 H  s                 76      2.678315  3 H  s          
    20      2.658946  1 P  py                24     -2.432027  1 P  py         
    93     -1.646938  4 H  s                 39     -1.570296  1 P  dxy        
    42      1.415616  1 P  dyz               74      1.377669  3 H  s          
 
 Vector   37  Occ=0.000000D+00  E= 2.432855D-01  Symmetry=e
              MO Center=  5.7D-02, -3.6D-02,  4.8D-02, r^2= 6.1D+00
   Bfn.  Coefficient  Atom+Function         Bfn.  Coefficient  Atom+Function  
  ----- ------------  ---------------      ----- ------------  ---------------
   113      3.400303  5 H  s                114     -3.394886  5 H  s          
    19      2.658946  1 P  px                23     -2.432027  1 P  px         
    75     -2.154225  3 H  s                 76      2.150793  3 H  s          
   112     -1.746258  5 H  s                 40      1.415616  1 P  dxz        
    39     -1.261010  1 P  dxy               94     -1.246078  4 H  s          
 
 Vector   38  Occ=0.000000D+00  E= 3.522283D-01  Symmetry=a1
              MO Center=  5.3D-11,  2.6D-11,  7.4D-02, r^2= 5.9D+00
   Bfn.  Coefficient  Atom+Function         Bfn.  Coefficient  Atom+Function  
  ----- ------------  ---------------      ----- ------------  ---------------
    21      2.147729  1 P  pz                56      1.413451  2 H  s          
    85     -1.125084  3 H  pz               104     -1.125084  4 H  pz         
   123     -1.125084  5 H  pz                18     -1.035965  1 P  pz         
    66     -1.040789  2 H  pz                55     -0.731324  2 H  s          
    57     -0.587977  2 H  s                 43     -0.580824  1 P  dzz        
 
 Vector   39  Occ=0.000000D+00  E= 3.522294D-01  Symmetry=e
              MO Center=  2.0D-02,  4.9D-02, -3.7D-02, r^2= 5.9D+00
   Bfn.  Coefficient  Atom+Function         Bfn.  Coefficient  Atom+Function  
  ----- ------------  ---------------      ----- ------------  ---------------
    19      1.789272  1 P  px                75      1.306224  3 H  s          
    20      1.187961  1 P  py               102     -0.953033  4 H  px         
    64     -0.946086  2 H  px               121     -0.892216  5 H  px         
    83     -0.887655  3 H  px               113     -0.881585  5 H  s          
    16     -0.863056  1 P  px                39     -0.805120  1 P  dxy        
 
 Vector   40  Occ=0.000000D+00  E= 3.522294D-01  Symmetry=e
              MO Center= -2.0D-02, -4.9D-02, -3.7D-02, r^2= 5.9D+00
   Bfn.  Coefficient  Atom+Function         Bfn.  Coefficient  Atom+Function  
  ----- ------------  ---------------      ----- ------------  ---------------
    20      1.789272  1 P  py                94     -1.263132  4 H  s          
    19     -1.187961  1 P  px               113      0.999314  5 H  s          
    65     -0.946086  2 H  py                84     -0.934281  3 H  py         
   122     -0.929720  5 H  py               103     -0.868903  4 H  py         
    17     -0.863056  1 P  py                93      0.653569  4 H  s          
 
 Vector   41  Occ=0.000000D+00  E= 4.250413D-01  Symmetry=e
              MO Center=  1.9D-07, -1.0D-07,  6.2D-07, r^2= 4.3D+00
   Bfn.  Coefficient  Atom+Function         Bfn.  Coefficient  Atom+Function  
  ----- ------------  ---------------      ----- ------------  ---------------
    42      3.855414  1 P  dyz               39      2.216475  1 P  dxy        
    65     -1.538127  2 H  py               122      1.477553  5 H  py         
   104      1.344516  4 H  pz                85     -1.179036  3 H  pz         
    83     -0.948602  3 H  px                38      0.819447  1 P  dxx        
    41     -0.819447  1 P  dyy              102      0.722555  4 H  px         
 
 Vector   42  Occ=0.000000D+00  E= 4.250413D-01  Symmetry=e
              MO Center= -1.9D-07,  1.0D-07,  6.2D-07, r^2= 4.3D+00
   Bfn.  Coefficient  Atom+Function         Bfn.  Coefficient  Atom+Function  
  ----- ------------  ---------------      ----- ------------  ---------------
    40      3.855414  1 P  dxz               39      1.638894  1 P  dxy        
    64     -1.538127  2 H  px               123      1.456973  5 H  pz         
   102      1.323934  4 H  px                38     -1.108238  1 P  dxx        
    41      1.108238  1 P  dyy               84     -1.102223  3 H  py         
    85     -0.871796  3 H  pz                34      0.705138  1 P  dxz        
 
 Vector   43  Occ=0.000000D+00  E= 5.336910D-01  Symmetry=a1
              MO Center= -6.0D-10,  1.1D-09, -6.5D-02, r^2= 7.5D+00
   Bfn.  Coefficient  Atom+Function         Bfn.  Coefficient  Atom+Function  
  ----- ------------  ---------------      ----- ------------  ---------------
    56     13.189660  2 H  s                 18     -9.513862  1 P  pz         
    21     -9.289149  1 P  pz                57     -4.482095  2 H  s          
    75     -4.396426  3 H  s                 94     -4.396426  4 H  s          
   113     -4.396426  5 H  s                 66     -4.025689  2 H  pz         
    25      3.980803  1 P  pz                43     -3.401509  1 P  dzz        
 
 Vector   44  Occ=0.000000D+00  E= 5.336918D-01  Symmetry=e
              MO Center= -4.6D-02, -1.7D-03,  3.3D-02, r^2= 7.5D+00
   Bfn.  Coefficient  Atom+Function         Bfn.  Coefficient  Atom+Function  
  ----- ------------  ---------------      ----- ------------  ---------------
    75     11.573018  3 H  s                 94     -9.726763  4 H  s          
    17     -8.722317  1 P  py                20     -8.516197  1 P  py         
    39     -4.476940  1 P  dxy               76     -3.932762  3 H  s          
    16     -3.799494  1 P  px                19     -3.709707  1 P  px         
    24      3.649551  1 P  py                95      3.305365  4 H  s          
 
 Vector   45  Occ=0.000000D+00  E= 5.336918D-01  Symmetry=e
              MO Center=  4.6D-02,  1.7D-03,  3.3D-02, r^2= 7.5D+00
   Bfn.  Coefficient  Atom+Function         Bfn.  Coefficient  Atom+Function  
  ----- ------------  ---------------      ----- ------------  ---------------
   113     12.297434  5 H  s                 16      8.722317  1 P  px         
    19      8.516197  1 P  px                94     -7.747620  4 H  s          
    75     -4.549814  3 H  s                114     -4.178935  5 H  s          
    17     -3.799494  1 P  py                20     -3.709707  1 P  py         
    23     -3.649551  1 P  px               121      3.385071  5 H  px         
 
 Vector   46  Occ=0.000000D+00  E= 5.572957D-01  Symmetry=a1
              MO Center= -3.7D-13,  5.4D-15, -1.9D-05, r^2= 7.1D+00
   Bfn.  Coefficient  Atom+Function         Bfn.  Coefficient  Atom+Function  
  ----- ------------  ---------------      ----- ------------  ---------------
     6     24.130934  1 P  s                 56     -5.899180  2 H  s          
    75     -5.899450  3 H  s                 94     -5.899450  4 H  s          
   113     -5.899450  5 H  s                 22      5.380909  1 P  s          
    66      2.814291  2 H  pz               103     -2.563022  4 H  py         
   121     -2.563022  5 H  px                83      1.876262  3 H  px         
 
 Vector   47  Occ=0.000000D+00  E= 5.928407D-01  Symmetry=e
              MO Center= -2.1D-06,  5.4D-06,  8.3D-06, r^2= 3.3D+00
   Bfn.  Coefficient  Atom+Function         Bfn.  Coefficient  Atom+Function  
  ----- ------------  ---------------      ----- ------------  ---------------
    40      4.409248  1 P  dxz               39      2.661314  1 P  dxy        
    64     -1.198300  2 H  px               102      1.173999  4 H  px         
    34     -1.100895  1 P  dxz              123      1.030694  5 H  pz         
    85     -0.964346  3 H  pz                42      0.913379  1 P  dyz        
    38     -0.873968  1 P  dxx               41      0.873968  1 P  dyy        
 
 Vector   48  Occ=0.000000D+00  E= 5.928407D-01  Symmetry=e
              MO Center=  2.1D-06, -5.4D-06,  8.3D-06, r^2= 3.3D+00
   Bfn.  Coefficient  Atom+Function         Bfn.  Coefficient  Atom+Function  
  ----- ------------  ---------------      ----- ------------  ---------------
    42      4.409248  1 P  dyz               39      1.747935  1 P  dxy        
    38      1.330657  1 P  dxx               41     -1.330657  1 P  dyy        
    65     -1.198300  2 H  py               104      1.151837  4 H  pz         
    36     -1.100895  1 P  dyz              122      1.008515  5 H  py         
    40     -0.913379  1 P  dxz               83     -0.881598  3 H  px         
 
 Vector   49  Occ=0.000000D+00  E= 6.444372D-01  Symmetry=e
              MO Center=  1.4D-01, -3.1D-01, -2.4D-01, r^2= 3.9D+00
   Bfn.  Coefficient  Atom+Function         Bfn.  Coefficient  Atom+Function  
  ----- ------------  ---------------      ----- ------------  ---------------
    17      7.339225  1 P  py                52     -3.093474  1 P  fyzz       
    45     -3.011426  1 P  fxxy              50     -3.011426  1 P  fyyy       
    14     -2.474107  1 P  py                94      1.754077  4 H  s          
    16     -1.349877  1 P  px                75     -0.998681  3 H  s          
    95     -0.835947  4 H  s                 42     -0.825658  1 P  dyz        
 
 Vector   50  Occ=0.000000D+00  E= 6.444372D-01  Symmetry=e
              MO Center= -1.4D-01,  3.1D-01, -2.4D-01, r^2= 3.9D+00
   Bfn.  Coefficient  Atom+Function         Bfn.  Coefficient  Atom+Function  
  ----- ------------  ---------------      ----- ------------  ---------------
    16      7.339225  1 P  px                49     -3.093474  1 P  fxzz       
    44     -3.011426  1 P  fxxx              47     -3.011426  1 P  fxyy       
    13     -2.474107  1 P  px               113      1.589305  5 H  s          
    75     -1.448845  3 H  s                 17      1.349877  1 P  py         
    39      0.977373  1 P  dxy               40     -0.825658  1 P  dxz        
 
 Vector   51  Occ=0.000000D+00  E= 6.444384D-01  Symmetry=a1
              MO Center=  9.6D-11, -5.2D-10,  4.8D-01, r^2= 3.9D+00
   Bfn.  Coefficient  Atom+Function         Bfn.  Coefficient  Atom+Function  
  ----- ------------  ---------------      ----- ------------  ---------------
    18      7.462495  1 P  pz                46     -3.145410  1 P  fxxz       
    51     -3.145410  1 P  fyyz              53     -3.034187  1 P  fzzz       
    15     -2.515638  1 P  pz                56     -1.866503  2 H  s          
    57      0.889543  2 H  s                 43      0.839451  1 P  dzz        
    75      0.622281  3 H  s                 94      0.622281  4 H  s          
 
 Vector   52  Occ=0.000000D+00  E= 9.402269D-01  Symmetry=a1
              MO Center=  2.1D-09,  3.1D-09,  1.9D-01, r^2= 3.9D+00
   Bfn.  Coefficient  Atom+Function         Bfn.  Coefficient  Atom+Function  
  ----- ------------  ---------------      ----- ------------  ---------------
    18     15.206591  1 P  pz                56     -7.693234  2 H  s          
    53     -5.409249  1 P  fzzz              46     -4.606231  1 P  fxxz       
    51     -4.606231  1 P  fyyz              15     -3.878453  1 P  pz         
    21      3.493322  1 P  pz                66      3.249532  2 H  pz         
    75      2.564659  3 H  s                 94      2.564659  4 H  s          
 
 Vector   53  Occ=0.000000D+00  E= 9.402281D-01  Symmetry=e
              MO Center=  6.4D-02,  1.2D-01, -9.3D-02, r^2= 4.0D+00
   Bfn.  Coefficient  Atom+Function         Bfn.  Coefficient  Atom+Function  
  ----- ------------  ---------------      ----- ------------  ---------------
    16     12.158127  1 P  px                17      9.133512  1 P  py         
    75     -7.181336  3 H  s                113      4.474149  5 H  s          
    44     -4.164346  1 P  fxxx              47     -4.164346  1 P  fxyy       
    49     -3.682837  1 P  fxzz              45     -3.128369  1 P  fxxy       
    50     -3.128369  1 P  fyyy              13     -3.100944  1 P  px         
 
 Vector   54  Occ=0.000000D+00  E= 9.402281D-01  Symmetry=e
              MO Center= -6.4D-02, -1.2D-01, -9.3D-02, r^2= 4.0D+00
   Bfn.  Coefficient  Atom+Function         Bfn.  Coefficient  Atom+Function  
  ----- ------------  ---------------      ----- ------------  ---------------
    17     12.158127  1 P  py                16     -9.133512  1 P  px         
    94      6.729297  4 H  s                113     -5.709142  5 H  s          
    45     -4.164346  1 P  fxxy              50     -4.164346  1 P  fyyy       
    52     -3.682837  1 P  fyzz              44      3.128369  1 P  fxxx       
    47      3.128369  1 P  fxyy              14     -3.100944  1 P  py         
 
 Vector   55  Occ=0.000000D+00  E= 9.472654D-01  Symmetry=a1
              MO Center=  2.6D-12, -3.6D-12, -6.9D-05, r^2= 4.8D+00
   Bfn.  Coefficient  Atom+Function         Bfn.  Coefficient  Atom+Function  
  ----- ------------  ---------------      ----- ------------  ---------------
     6     12.573723  1 P  s                 22     10.490456  1 P  s          
     5     -5.584086  1 P  s                 38     -5.257011  1 P  dxx        
    41     -5.257011  1 P  dyy               43     -5.257229  1 P  dzz        
    57     -2.506994  2 H  s                 76     -2.506599  3 H  s          
    95     -2.506599  4 H  s                114     -2.506599  5 H  s          
 
 Vector   56  Occ=0.000000D+00  E= 1.075046D+00  Symmetry=e
              MO Center= -1.4D-01,  1.1D-02,  1.0D-01, r^2= 2.4D+00
   Bfn.  Coefficient  Atom+Function         Bfn.  Coefficient  Atom+Function  
  ----- ------------  ---------------      ----- ------------  ---------------
    49      1.864164  1 P  fxzz              52     -0.691299  1 P  fyzz       
    46      0.638849  1 P  fxxz              51     -0.638849  1 P  fyyz       
    48     -0.586417  1 P  fxyz              64     -0.573644  2 H  px         
   123     -0.574309  5 H  pz                44     -0.466060  1 P  fxxx       
    47     -0.466060  1 P  fxyy             104      0.333702  4 H  pz         
 
 Vector   57  Occ=0.000000D+00  E= 1.075046D+00  Symmetry=e
              MO Center=  1.4D-01, -1.1D-02,  1.0D-01, r^2= 2.4D+00
   Bfn.  Coefficient  Atom+Function         Bfn.  Coefficient  Atom+Function  
  ----- ------------  ---------------      ----- ------------  ---------------
    52      1.864164  1 P  fyzz              48     -1.277698  1 P  fxyz       
    49      0.691299  1 P  fxzz              65     -0.573644  2 H  py         
    85      0.524240  3 H  pz               104     -0.470492  4 H  pz         
    45     -0.466060  1 P  fxxy              50     -0.466060  1 P  fyyy       
    46     -0.293209  1 P  fxxz              51      0.293209  1 P  fyyz       
 
 Vector   58  Occ=0.000000D+00  E= 1.075048D+00  Symmetry=a2
              MO Center=  1.3D-11, -4.9D-12, -2.0D-01, r^2= 2.4D+00
   Bfn.  Coefficient  Atom+Function         Bfn.  Coefficient  Atom+Function  
  ----- ------------  ---------------      ----- ------------  ---------------
    45      1.491163  1 P  fxxy              47     -1.491163  1 P  fxyy       
   102      0.557167  4 H  px               122     -0.557167  5 H  py         
    44      0.497054  1 P  fxxx              50     -0.497054  1 P  fyyy       
    83     -0.407874  3 H  px                84      0.407874  3 H  py         
    99     -0.270253  4 H  px               119      0.270253  5 H  py         
 
 Vector   59  Occ=0.000000D+00  E= 1.329508D+00  Symmetry=a1
              MO Center=  5.0D-10, -1.1D-10, -7.8D-02, r^2= 2.8D+00
   Bfn.  Coefficient  Atom+Function         Bfn.  Coefficient  Atom+Function  
  ----- ------------  ---------------      ----- ------------  ---------------
    18     10.226726  1 P  pz                56     -5.639825  2 H  s          
    46     -4.083548  1 P  fxxz              51     -4.083548  1 P  fyyz       
    15     -2.535483  1 P  pz                43      2.516335  1 P  dzz        
    55     -2.461688  2 H  s                 21      2.387692  1 P  pz         
    66      2.359227  2 H  pz                53     -2.322178  1 P  fzzz       
 
 Vector   60  Occ=0.000000D+00  E= 1.329511D+00  Symmetry=e
              MO Center= -3.9D-02,  3.9D-02,  3.9D-02, r^2= 2.8D+00
   Bfn.  Coefficient  Atom+Function         Bfn.  Coefficient  Atom+Function  
  ----- ------------  ---------------      ----- ------------  ---------------
    17     10.226623  1 P  py                94      5.140942  4 H  s          
    52     -4.083495  1 P  fyzz              75     -3.746452  3 H  s          
    45     -2.762500  1 P  fxxy              50     -2.762500  1 P  fyyy       
    48     -2.632636  1 P  fxyz              14     -2.535454  1 P  py         
    39      2.507319  1 P  dxy               42     -2.516295  1 P  dyz        
 
 Vector   61  Occ=0.000000D+00  E= 1.329511D+00  Symmetry=e
              MO Center=  3.9D-02, -3.9D-02,  3.9D-02, r^2= 2.8D+00
   Bfn.  Coefficient  Atom+Function         Bfn.  Coefficient  Atom+Function  
  ----- ------------  ---------------      ----- ------------  ---------------
    16     10.226623  1 P  px               113      5.131139  5 H  s          
    49     -4.083495  1 P  fxzz              75     -3.773233  3 H  s          
    44     -2.762500  1 P  fxxx              47     -2.762500  1 P  fxyy       
    48     -2.651455  1 P  fxyz              13     -2.535454  1 P  px         
    39      2.525242  1 P  dxy               40     -2.516295  1 P  dxz        
 
 Vector   62  Occ=0.000000D+00  E= 1.529358D+00  Symmetry=a1
              MO Center=  4.1D-14,  5.4D-15,  1.9D-06, r^2= 3.4D+00
   Bfn.  Coefficient  Atom+Function         Bfn.  Coefficient  Atom+Function  
  ----- ------------  ---------------      ----- ------------  ---------------
     6     22.510628  1 P  s                  5     -3.805991  1 P  s          
    56     -3.420904  2 H  s                 75     -3.420803  3 H  s          
    94     -3.420803  4 H  s                113     -3.420803  5 H  s          
    55     -2.851642  2 H  s                 74     -2.851556  3 H  s          
    93     -2.851556  4 H  s                112     -2.851556  5 H  s          
 
 Vector   63  Occ=0.000000D+00  E= 1.610820D+00  Symmetry=a1
              MO Center=  4.1D-10,  2.1D-10, -4.4D-02, r^2= 3.8D+00
   Bfn.  Coefficient  Atom+Function         Bfn.  Coefficient  Atom+Function  
  ----- ------------  ---------------      ----- ------------  ---------------
    18      7.774555  1 P  pz                56     -5.082167  2 H  s          
    21      4.577824  1 P  pz                55     -4.551353  2 H  s          
    15     -2.204202  1 P  pz                66      2.212508  2 H  pz         
    46     -2.043109  1 P  fxxz              51     -2.043109  1 P  fyyz       
    43      1.937427  1 P  dzz               75      1.694130  3 H  s          
 
 Vector   64  Occ=0.000000D+00  E= 1.610823D+00  Symmetry=e
              MO Center= -7.8D-03,  3.0D-02,  2.2D-02, r^2= 3.8D+00
   Bfn.  Coefficient  Atom+Function         Bfn.  Coefficient  Atom+Function  
  ----- ------------  ---------------      ----- ------------  ---------------
    17      7.500413  1 P  py                94      4.791515  4 H  s          
    20      4.416433  1 P  py                93      4.291026  4 H  s          
   113     -2.414502  5 H  s                 75     -2.377012  3 H  s          
   112     -2.162300  5 H  s                 14     -2.126481  1 P  py         
    74     -2.128726  3 H  s                 16     -2.046088  1 P  px         
 
 Vector   65  Occ=0.000000D+00  E= 1.610823D+00  Symmetry=e
              MO Center=  7.8D-03, -3.0D-02,  2.2D-02, r^2= 3.8D+00
   Bfn.  Coefficient  Atom+Function         Bfn.  Coefficient  Atom+Function  
  ----- ------------  ---------------      ----- ------------  ---------------
    16      7.500413  1 P  px                19      4.416433  1 P  px         
    75     -4.160396  3 H  s                113      4.138751  5 H  s          
    74     -3.725830  3 H  s                112      3.706446  5 H  s          
    39      2.379026  1 P  dxy               13     -2.126481  1 P  px         
    17      2.046088  1 P  py                49     -1.971087  1 P  fxzz       
 
 Vector   66  Occ=0.000000D+00  E= 1.643664D+00  Symmetry=e
              MO Center= -6.7D-06,  2.0D-06, -1.1D-05, r^2= 3.0D+00
   Bfn.  Coefficient  Atom+Function         Bfn.  Coefficient  Atom+Function  
  ----- ------------  ---------------      ----- ------------  ---------------
    42      1.684601  1 P  dyz               39      1.054201  1 P  dxy        
    65     -0.823579  2 H  py               122      0.819123  5 H  py         
   104      0.699436  4 H  pz                85     -0.687220  3 H  pz         
    62      0.649571  2 H  py               119     -0.646058  5 H  py         
   101     -0.551667  4 H  pz                82      0.542032  3 H  pz         
 
 Vector   67  Occ=0.000000D+00  E= 1.643664D+00  Symmetry=e
              MO Center=  6.7D-06, -2.0D-06, -1.1D-05, r^2= 3.0D+00
   Bfn.  Coefficient  Atom+Function         Bfn.  Coefficient  Atom+Function  
  ----- ------------  ---------------      ----- ------------  ---------------
    40      1.684601  1 P  dxz               64     -0.823579  2 H  px         
   123      0.800586  5 H  pz               102      0.680942  4 H  px         
    61      0.649571  2 H  px                39      0.630282  1 P  dxy        
   120     -0.631448  5 H  pz                84     -0.618164  3 H  py         
    99     -0.537075  4 H  px                38     -0.527100  1 P  dxx        
 
 Vector   68  Occ=0.000000D+00  E= 1.826126D+00  Symmetry=a2
              MO Center=  2.7D-14,  1.9D-14, -3.0D-01, r^2= 2.4D+00
   Bfn.  Coefficient  Atom+Function         Bfn.  Coefficient  Atom+Function  
  ----- ------------  ---------------      ----- ------------  ---------------
    45      1.453632  1 P  fxxy              47     -1.453632  1 P  fxyy       
    99      0.762967  4 H  px               119     -0.762967  5 H  py         
    80     -0.558531  3 H  px                81      0.558531  3 H  py         
    44      0.484544  1 P  fxxx              50     -0.484544  1 P  fyyy       
   102     -0.313254  4 H  px               122      0.313254  5 H  py         
 
 Vector   69  Occ=0.000000D+00  E= 1.826129D+00  Symmetry=e
              MO Center= -1.4D-01, -1.6D-01,  1.5D-01, r^2= 2.4D+00
   Bfn.  Coefficient  Atom+Function         Bfn.  Coefficient  Atom+Function  
  ----- ------------  ---------------      ----- ------------  ---------------
    52     -1.427053  1 P  fyzz              49      1.311454  1 P  fxzz       
   101      0.700106  4 H  pz                46      0.684646  1 P  fxxz       
    51     -0.684646  1 P  fyyz             120     -0.666793  5 H  pz         
    62      0.616869  2 H  py                61     -0.566899  2 H  px         
    45      0.356794  1 P  fxxy              50      0.356794  1 P  fyyy       
 
 Vector   70  Occ=0.000000D+00  E= 1.826129D+00  Symmetry=e
              MO Center=  1.4D-01,  1.6D-01,  1.5D-01, r^2= 2.4D+00
   Bfn.  Coefficient  Atom+Function         Bfn.  Coefficient  Atom+Function  
  ----- ------------  ---------------      ----- ------------  ---------------
    49     -1.427053  1 P  fxzz              48      1.369292  1 P  fxyz       
    52     -1.311454  1 P  fyzz              82     -0.789179  3 H  pz         
    61      0.616869  2 H  px                62      0.566899  2 H  py         
   120      0.423440  5 H  pz               101      0.365740  4 H  pz         
    44      0.356794  1 P  fxxx              47      0.356794  1 P  fxyy       
 
 Vector   71  Occ=0.000000D+00  E= 1.900046D+00  Symmetry=a1
              MO Center= -9.1D-15,  2.2D-15,  1.8D-01, r^2= 3.1D+00
   Bfn.  Coefficient  Atom+Function         Bfn.  Coefficient  Atom+Function  
  ----- ------------  ---------------      ----- ------------  ---------------
    55      3.228601  2 H  s                 54     -1.103903  2 H  s          
    74     -1.076069  3 H  s                 93     -1.076069  4 H  s          
   112     -1.076069  5 H  s                 46     -1.055013  1 P  fxxz       
    51     -1.055013  1 P  fyyz              57      0.917082  2 H  s          
    66     -0.798258  2 H  pz                56     -0.760527  2 H  s          
 
 Vector   72  Occ=0.000000D+00  E= 1.900048D+00  Symmetry=e
              MO Center= -6.6D-02, -1.1D-01, -9.2D-02, r^2= 3.1D+00
   Bfn.  Coefficient  Atom+Function         Bfn.  Coefficient  Atom+Function  
  ----- ------------  ---------------      ----- ------------  ---------------
    93      2.808243  4 H  s                112     -2.420944  5 H  s          
    92     -0.960184  4 H  s                 52      0.834909  1 P  fyzz       
   111      0.827760  5 H  s                 95      0.797723  4 H  s          
   114     -0.687705  5 H  s                 46      0.662212  1 P  fxxz       
    51     -0.662212  1 P  fyyz              94     -0.661561  4 H  s          
 
 Vector   73  Occ=0.000000D+00  E= 1.900048D+00  Symmetry=e
              MO Center=  6.6D-02,  1.1D-01, -9.2D-02, r^2= 3.1D+00
   Bfn.  Coefficient  Atom+Function         Bfn.  Coefficient  Atom+Function  
  ----- ------------  ---------------      ----- ------------  ---------------
    74      3.019073  3 H  s                112     -1.844947  5 H  s          
    48     -1.324425  1 P  fxyz              93     -1.174125  4 H  s          
    73     -1.032270  3 H  s                 76      0.857612  3 H  s          
    49     -0.834909  1 P  fxzz              75     -0.711228  3 H  s          
    52     -0.645053  1 P  fyzz             111      0.630817  5 H  s          
 
 Vector   74  Occ=0.000000D+00  E= 1.946469D+00  Symmetry=a1
              MO Center=  2.5D-14,  2.3D-14, -1.8D-05, r^2= 3.0D+00
   Bfn.  Coefficient  Atom+Function         Bfn.  Coefficient  Atom+Function  
  ----- ------------  ---------------      ----- ------------  ---------------
     6      4.924674  1 P  s                 22     -3.470343  1 P  s          
    55     -2.614260  2 H  s                 74     -2.614315  3 H  s          
    93     -2.614315  4 H  s                112     -2.614315  5 H  s          
    45     -1.310007  1 P  fxxy              46      1.309897  1 P  fxxz       
    47     -1.310007  1 P  fxyy              51      1.309897  1 P  fyyz       
 
 Vector   75  Occ=0.000000D+00  E= 2.179675D+00  Symmetry=e
              MO Center= -4.4D-01,  2.5D-01, -3.6D-01, r^2= 2.4D+00
   Bfn.  Coefficient  Atom+Function         Bfn.  Coefficient  Atom+Function  
  ----- ------------  ---------------      ----- ------------  ---------------
    16      5.938278  1 P  px               112      2.935374  5 H  s          
    49     -2.730997  1 P  fxzz              44     -2.166053  1 P  fxxx       
    47     -2.166053  1 P  fxyy              74     -1.787606  3 H  s          
    93     -1.147768  4 H  s                 48     -0.974578  1 P  fxyz       
   118      0.964594  5 H  px                13     -0.842048  1 P  px         
 
 Vector   76  Occ=0.000000D+00  E= 2.179675D+00  Symmetry=e
              MO Center=  4.4D-01, -2.5D-01, -3.6D-01, r^2= 2.4D+00
   Bfn.  Coefficient  Atom+Function         Bfn.  Coefficient  Atom+Function  
  ----- ------------  ---------------      ----- ------------  ---------------
    17      5.938278  1 P  py                52     -2.730997  1 P  fyzz       
    93      2.726813  4 H  s                 74     -2.357403  3 H  s          
    45     -2.166053  1 P  fxxy              50     -2.166053  1 P  fyyy       
    48     -1.285224  1 P  fxyz              39      0.944080  1 P  dxy        
   100      0.901784  4 H  py                14     -0.842048  1 P  py         
 
 Vector   77  Occ=0.000000D+00  E= 2.179679D+00  Symmetry=a1
              MO Center=  7.4D-10, -1.0D-10,  7.1D-01, r^2= 2.3D+00
   Bfn.  Coefficient  Atom+Function         Bfn.  Coefficient  Atom+Function  
  ----- ------------  ---------------      ----- ------------  ---------------
    18      5.994093  1 P  pz                55     -3.137905  2 H  s          
    46     -2.756703  1 P  fxxz              51     -2.756703  1 P  fyyz       
    53     -1.996313  1 P  fzzz              63      1.119069  2 H  pz         
    74      1.046022  3 H  s                 93      1.046022  4 H  s          
   112      1.046022  5 H  s                 15     -0.849956  1 P  pz         
 
 Vector   78  Occ=0.000000D+00  E= 2.470722D+00  Symmetry=a1
              MO Center= -2.1D-14, -3.8D-14, -2.6D-06, r^2= 3.0D+00
   Bfn.  Coefficient  Atom+Function         Bfn.  Coefficient  Atom+Function  
  ----- ------------  ---------------      ----- ------------  ---------------
     6     16.991237  1 P  s                  5     -3.667166  1 P  s          
    38     -3.488668  1 P  dxx               41     -3.488668  1 P  dyy        
    43     -3.488769  1 P  dzz               55     -2.945352  2 H  s          
    74     -2.945566  3 H  s                 93     -2.945566  4 H  s          
   112     -2.945566  5 H  s                 22      2.076462  1 P  s          
 
 Vector   79  Occ=0.000000D+00  E= 2.537564D+00  Symmetry=a1
              MO Center= -1.5D-10,  8.0D-10,  8.7D-02, r^2= 2.3D+00
   Bfn.  Coefficient  Atom+Function         Bfn.  Coefficient  Atom+Function  
  ----- ------------  ---------------      ----- ------------  ---------------
    18     17.696135  1 P  pz                53     -8.333224  1 P  fzzz       
    46     -7.846190  1 P  fxxz              51     -7.846190  1 P  fyyz       
    56     -4.997727  2 H  s                 15     -3.584528  1 P  pz         
    55     -2.448164  2 H  s                 66      2.440023  2 H  pz         
    21      1.980120  1 P  pz                75      1.665904  3 H  s          
 
 Vector   80  Occ=0.000000D+00  E= 2.537567D+00  Symmetry=e
              MO Center= -3.3D-02, -5.2D-02, -4.4D-02, r^2= 2.3D+00
   Bfn.  Coefficient  Atom+Function         Bfn.  Coefficient  Atom+Function  
  ----- ------------  ---------------      ----- ------------  ---------------
    17     13.797112  1 P  py                16    -11.081083  1 P  px         
    45     -6.402248  1 P  fxxy              50     -6.402248  1 P  fyyy       
    52     -6.117324  1 P  fyzz              44      5.141934  1 P  fxxx       
    47      5.141934  1 P  fxyy              49      4.913099  1 P  fxzz       
    94      4.312194  4 H  s                113     -3.800822  5 H  s          
 
 Vector   81  Occ=0.000000D+00  E= 2.537567D+00  Symmetry=e
              MO Center=  3.3D-02,  5.2D-02, -4.4D-02, r^2= 2.3D+00
   Bfn.  Coefficient  Atom+Function         Bfn.  Coefficient  Atom+Function  
  ----- ------------  ---------------      ----- ------------  ---------------
    16     13.797112  1 P  px                17     11.081083  1 P  py         
    44     -6.402248  1 P  fxxx              47     -6.402248  1 P  fxyy       
    49     -6.117324  1 P  fxzz              45     -5.141934  1 P  fxxy       
    50     -5.141934  1 P  fyyy              52     -4.913099  1 P  fyzz       
    75     -4.684052  3 H  s                 13     -2.794741  1 P  px         
 
 Vector   82  Occ=0.000000D+00  E= 2.762147D+00  Symmetry=e
              MO Center= -6.1D-05,  1.7D-05, -9.0D-05, r^2= 2.5D+00
   Bfn.  Coefficient  Atom+Function         Bfn.  Coefficient  Atom+Function  
  ----- ------------  ---------------      ----- ------------  ---------------
   107     -0.796242  4 H  dxz               40      0.781070  1 P  dxz        
    88     -0.705690  3 H  dxz              126     -0.462748  5 H  dxz        
    68     -0.418209  2 H  dxy              127     -0.378748  5 H  dyy        
    90      0.365316  3 H  dyz               67      0.358974  2 H  dxx        
    70     -0.358974  2 H  dyy               39      0.287496  1 P  dxy        
 
 Vector   83  Occ=0.000000D+00  E= 2.762147D+00  Symmetry=e
              MO Center=  6.1D-05, -1.7D-05, -9.0D-05, r^2= 2.5D+00
   Bfn.  Coefficient  Atom+Function         Bfn.  Coefficient  Atom+Function  
  ----- ------------  ---------------      ----- ------------  ---------------
   128     -0.847039  5 H  dyz               42      0.781070  1 P  dyz        
    68     -0.717949  2 H  dxy               90     -0.604097  3 H  dyz        
   109     -0.513544  4 H  dyz               39      0.493550  1 P  dxy        
    87     -0.474722  3 H  dxy              105     -0.330450  4 H  dxx        
   107     -0.313036  4 H  dxz               71     -0.269837  2 H  dyz        
 
 Vector   84  Occ=0.000000D+00  E= 2.763637D+00  Symmetry=e
              MO Center= -3.1D-01,  7.4D-03,  2.2D-01, r^2= 2.4D+00
   Bfn.  Coefficient  Atom+Function         Bfn.  Coefficient  Atom+Function  
  ----- ------------  ---------------      ----- ------------  ---------------
   129      0.561619  5 H  dzz              127     -0.458574  5 H  dyy        
    67     -0.442337  2 H  dxx               70      0.442337  2 H  dyy        
    69     -0.407568  2 H  dxz               68      0.378748  2 H  dxy        
   110     -0.339006  4 H  dzz              105      0.321426  4 H  dxx        
    86      0.223876  3 H  dxx               91     -0.222613  3 H  dzz        
 
 Vector   85  Occ=0.000000D+00  E= 2.763637D+00  Symmetry=e
              MO Center=  3.1D-01, -7.4D-03,  2.2D-01, r^2= 2.4D+00
   Bfn.  Coefficient  Atom+Function         Bfn.  Coefficient  Atom+Function  
  ----- ------------  ---------------      ----- ------------  ---------------
    68      0.884674  2 H  dxy               91     -0.519976  3 H  dzz        
   110      0.452777  4 H  dzz               71     -0.407568  2 H  dyz        
    87     -0.364543  3 H  dxy              105     -0.327142  4 H  dxx        
    89      0.308179  3 H  dyy              106     -0.285834  4 H  dxy        
   128      0.242136  5 H  dyz              125     -0.234148  5 H  dxy        
 
 Vector   86  Occ=0.000000D+00  E= 2.763639D+00  Symmetry=a2
              MO Center=  7.9D-11,  2.0D-10, -4.5D-01, r^2= 2.3D+00
   Bfn.  Coefficient  Atom+Function         Bfn.  Coefficient  Atom+Function  
  ----- ------------  ---------------      ----- ------------  ---------------
   107      0.692908  4 H  dxz              128     -0.692908  5 H  dyz        
   106     -0.599886  4 H  dxy              125      0.599886  5 H  dxy        
    88     -0.507244  3 H  dxz               90      0.507244  3 H  dyz        
    86     -0.346344  3 H  dxx               89      0.346344  3 H  dyy        
   109      0.185664  4 H  dyz              126     -0.185664  5 H  dxz        
 
 Vector   87  Occ=0.000000D+00  E= 3.082840D+00  Symmetry=e
              MO Center=  7.4D-02, -2.9D-01,  2.1D-01, r^2= 2.4D+00
   Bfn.  Coefficient  Atom+Function         Bfn.  Coefficient  Atom+Function  
  ----- ------------  ---------------      ----- ------------  ---------------
    16      3.130104  1 P  px                44     -1.688922  1 P  fxxx       
    47     -1.688922  1 P  fxyy              49     -1.313175  1 P  fxzz       
   107      1.055426  4 H  dxz               75     -0.969647  3 H  s          
   113      0.962989  5 H  s                 48      0.957683  1 P  fxyz       
    17      0.858759  1 P  py                68     -0.828936  2 H  dxy        
 
 Vector   88  Occ=0.000000D+00  E= 3.082840D+00  Symmetry=e
              MO Center= -7.4D-02,  2.9D-01,  2.1D-01, r^2= 2.4D+00
   Bfn.  Coefficient  Atom+Function         Bfn.  Coefficient  Atom+Function  
  ----- ------------  ---------------      ----- ------------  ---------------
    17      3.130104  1 P  py                45     -1.688922  1 P  fxxy       
    50     -1.688922  1 P  fyyy              52     -1.313175  1 P  fyzz       
    94      1.115807  4 H  s                128      0.868535  5 H  dyz        
    16     -0.858759  1 P  px                88     -0.783274  3 H  dxz        
    14     -0.725051  1 P  py                42     -0.636690  1 P  dyz        
 
 Vector   89  Occ=0.000000D+00  E= 3.082844D+00  Symmetry=a1
              MO Center=  3.2D-10,  3.5D-10, -4.3D-01, r^2= 2.3D+00
   Bfn.  Coefficient  Atom+Function         Bfn.  Coefficient  Atom+Function  
  ----- ------------  ---------------      ----- ------------  ---------------
    18      3.245757  1 P  pz                53     -1.881176  1 P  fzzz       
    46     -1.361738  1 P  fxxz              51     -1.361738  1 P  fyyz       
    56     -1.183538  2 H  s                 15     -0.751841  1 P  pz         
    87     -0.706387  3 H  dxy               43      0.660322  1 P  dzz        
   109      0.658580  4 H  dyz              126      0.658580  5 H  dxz        
 
 Vector   90  Occ=0.000000D+00  E= 3.156386D+00  Symmetry=a1
              MO Center= -7.1D-15, -4.4D-14,  1.3D-05, r^2= 1.7D+00
   Bfn.  Coefficient  Atom+Function         Bfn.  Coefficient  Atom+Function  
  ----- ------------  ---------------      ----- ------------  ---------------
     5     10.756402  1 P  s                 32     -5.738821  1 P  dxx        
    35     -5.738821  1 P  dyy               37     -5.738836  1 P  dzz        
    22      4.181098  1 P  s                  6      3.621950  1 P  s          
     4     -2.555109  1 P  s                 38     -1.969625  1 P  dxx        
    41     -1.969625  1 P  dyy               43     -1.969541  1 P  dzz        
 
 Vector   91  Occ=0.000000D+00  E= 3.256874D+00  Symmetry=e
              MO Center= -3.3D-06,  4.1D-07,  6.6D-06, r^2= 1.9D+00
   Bfn.  Coefficient  Atom+Function         Bfn.  Coefficient  Atom+Function  
  ----- ------------  ---------------      ----- ------------  ---------------
    40      1.700061  1 P  dxz               28      0.838562  1 P  dxz        
    69      0.684325  2 H  dxz               42     -0.582888  1 P  dyz        
    38     -0.570737  1 P  dxx               41      0.570737  1 P  dyy        
    64     -0.566533  2 H  px               123      0.563329  5 H  pz         
    39      0.558586  1 P  dxy              106      0.533727  4 H  dxy        
 
 Vector   92  Occ=0.000000D+00  E= 3.256874D+00  Symmetry=e
              MO Center=  3.3D-06, -4.1D-07,  6.6D-06, r^2= 1.9D+00
   Bfn.  Coefficient  Atom+Function         Bfn.  Coefficient  Atom+Function  
  ----- ------------  ---------------      ----- ------------  ---------------
    42      1.700061  1 P  dyz               39      1.141474  1 P  dxy        
    30      0.838562  1 P  dyz               71      0.684325  2 H  dyz        
   125      0.670043  5 H  dxy               40      0.582888  1 P  dxz        
   122      0.580672  5 H  py                65     -0.566533  2 H  py         
    27      0.563033  1 P  dxy               85     -0.507182  3 H  pz         
 
 Vector   93  Occ=0.000000D+00  E= 3.461523D+00  Symmetry=a1
              MO Center= -3.9D-09, -3.6D-09, -3.0D-01, r^2= 2.2D+00
   Bfn.  Coefficient  Atom+Function         Bfn.  Coefficient  Atom+Function  
  ----- ------------  ---------------      ----- ------------  ---------------
    18      5.083804  1 P  pz                56     -2.331262  2 H  s          
    55     -1.725418  2 H  s                 21      1.693588  1 P  pz         
    53     -1.595834  1 P  fzzz              15     -1.086988  1 P  pz         
    66      1.041107  2 H  pz                46     -0.883865  1 P  fxxz       
    51     -0.883865  1 P  fyyz              75      0.777070  3 H  s          
 
 Vector   94  Occ=0.000000D+00  E= 3.461523D+00  Symmetry=e
              MO Center= -1.6D-01,  1.4D-01,  1.5D-01, r^2= 2.3D+00
   Bfn.  Coefficient  Atom+Function         Bfn.  Coefficient  Atom+Function  
[...]
 
 Vector  109  Occ=0.000000D+00  E= 5.466280D+00  Symmetry=a1
              MO Center= -8.0D-16, -1.7D-16,  1.9D-01, r^2= 1.3D+00
   Bfn.  Coefficient  Atom+Function         Bfn.  Coefficient  Atom+Function  
  ----- ------------  ---------------      ----- ------------  ---------------
    18      4.408762  1 P  pz                53     -3.608464  1 P  fzzz       
    37     -2.552229  1 P  dzz               72      1.704525  2 H  dzz        
    63     -1.683247  2 H  pz                46     -1.667691  1 P  fxxz       
    51     -1.667691  1 P  fyyz              15     -1.569095  1 P  pz         
    45      1.455568  1 P  fxxy              47      1.455568  1 P  fxyy       
 
 Vector  110  Occ=0.000000D+00  E= 5.466284D+00  Symmetry=e
              MO Center= -3.5D-02, -1.3D-01, -9.5D-02, r^2= 1.3D+00
   Bfn.  Coefficient  Atom+Function         Bfn.  Coefficient  Atom+Function  
  ----- ------------  ---------------      ----- ------------  ---------------
    17      3.817737  1 P  py                45     -2.704566  1 P  fxxy       
    50     -2.704566  1 P  fyyy              16     -2.205079  1 P  px         
    36      2.210062  1 P  dyz               46      1.988471  1 P  fxxz       
    51     -1.988471  1 P  fyyz              32     -1.743280  1 P  dxx        
    35      1.743280  1 P  dyy               44      1.562125  1 P  fxxx       
 
 Vector  111  Occ=0.000000D+00  E= 5.466284D+00  Symmetry=e
              MO Center=  3.5D-02,  1.3D-01, -9.5D-02, r^2= 1.3D+00
   Bfn.  Coefficient  Atom+Function         Bfn.  Coefficient  Atom+Function  
  ----- ------------  ---------------      ----- ------------  ---------------
    48      3.976942  1 P  fxyz              16      3.817737  1 P  px         
    33     -3.486561  1 P  dxy               44     -2.704566  1 P  fxxx       
    47     -2.704566  1 P  fxyy              17      2.205079  1 P  py         
    34      2.210062  1 P  dxz               45     -1.562125  1 P  fxxy       
    50     -1.562125  1 P  fyyy              49     -1.444132  1 P  fxzz       
 
 Vector  112  Occ=0.000000D+00  E= 8.360454D+00  Symmetry=a1
              MO Center= -5.5D-15, -9.2D-15,  3.0D-06, r^2= 8.3D-01
   Bfn.  Coefficient  Atom+Function         Bfn.  Coefficient  Atom+Function  
  ----- ------------  ---------------      ----- ------------  ---------------
     5     18.975903  1 P  s                 32     -6.445571  1 P  dxx        
    35     -6.445571  1 P  dyy               37     -6.445588  1 P  dzz        
    26     -3.236002  1 P  dxx               29     -3.236002  1 P  dyy        
    31     -3.236002  1 P  dzz               22      2.112844  1 P  s          
     3     -1.749569  1 P  s                  4     -0.981839  1 P  s          
 
 Vector  113  Occ=0.000000D+00  E= 8.489525D+00  Symmetry=e
              MO Center= -2.5D-01, -1.9D-01,  2.3D-01, r^2= 2.1D+00
   Bfn.  Coefficient  Atom+Function         Bfn.  Coefficient  Atom+Function  
  ----- ------------  ---------------      ----- ------------  ---------------
   117      0.670615  5 H  pz                98     -0.617311  4 H  pz         
    58      0.598518  2 H  px               120     -0.533395  5 H  pz         
    59     -0.518448  2 H  py               101      0.490997  4 H  pz         
    49      0.484048  1 P  fxzz              61     -0.476014  2 H  px         
    52     -0.419292  1 P  fyzz              62      0.412332  2 H  py         
 
 Vector  114  Occ=0.000000D+00  E= 8.489525D+00  Symmetry=e
              MO Center=  2.5D-01,  1.9D-01,  2.3D-01, r^2= 2.1D+00
   Bfn.  Coefficient  Atom+Function         Bfn.  Coefficient  Atom+Function  
  ----- ------------  ---------------      ----- ------------  ---------------
    79      0.743585  3 H  pz                59     -0.598518  2 H  py         
    82     -0.591433  3 H  pz                58     -0.518448  2 H  px         
    52     -0.484048  1 P  fyzz              62      0.476014  2 H  py         
    48      0.451511  1 P  fxyz              49     -0.419292  1 P  fxzz       
    98     -0.417955  4 H  pz                61      0.412332  2 H  px         
 
 Vector  115  Occ=0.000000D+00  E= 8.489544D+00  Symmetry=a2
              MO Center=  2.9D-13,  3.8D-13, -4.5D-01, r^2= 2.0D+00
   Bfn.  Coefficient  Atom+Function         Bfn.  Coefficient  Atom+Function  
  ----- ------------  ---------------      ----- ------------  ---------------
    96      0.720562  4 H  px               116     -0.720562  5 H  py         
    99     -0.573091  4 H  px               119      0.573091  5 H  py         
    77     -0.527488  3 H  px                78      0.527488  3 H  py         
    45     -0.480299  1 P  fxxy              47      0.480299  1 P  fxyy       
    80      0.419532  3 H  px                81     -0.419532  3 H  py         
 
 Vector  116  Occ=0.000000D+00  E= 8.513913D+00  Symmetry=e
              MO Center=  7.4D-04, -8.6D-05, -5.8D-04, r^2= 2.2D+00
   Bfn.  Coefficient  Atom+Function         Bfn.  Coefficient  Atom+Function  
  ----- ------------  ---------------      ----- ------------  ---------------
   116     -0.623481  5 H  py                59      0.607199  2 H  py         
    79      0.546612  3 H  pz                98     -0.502181  4 H  pz         
   119      0.469009  5 H  py                42     -0.466370  1 P  dyz        
    62     -0.456762  2 H  py                82     -0.411211  3 H  pz         
    96     -0.395018  4 H  px               101      0.377786  4 H  pz         
 
 Vector  117  Occ=0.000000D+00  E= 8.513913D+00  Symmetry=e
              MO Center= -7.4D-04,  8.6D-05, -5.8D-04, r^2= 2.2D+00
   Bfn.  Coefficient  Atom+Function         Bfn.  Coefficient  Atom+Function  
  ----- ------------  ---------------      ----- ------------  ---------------
    58      0.607199  2 H  px               117     -0.605521  5 H  pz         
    96     -0.482482  4 H  px                78      0.475395  3 H  py         
    40     -0.466370  1 P  dxz               61     -0.456762  2 H  px         
   120      0.455527  5 H  pz                34      0.362584  1 P  dxz        
    99      0.362936  4 H  px                81     -0.357627  3 H  py         
 
 Vector  118  Occ=0.000000D+00  E= 8.600306D+00  Symmetry=e
              MO Center= -2.6D-01,  1.7D-01,  2.2D-01, r^2= 2.1D+00
   Bfn.  Coefficient  Atom+Function         Bfn.  Coefficient  Atom+Function  
  ----- ------------  ---------------      ----- ------------  ---------------
    59     -0.785454  2 H  py               116     -0.753870  5 H  py         
    20      0.746865  1 P  py                48     -0.651010  1 P  fxyz       
    62      0.633196  2 H  py               119      0.614058  5 H  py         
    17     -0.597237  1 P  py                93     -0.448525  4 H  s          
    94      0.415142  4 H  s                 74      0.373434  3 H  s          
 
 Vector  119  Occ=0.000000D+00  E= 8.600306D+00  Symmetry=e
              MO Center=  2.6D-01, -1.7D-01,  2.2D-01, r^2= 2.1D+00
   Bfn.  Coefficient  Atom+Function         Bfn.  Coefficient  Atom+Function  
  ----- ------------  ---------------      ----- ------------  ---------------
    58     -0.785454  2 H  px                19      0.746865  1 P  px         
    96     -0.712398  4 H  px                61      0.633196  2 H  px         
    16     -0.597237  1 P  px                99      0.588830  4 H  px         
    48     -0.527019  1 P  fxyz             112     -0.474558  5 H  s          
   113      0.439238  5 H  s                 77     -0.433377  3 H  px         
 
 Vector  120  Occ=0.000000D+00  E= 8.600328D+00  Symmetry=a1
              MO Center=  2.6D-17,  3.6D-16, -4.4D-01, r^2= 2.0D+00
   Bfn.  Coefficient  Atom+Function         Bfn.  Coefficient  Atom+Function  
  ----- ------------  ---------------      ----- ------------  ---------------
    21      0.750998  1 P  pz                79     -0.691050  3 H  pz         
    98     -0.691050  4 H  pz               117     -0.691050  5 H  pz         
    18     -0.600505  1 P  pz                82      0.576674  3 H  pz         
   101      0.576674  4 H  pz               120      0.576674  5 H  pz         
    55      0.509613  2 H  s                 56     -0.471694  2 H  s          
 
 Vector  121  Occ=0.000000D+00  E= 9.392268D+00  Symmetry=a1
              MO Center=  2.9D-10,  1.7D-10,  8.3D-01, r^2= 1.4D+00
   Bfn.  Coefficient  Atom+Function         Bfn.  Coefficient  Atom+Function  
  ----- ------------  ---------------      ----- ------------  ---------------
    18      3.281895  1 P  pz                53     -2.434330  1 P  fzzz       
    63     -1.922551  2 H  pz                46     -1.537366  1 P  fxxz       
    51     -1.537366  1 P  fyyz              37     -1.340864  1 P  dzz        
    56     -1.263841  2 H  s                 15     -1.252979  1 P  pz         
    60      1.219692  2 H  pz                72      0.759278  2 H  dzz        
 
 Vector  122  Occ=0.000000D+00  E= 9.392309D+00  Symmetry=e
              MO Center= -3.2D-01, -4.9D-01, -4.1D-01, r^2= 1.6D+00
   Bfn.  Coefficient  Atom+Function         Bfn.  Coefficient  Atom+Function  
  ----- ------------  ---------------      ----- ------------  ---------------
    17      2.536314  1 P  py                16     -2.082824  1 P  px         
    45     -1.707886  1 P  fxxy              50     -1.707886  1 P  fyyy       
   100     -1.501671  4 H  py                44      1.402518  1 P  fxxx       
    47      1.402518  1 P  fxyy             118      1.333263  5 H  px         
    52     -1.188524  1 P  fyzz              94      1.085108  4 H  s          
 
 Vector  123  Occ=0.000000D+00  E= 9.392309D+00  Symmetry=e
              MO Center=  3.2D-01,  4.9D-01, -4.1D-01, r^2= 1.6D+00
   Bfn.  Coefficient  Atom+Function         Bfn.  Coefficient  Atom+Function  
  ----- ------------  ---------------      ----- ------------  ---------------
    16      2.536314  1 P  px                17      2.082824  1 P  py         
    33     -1.888443  1 P  dxy               48      1.891761  1 P  fxyz       
    44     -1.707886  1 P  fxxx              47     -1.707886  1 P  fxyy       
    45     -1.402518  1 P  fxxy              50     -1.402518  1 P  fyyy       
    80     -1.221702  3 H  px                81     -1.203441  3 H  py         
 
 Vector  124  Occ=0.000000D+00  E= 9.430868D+00  Symmetry=a1
              MO Center= -7.7D-13, -6.3D-13, -8.8D-04, r^2= 2.1D+00
   Bfn.  Coefficient  Atom+Function         Bfn.  Coefficient  Atom+Function  
  ----- ------------  ---------------      ----- ------------  ---------------
     6      5.283408  1 P  s                  5      3.930913  1 P  s          
    32     -1.366703  1 P  dxx               35     -1.366703  1 P  dyy        
    37     -1.367956  1 P  dzz               55     -1.287986  2 H  s          
    74     -1.288471  3 H  s                 93     -1.288471  4 H  s          
   112     -1.288471  5 H  s                 38     -1.218516  1 P  dxx        
 
 Vector  125  Occ=0.000000D+00  E= 1.462496D+01  Symmetry=a1
              MO Center= -8.9D-11, -3.3D-11,  3.8D-02, r^2= 2.5D-01
   Bfn.  Coefficient  Atom+Function         Bfn.  Coefficient  Atom+Function  
  ----- ------------  ---------------      ----- ------------  ---------------
    18      3.405808  1 P  pz                46     -1.815099  1 P  fxxz       
    51     -1.815099  1 P  fyyz              12     -1.637702  1 P  pz         
    53     -1.494942  1 P  fzzz               9      1.222345  1 P  pz         
    55     -0.719214  2 H  s                 56     -0.696955  2 H  s          
    15      0.558475  1 P  pz                37      0.492175  1 P  dzz        
 
 Vector  126  Occ=0.000000D+00  E= 1.462496D+01  Symmetry=e
              MO Center=  2.6D-02,  7.3D-03, -1.9D-02, r^2= 2.5D-01
   Bfn.  Coefficient  Atom+Function         Bfn.  Coefficient  Atom+Function  
  ----- ------------  ---------------      ----- ------------  ---------------
    17      2.940963  1 P  py                16      1.717617  1 P  px         
    52     -1.567365  1 P  fyzz              11     -1.414182  1 P  py         
    45     -1.360018  1 P  fxxy              50     -1.360018  1 P  fyyy       
     8      1.055515  1 P  py                49     -0.915391  1 P  fxzz       
    10     -0.825928  1 P  px                44     -0.794294  1 P  fxxx       
 
 Vector  127  Occ=0.000000D+00  E= 1.462496D+01  Symmetry=e
              MO Center= -2.6D-02, -7.3D-03, -1.9D-02, r^2= 2.5D-01
   Bfn.  Coefficient  Atom+Function         Bfn.  Coefficient  Atom+Function  
  ----- ------------  ---------------      ----- ------------  ---------------
    16      2.940963  1 P  px                17     -1.717617  1 P  py         
    49     -1.567365  1 P  fxzz              10     -1.414182  1 P  px         
    44     -1.360018  1 P  fxxx              47     -1.360018  1 P  fxyy       
     7      1.055515  1 P  px                52      0.915391  1 P  fyzz       
    11      0.825928  1 P  py                45      0.794294  1 P  fxxy       
 
 Vector  128  Occ=0.000000D+00  E= 2.102398D+01  Symmetry=a1
              MO Center=  2.6D-15, -2.8D-15,  6.4D-07, r^2= 3.1D-01
   Bfn.  Coefficient  Atom+Function         Bfn.  Coefficient  Atom+Function  
  ----- ------------  ---------------      ----- ------------  ---------------
     5     16.453952  1 P  s                  4     14.670704  1 P  s          
     3    -11.458131  1 P  s                 26     -6.661490  1 P  dxx        
    29     -6.661490  1 P  dyy               31     -6.661492  1 P  dzz        
    32     -5.038643  1 P  dxx               35     -5.038643  1 P  dyy        
    37     -5.038644  1 P  dzz               22      1.141319  1 P  s          
 
 Vector  129  Occ=0.000000D+00  E= 1.884437D+02  Symmetry=a1
              MO Center=  3.5D-16, -7.1D-17,  5.2D-07, r^2= 4.0D-02
   Bfn.  Coefficient  Atom+Function         Bfn.  Coefficient  Atom+Function  
  ----- ------------  ---------------      ----- ------------  ---------------
     4      7.161647  1 P  s                  3     -6.050797  1 P  s          
     5      5.520550  1 P  s                 26     -2.698293  1 P  dxx        
    29     -2.698293  1 P  dyy               31     -2.698293  1 P  dzz        
     2      2.301474  1 P  s                 32     -1.711777  1 P  dxx        
    35     -1.711777  1 P  dyy               37     -1.711777  1 P  dzz        
 

 center of mass
 --------------
 x =   0.00000000 y =   0.00000000 z =   0.00000045

 moments of inertia (a.u.)
 ------------------
          18.621052184145          -0.000000000000           0.000000000000
          -0.000000000000          18.621052184145           0.000000000000
           0.000000000000           0.000000000000          18.620999826072
 
     Multipole analysis of the density
     ---------------------------------
 
     L   x y z        total         alpha         beta         nuclear
     -   - - -        -----         -----         ----         -------
     0   0 0 0      1.000000     -9.000000     -9.000000     19.000000
 
     1   1 0 0      0.000000      0.000000      0.000000      0.000000
     1   0 1 0      0.000000     -0.000000     -0.000000      0.000000
     1   0 0 1      0.000003      0.000001      0.000001     -0.000000
 
     2   2 0 0     -7.914050     -8.576130     -8.576130      9.238211
     2   1 1 0     -0.000000     -0.000000     -0.000000      0.000000
     2   1 0 1     -0.000000      0.000000      0.000000     -0.000000
     2   0 2 0     -7.914050     -8.576130     -8.576130      9.238211
     2   0 1 1     -0.000000      0.000000      0.000000     -0.000000
     2   0 0 2     -7.914036     -8.576149     -8.576149      9.238263
 

------------------------------------------------------------
EAF file 0: "./PH3+.xyz.aoints.00" size=524288 bytes
------------------------------------------------------------
               write      read    awrite     aread      wait
               -----      ----    ------     -----      ----
     calls:       11         8         0         7         7
   data(b): 5.77e+06  4.19e+06  0.00e+00  3.67e+06
   time(s): 0.00e+00  0.00e+00  0.00e+00  0.00e+00  0.00e+00
rate(mb/s): 0.00e+00  0.00e+00
------------------------------------------------------------


 Parallel integral file used     237 records with       0 large values


 Task  times  cpu:        4.5s     wall:        5.3s
 
 
                                NWChem Input Module
                                -------------------
 
 
 Summary of allocated global arrays
-----------------------------------
  No active global arrays



                         GA Statistics for process    0
                         ------------------------------

       create   destroy   get      put      acc     scatter   gather  read&inc
calls:  200      200     2117     1087      692        0        0      193     
number of processes/call 2.24e+00 1.53e+00 2.54e+00 0.00e+00 0.00e+00
bytes total:             3.23e+07 4.70e+06 1.72e+07 0.00e+00 0.00e+00 1.54e+03
bytes remote:            2.25e+07 2.05e+06 1.08e+07 0.00e+00 0.00e+00 0.00e+00
Max memory consumed for GA by this process: 1007832 bytes
 
MA_summarize_allocated_blocks: starting scan ...
MA_summarize_allocated_blocks: scan completed: 0 heap blocks, 0 stack blocks
MA usage statistics:

	allocation statistics:
					      heap	     stack
					      ----	     -----
	current number of blocks	         0	         0
	maximum number of blocks	        22	        57
	current total bytes		         0	         0
	maximum total bytes		   8817360	  24114296
	maximum total K-bytes		      8818	     24115
	maximum total M-bytes		         9	        25
 
 
                                     CITATION
                                     --------
                Please cite the following reference when publishing
                           results obtained with NWChem:
 
                 M. Valiev, E.J. Bylaska, N. Govind, K. Kowalski,
              T.P. Straatsma, H.J.J. van Dam, D. Wang, J. Nieplocha,
                        E. Apra, T.L. Windus, W.A. de Jong
                 "NWChem: a comprehensive and scalable open-source
                  solution for large scale molecular simulations"
                      Comput. Phys. Commun. 181, 1477 (2010)
                           doi:10.1016/j.cpc.2010.04.018
 
                                      AUTHORS
                                      -------
          E. Apra, E. J. Bylaska, W. A. de Jong, N. Govind, K. Kowalski,
       T. P. Straatsma, M. Valiev, H. J. J. van Dam, D. Wang, T. L. Windus,
        J. Hammond, J. Autschbach, K. Bhaskaran-Nair, J. Brabec, K. Lopata,
    S. A. Fischer, S. Krishnamoorthy, M. Jacquelin, W. Ma, M. Klemm, O. Villa,
      Y. Chen, V. Anisimov, F. Aquino, S. Hirata, M. T. Hackler, V. Konjkov,
            D. Mejia-Rodriguez, T. Risthaus, M. Malagoli, A. Marenich,
   A. Otero-de-la-Roza, J. Mullin, P. Nichols, R. Peverati, J. Pittner, Y. Zhao,
        P.-D. Fan, A. Fonari, M. J. Williamson, R. J. Harrison, J. R. Rehr,
      M. Dupuis, D. Silverstein, D. M. A. Smith, J. Nieplocha, V. Tipparaju,
    M. Krishnan, B. E. Van Kuiken, A. Vazquez-Mayagoitia, L. Jensen, M. Swart,
      Q. Wu, T. Van Voorhis, A. A. Auer, M. Nooijen, L. D. Crosby, E. Brown,
      G. Cisneros, G. I. Fann, H. Fruchtl, J. Garza, K. Hirao, R. A. Kendall,
      J. A. Nichols, K. Tsemekhman, K. Wolinski, J. Anchell, D. E. Bernholdt,
      P. Borowski, T. Clark, D. Clerc, H. Dachsel, M. J. O. Deegan, K. Dyall,
    D. Elwood, E. Glendening, M. Gutowski, A. C. Hess, J. Jaffe, B. G. Johnson,
     J. Ju, R. Kobayashi, R. Kutteh, Z. Lin, R. Littlefield, X. Long, B. Meng,
      T. Nakajima, S. Niu, L. Pollack, M. Rosing, K. Glaesemann, G. Sandrone,
      M. Stave, H. Taylor, G. Thomas, J. H. van Lenthe, A. T. Wong, Z. Zhang.

 Total times  cpu:        4.5s     wall:        5.7s
