 argument  1 = /storage/home/rabeet/work/nwc/pa8/nwtpss/PH3.xyz.nw
  NWChem w/ OpenMP: maximum threads =  1
                                         
                                         
 
 
              Northwest Computational Chemistry Package (NWChem) 6.8
              ------------------------------------------------------
 
 
                    Environmental Molecular Sciences Laboratory
                       Pacific Northwest National Laboratory
                                Richland, WA 99352
 
                              Copyright (c) 1994-2018
                       Pacific Northwest National Laboratory
                            Battelle Memorial Institute
 
             NWChem is an open-source computational chemistry package
                        distributed under the terms of the
                      Educational Community License (ECL) 2.0
             A copy of the license is included with this distribution
                              in the LICENSE.TXT file
 
                                  ACKNOWLEDGMENT
                                  --------------

            This software and its documentation were developed at the
            EMSL at Pacific Northwest National Laboratory, a multiprogram
            national laboratory, operated for the U.S. Department of Energy
            by Battelle under Contract Number DE-AC05-76RL01830. Support
            for this work was provided by the Department of Energy Office
            of Biological and Environmental Research, Office of Basic
            Energy Sciences, and the Office of Advanced Scientific Computing.


           Job information
           ---------------

    hostname        = r8n4.niserhpc.org
    program         = /home/rabeet/nwchem-6.8/bin/LINUX64/nwchem
    date            = Sun Oct 27 10:45:48 2019

    compiled        = Fri_Jun_28_18:24:12_2019
    source          = /home/rabeet/nwchem-6.8
    nwchem branch   = Development
    nwchem revision = N/A
    ga revision     = 5.6.5
    use scalapack   = T
    input           = /storage/home/rabeet/work/nwc/pa8/nwtpss/PH3.xyz.nw
    prefix          = PH3.xyz.
    data base       = ./PH3.xyz.db
    status          = startup
    nproc           =       16
    time left       =     -1s



           Memory information
           ------------------

    heap     =   13107196 doubles =    100.0 Mbytes
    stack    =   13107201 doubles =    100.0 Mbytes
    global   =   26214400 doubles =    200.0 Mbytes (distinct from heap & stack)
    total    =   52428797 doubles =    400.0 Mbytes
    verify   = yes
    hardfail = no 


           Directory information
           ---------------------
 
  0 permanent = .
  0 scratch   = .
 
 
 
 
                                NWChem Input Module
                                -------------------
 
 

 Scaling coordinates for geometry "geometry" by  1.889725989
 (inverse scale =  0.529177249)

 C3V symmetry detected

          ------
          auto-z
          ------
  Looking for out-of-plane bends
  no constraints, skipping   0.000000000000000E+000
  no constraints, skipping   0.000000000000000E+000
 
 
                             Geometry "geometry" -> ""
                             -------------------------
 
 Output coordinates in angstroms (scale by  1.889725989 to convert to a.u.)
 
  No.       Tag          Charge          X              Y              Z
 ---- ---------------- ---------- -------------- -------------- --------------
    1 P                   15.0000     0.00000000     0.00000000     0.12461833
    2 H                    1.0000    -0.84898519    -0.84898519    -0.62309167
    3 H                    1.0000    -0.31075015     1.15973534    -0.62309167
    4 H                    1.0000     1.15973534    -0.31075015    -0.62309167
 
      Atomic Mass 
      ----------- 
 
      P                 30.973760
      H                  1.007825
 

 Effective nuclear repulsion energy (a.u.)      17.5990897957

            Nuclear Dipole moment (a.u.) 
            ----------------------------
        X                 Y               Z
 ---------------- ---------------- ----------------
     0.0000000000     0.0000000000     0.0000000000
 
      Symmetry information
      --------------------
 
 Group name             C3v       
 Group number             17
 Group order               6
 No. of unique centers     2
 
      Symmetry unique atoms
 
     1    2
 


                                Z-matrix (autoz)
                                -------- 

 Units are Angstrom for bonds and degrees for angles
 
      Type          Name      I     J     K     L     M      Value
      ----------- --------  ----- ----- ----- ----- ----- ----------
    1 Stretch                  1     2                       1.41443
    2 Stretch                  1     3                       1.41443
    3 Stretch                  1     4                       1.41443
    4 Bend                     2     1     3                94.63614
    5 Bend                     2     1     4                94.63614
    6 Bend                     3     1     4                94.63614
    7 Torsion                  2     1     3     4         -95.04484
    8 Torsion                  2     1     4     3          95.04484
    9 Torsion                  3     1     2     4          95.04484
   10 Torsion                  2     4     1     3         -95.04484
   11 Torsion                  3     2     1     4         -95.04484
   12 Torsion                  2     3     1     4          95.04484
 
 
            XYZ format geometry
            -------------------
     4
 geometry
 P                     0.00000000     0.00000000     0.12461833
 H                    -0.84898519    -0.84898519    -0.62309167
 H                    -0.31075015     1.15973534    -0.62309167
 H                     1.15973534    -0.31075015    -0.62309167
 
 ==============================================================================
                                internuclear distances
 ------------------------------------------------------------------------------
       center one      |      center two      | atomic units |  angstroms
 ------------------------------------------------------------------------------
    2 H                |   1 P                |     2.67289  |     1.41443
    3 H                |   1 P                |     2.67289  |     1.41443
    4 H                |   1 P                |     2.67289  |     1.41443
 ------------------------------------------------------------------------------
                         number of included internuclear distances:          3
 ==============================================================================



 ==============================================================================
                                 internuclear angles
 ------------------------------------------------------------------------------
        center 1       |       center 2       |       center 3       |  degrees
 ------------------------------------------------------------------------------
    2 H                |   1 P                |   3 H                |    94.64
    2 H                |   1 P                |   4 H                |    94.64
    3 H                |   1 P                |   4 H                |    94.64
 ------------------------------------------------------------------------------
                            number of included internuclear angles:          3
 ==============================================================================





 Summary of "ao basis" -> "" (cartesian)
 ------------------------------------------------------------------------------
       Tag                 Description            Shells   Functions and Types
 ---------------- ------------------------------  ------  ---------------------
 *                     6-311++G(3df,3pd)              on all atoms 


 
                                 NWChem DFT Module
                                 -----------------
 
 
                      Basis "ao basis" -> "ao basis" (cartesian)
                      -----
  P (Phosphorous)
  ---------------
            Exponent  Coefficients 
       -------------- ---------------------------------------------------------
  1 S  7.74924000E+04  0.000781
  1 S  1.16058000E+04  0.006068
  1 S  2.64596000E+03  0.031160
  1 S  7.54976000E+02  0.123431
  1 S  2.48755000E+02  0.378209
  1 S  9.11565000E+01  0.563262
 
  2 S  9.11565000E+01  0.160255
  2 S  3.62257000E+01  0.627647
  2 S  1.52113000E+01  0.263849
 
  3 S  4.79417000E+00  1.000000
 
  4 S  1.80793000E+00  1.000000
 
  5 S  3.56816000E-01  1.000000
 
  6 S  1.14783000E-01  1.000000
 
  7 P  3.84843000E+02  0.009206
  7 P  9.05521000E+01  0.069874
  7 P  2.91339000E+01  0.292470
  7 P  1.08862000E+01  0.728103
 
  8 P  4.35259000E+00  0.628349
  8 P  1.77706000E+00  0.428044
 
  9 P  6.97005000E-01  1.000000
 
 10 P  2.53532000E-01  1.000000
 
 11 P  6.84930000E-02  1.000000
 
 12 S  3.48000000E-02  1.000000
 
 13 P  3.48000000E-02  1.000000
 
 14 D  2.20000000E+00  1.000000
 
 15 D  5.50000000E-01  1.000000
 
 16 D  1.37500000E-01  1.000000
 
 17 F  4.50000000E-01  1.000000
 
  H (Hydrogen)
  ------------
            Exponent  Coefficients 
       -------------- ---------------------------------------------------------
  1 S  3.38650000E+01  0.025494
  1 S  5.09479000E+00  0.190373
  1 S  1.15879000E+00  0.852161
 
  2 S  3.25840000E-01  1.000000
 
  3 S  1.02741000E-01  1.000000
 
  4 S  3.60000000E-02  1.000000
 
  5 P  3.00000000E+00  1.000000
 
  6 P  7.50000000E-01  1.000000
 
  7 P  1.87500000E-01  1.000000
 
  8 D  1.00000000E+00  1.000000
 


 Summary of "ao basis" -> "ao basis" (cartesian)
 ------------------------------------------------------------------------------
       Tag                 Description            Shells   Functions and Types
 ---------------- ------------------------------  ------  ---------------------
 P                     6-311++G(3df,3pd)            17       53   7s6p3d1f
 H                     6-311++G(3df,3pd)             8       19   4s3p1d




 Summary of "ao basis" -> "ao basis" (cartesian)
 ------------------------------------------------------------------------------
       Tag                 Description            Shells   Functions and Types
 ---------------- ------------------------------  ------  ---------------------
 P                     6-311++G(3df,3pd)            17       53   7s6p3d1f
 H                     6-311++G(3df,3pd)             8       19   4s3p1d


      Symmetry analysis of basis
      --------------------------
 
        a1         36
        a2          6
        e          68
 
  Caching 1-el integrals 
  Rotation of axis 
 
            General Information
            -------------------
          SCF calculation type: DFT
          Wavefunction type:  closed shell.
          No. of atoms     :     4
          No. of electrons :    18
           Alpha electrons :     9
            Beta electrons :     9
          Charge           :     0
          Spin multiplicity:     1
          Use of symmetry is: on ; symmetry adaption is: on 
          Maximum number of iterations: ***
          AO basis - number of functions:   110
                     number of shells:    41
          Convergence on energy requested:  1.00D-06
          Convergence on density requested:  1.00D-05
          Convergence on gradient requested:  5.00D-04
 
              XC Information
              --------------
                  TPSS metaGGA Exchange Functional  1.000          
             TPSS03 metaGGA Correlation Functional  1.000          
 
             Grid Information
             ----------------
          Grid used for XC integration:  medium    
          Radial quadrature: Mura-Knowles        
          Angular quadrature: Lebedev. 
          Tag              B.-S. Rad. Rad. Pts. Rad. Cut. Ang. Pts.
          ---              ---------- --------- --------- ---------
          P                   1.00       88          11.0       590
          H                   0.35       45          11.0       434
          Grid pruning is: on 
          Number of quadrature shells:   133
          Spatial weights used:  Erf1
 
          Convergence Information
          -----------------------
          Convergence aids based upon iterative change in 
          total energy or number of iterations. 
          Levelshifting, if invoked, occurs when the 
          HOMO/LUMO gap drops below (HL_TOL):  1.00D-02
          DIIS, if invoked, will attempt to extrapolate 
          using up to (NFOCK): 10 stored Fock matrices.

                    Damping( 0%)  Levelshifting(0.5)       DIIS
                  --------------- ------------------- ---------------
          dE  on:    start            ASAP                start   
          dE off:    2 iters        *** iters           *** iters 

 
      Screening Tolerance Information
      -------------------------------
          Density screening/tol_rho:  1.00D-10
          AO Gaussian exp screening on grid/accAOfunc:  14
          CD Gaussian exp screening on grid/accCDfunc:  20
          XC Gaussian exp screening on grid/accXCfunc:  20
          Schwarz screening/accCoul:  1.00D-08

 
      Superposition of Atomic Density Guess
      -------------------------------------
 
 Sum of atomic energies:        -342.14993010
 
      Non-variational initial energy
      ------------------------------

 Total energy =    -342.362576
 1-e energy   =    -507.413032
 2-e energy   =     147.451366
 HOMO         =      -0.313574
 LUMO         =       0.029013
 
 
      Symmetry analysis of molecular orbitals - initial
      -------------------------------------------------
 
  Numbering of irreducible representations: 
 
     1 a1          2 a2          3 e       
 
  Orbital symmetries:
 
     1 a1          2 a1          3 e           4 e           5 a1      
     6 a1          7 e           8 e           9 a1         10 a1      
    11 e          12 e          13 e          14 e          15 a1      
    16 e          17 e          18 a1         19 a1      
 
   Time after variat. SCF:      0.6
   Time prior to 1st pass:      0.6

 Integral file          = ./PH3.xyz.aoints.00
 Record size in doubles =    65536    No. of integs per rec  =    43688
 Max. records in memory =        9    Max. records in file   =  8902814
 No. of bits per label  =        8    No. of bits per value  =       64


 #quartets = 1.153D+05 #integrals = 5.368D+06 #direct =  0.0% #cached =100.0%


File balance: exchanges=    16  moved=    11  time=   0.0


 Grid_pts file          = ./PH3.xyz.gridpts.00
 Record size in doubles =  12289        No. of grid_pts per rec  =   3070
 Max. records in memory =      3        Max. recs in file   =    570724


           Memory utilization after 1st SCF pass: 
           Heap Space remaining (MW):       12.48            12476540
          Stack Space remaining (MW):       13.11            13106484

   convergence    iter        energy       DeltaE   RMS-Dens  Diis-err    time
 ---------------- ----- ----------------- --------- --------- ---------  ------
 d= 0,ls=0.0,diis     1   -343.1668875517 -3.61D+02  3.52D-03  5.01D-01     1.4
 d= 0,ls=0.0,diis     2   -343.1816271772 -1.47D-02  1.57D-03  1.24D-02     1.5
 d= 0,ls=0.0,diis     3   -343.1825275887 -9.00D-04  7.32D-04  8.03D-03     1.7
 d= 0,ls=0.0,diis     4   -343.1838378889 -1.31D-03  1.03D-04  1.13D-04     1.8
 d= 0,ls=0.0,diis     5   -343.1838547085 -1.68D-05  2.53D-05  1.93D-05     1.9
  Resetting Diis
 d= 0,ls=0.0,diis     6   -343.1838567016 -1.99D-06  2.94D-06  6.19D-08     2.1
 d= 0,ls=0.0,diis     7   -343.1838567097 -8.15D-09  5.71D-07  1.50D-09     2.2


         Total DFT energy =     -343.183856709716
      One electron energy =     -508.713603097129
           Coulomb energy =      172.295702038981
          Exchange energy =      -23.719898743548
       Correlation energy =       -0.645146703672
 Nuclear repulsion energy =       17.599089795652

 Numeric. integr. density =       18.000006881029

     Total iterative time =      1.6s


 
                  Occupations of the irreducible representations
                  ----------------------------------------------
 
                     irrep           alpha         beta
                     --------     --------     --------
                     a1                5.0          5.0
                     a2                0.0          0.0
                     e                 4.0          4.0
 
 
                       DFT Final Molecular Orbital Analysis
                       ------------------------------------
 
 Vector    1  Occ=2.000000D+00  E=-7.657900D+01  Symmetry=a1
              MO Center= -2.2D-22, -3.6D-23,  1.2D-01, r^2= 4.1D-03
   Bfn.  Coefficient  Atom+Function         Bfn.  Coefficient  Atom+Function  
  ----- ------------  ---------------      ----- ------------  ---------------
     2      0.645125  1 P  s                  1      0.419621  1 P  s          
 
 Vector    2  Occ=2.000000D+00  E=-6.364299D+00  Symmetry=a1
              MO Center=  1.6D-15, -1.7D-15,  1.2D-01, r^2= 9.0D-02
   Bfn.  Coefficient  Atom+Function         Bfn.  Coefficient  Atom+Function  
  ----- ------------  ---------------      ----- ------------  ---------------
     4      0.592970  1 P  s                  3      0.506306  1 P  s          
     2     -0.312446  1 P  s                  5      0.127499  1 P  s          
     1     -0.119785  1 P  s                  6     -0.053449  1 P  s          
 
 Vector    3  Occ=2.000000D+00  E=-4.542202D+00  Symmetry=e
              MO Center= -9.4D-06, -3.7D-06,  1.2D-01, r^2= 8.3D-02
   Bfn.  Coefficient  Atom+Function         Bfn.  Coefficient  Atom+Function  
  ----- ------------  ---------------      ----- ------------  ---------------
    10      0.569549  1 P  px                11     -0.374120  1 P  py         
     7      0.340385  1 P  px                 8     -0.223589  1 P  py         
    13      0.044602  1 P  px                14     -0.029298  1 P  py         
 
 Vector    4  Occ=2.000000D+00  E=-4.542202D+00  Symmetry=e
              MO Center=  9.4D-06,  3.7D-06,  1.2D-01, r^2= 8.3D-02
   Bfn.  Coefficient  Atom+Function         Bfn.  Coefficient  Atom+Function  
  ----- ------------  ---------------      ----- ------------  ---------------
    11      0.569549  1 P  py                10      0.374120  1 P  px         
     8      0.340385  1 P  py                 7      0.223589  1 P  px         
    14      0.044602  1 P  py                13      0.029298  1 P  px         
 
 Vector    5  Occ=2.000000D+00  E=-4.537431D+00  Symmetry=a1
              MO Center= -1.8D-15,  1.1D-15,  1.3D-01, r^2= 8.3D-02
   Bfn.  Coefficient  Atom+Function         Bfn.  Coefficient  Atom+Function  
  ----- ------------  ---------------      ----- ------------  ---------------
    12      0.681497  1 P  pz                 9      0.407482  1 P  pz         
    15      0.053125  1 P  pz         
 
 Vector    6  Occ=2.000000D+00  E=-5.991469D-01  Symmetry=a1
              MO Center=  5.4D-17, -5.0D-17, -2.3D-01, r^2= 1.3D+00
   Bfn.  Coefficient  Atom+Function         Bfn.  Coefficient  Atom+Function  
  ----- ------------  ---------------      ----- ------------  ---------------
     6      0.496188  1 P  s                  5      0.428916  1 P  s          
     4     -0.301546  1 P  s                  3     -0.178438  1 P  s          
    55      0.102011  2 H  s                 74      0.102011  3 H  s          
    93      0.102011  4 H  s                 54      0.083369  2 H  s          
    73      0.083369  3 H  s                 92      0.083369  4 H  s          
 
 Vector    7  Occ=2.000000D+00  E=-3.578560D-01  Symmetry=e
              MO Center= -1.7D-01, -3.1D-01, -3.3D-01, r^2= 1.7D+00
   Bfn.  Coefficient  Atom+Function         Bfn.  Coefficient  Atom+Function  
  ----- ------------  ---------------      ----- ------------  ---------------
    55      0.278402  2 H  s                 16     -0.234052  1 P  px         
    17     -0.177325  1 P  py                56      0.174565  2 H  s          
    93     -0.172448  4 H  s                 54      0.160749  2 H  s          
    13     -0.131929  1 P  px                10      0.108106  1 P  px         
    94     -0.108129  4 H  s                 74     -0.105954  3 H  s          
 
 Vector    8  Occ=2.000000D+00  E=-3.578560D-01  Symmetry=e
              MO Center=  1.7D-01,  3.1D-01, -3.3D-01, r^2= 1.7D+00
   Bfn.  Coefficient  Atom+Function         Bfn.  Coefficient  Atom+Function  
  ----- ------------  ---------------      ----- ------------  ---------------
    74      0.260298  3 H  s                 17      0.234052  1 P  py         
    93     -0.221908  4 H  s                 16     -0.177325  1 P  px         
    75      0.163213  3 H  s                 73      0.150296  3 H  s          
    94     -0.139142  4 H  s                 14      0.131929  1 P  py         
    92     -0.128129  4 H  s                 11     -0.108106  1 P  py         
 
 Vector    9  Occ=2.000000D+00  E=-2.479763D-01  Symmetry=a1
              MO Center=  6.4D-17,  4.3D-17,  3.4D-01, r^2= 1.9D+00
   Bfn.  Coefficient  Atom+Function         Bfn.  Coefficient  Atom+Function  
  ----- ------------  ---------------      ----- ------------  ---------------
     6      0.524556  1 P  s                 18      0.523247  1 P  pz         
    22      0.244501  1 P  s                  5      0.215615  1 P  s          
    21      0.200692  1 P  pz                12     -0.153335  1 P  pz         
    15      0.153966  1 P  pz                 4     -0.152111  1 P  s          
    55     -0.117948  2 H  s                 74     -0.117948  3 H  s          
 
 Vector   10  Occ=0.000000D+00  E=-1.574520D-02  Symmetry=a1
              MO Center= -4.4D-14,  3.2D-14, -5.0D-01, r^2= 1.1D+01
   Bfn.  Coefficient  Atom+Function         Bfn.  Coefficient  Atom+Function  
  ----- ------------  ---------------      ----- ------------  ---------------
    22      3.605605  1 P  s                 57     -1.716705  2 H  s          
    76     -1.716705  3 H  s                 95     -1.716705  4 H  s          
    25     -1.105758  1 P  pz                 5      0.211978  1 P  s          
     6      0.151956  1 P  s                  4     -0.131624  1 P  s          
    21      0.114600  1 P  pz                56      0.103675  2 H  s          
 
 Vector   11  Occ=0.000000D+00  E=-5.036604D-03  Symmetry=e
              MO Center= -8.2D-02, -4.3D-02,  1.5D-01, r^2= 4.8D+00
   Bfn.  Coefficient  Atom+Function         Bfn.  Coefficient  Atom+Function  
  ----- ------------  ---------------      ----- ------------  ---------------
    95      1.530407  4 H  s                 76     -1.285236  3 H  s          
    23     -0.854298  1 P  px                24      0.630382  1 P  py         
    16     -0.495271  1 P  px                17      0.365458  1 P  py         
    94      0.351885  4 H  s                 75     -0.295513  3 H  s          
    19     -0.255940  1 P  px                57     -0.245171  2 H  s          
 
 Vector   12  Occ=0.000000D+00  E=-5.036604D-03  Symmetry=e
              MO Center=  8.2D-02,  4.3D-02,  1.5D-01, r^2= 4.8D+00
   Bfn.  Coefficient  Atom+Function         Bfn.  Coefficient  Atom+Function  
  ----- ------------  ---------------      ----- ------------  ---------------
    57      1.625613  2 H  s                 76     -1.025130  3 H  s          
    24      0.854298  1 P  py                23      0.630382  1 P  px         
    95     -0.600482  4 H  s                 17      0.495271  1 P  py         
    56      0.373776  2 H  s                 16      0.365458  1 P  px         
    20      0.255940  1 P  py                39      0.241657  1 P  dxy        
 
 Vector   13  Occ=0.000000D+00  E= 3.401959D-02  Symmetry=e
              MO Center= -3.0D-01, -2.8D-01, -4.0D-01, r^2= 1.4D+01
   Bfn.  Coefficient  Atom+Function         Bfn.  Coefficient  Atom+Function  
  ----- ------------  ---------------      ----- ------------  ---------------
    57      1.099805  2 H  s                 24     -0.641326  1 P  py         
    23     -0.618757  1 P  px                76     -0.566962  3 H  s          
    20      0.540940  1 P  py                95     -0.532843  4 H  s          
    19      0.521904  1 P  px                14      0.094731  1 P  py         
    13      0.091397  1 P  px                42     -0.071919  1 P  dyz        
 
 Vector   14  Occ=0.000000D+00  E= 3.401959D-02  Symmetry=e
              MO Center=  3.0D-01,  2.8D-01, -4.0D-01, r^2= 1.4D+01
   Bfn.  Coefficient  Atom+Function         Bfn.  Coefficient  Atom+Function  
  ----- ------------  ---------------      ----- ------------  ---------------
    95     -0.962308  4 H  s                 76      0.942610  3 H  s          
    23     -0.641326  1 P  px                24      0.618757  1 P  py         
    19      0.540940  1 P  px                20     -0.521904  1 P  py         
    13      0.094731  1 P  px                14     -0.091397  1 P  py         
    40     -0.071919  1 P  dxz               49      0.071009  1 P  fxzz       
 
 Vector   15  Occ=0.000000D+00  E= 4.120562D-02  Symmetry=a1
              MO Center= -6.7D-15,  1.7D-14,  8.2D-01, r^2= 1.4D+01
   Bfn.  Coefficient  Atom+Function         Bfn.  Coefficient  Atom+Function  
  ----- ------------  ---------------      ----- ------------  ---------------
    25      1.784033  1 P  pz                21     -1.317262  1 P  pz         
     6      0.391961  1 P  s                 56     -0.357148  2 H  s          
    75     -0.357148  3 H  s                 94     -0.357148  4 H  s          
    22      0.177040  1 P  s                 18     -0.150798  1 P  pz         
    43      0.118132  1 P  dzz               57      0.110017  2 H  s          
 
 Vector   16  Occ=0.000000D+00  E= 9.593947D-02  Symmetry=e
              MO Center=  5.1D-03,  2.0D-02,  1.2D-01, r^2= 1.7D+01
   Bfn.  Coefficient  Atom+Function         Bfn.  Coefficient  Atom+Function  
  ----- ------------  ---------------      ----- ------------  ---------------
    57      6.433493  2 H  s                 95     -4.744005  4 H  s          
    23      4.092853  1 P  px                56     -2.593848  2 H  s          
    24      2.331761  1 P  py                19     -2.308787  1 P  px         
    94      1.912682  4 H  s                 76     -1.689488  3 H  s          
    20     -1.315351  1 P  py                16     -1.094247  1 P  px         
 
 Vector   17  Occ=0.000000D+00  E= 9.593947D-02  Symmetry=e
              MO Center= -5.1D-03, -2.0D-02,  1.2D-01, r^2= 1.7D+01
   Bfn.  Coefficient  Atom+Function         Bfn.  Coefficient  Atom+Function  
  ----- ------------  ---------------      ----- ------------  ---------------
    76      6.453331  3 H  s                 95     -4.689805  4 H  s          
    24     -4.092853  1 P  py                75     -2.601847  3 H  s          
    23      2.331761  1 P  px                20      2.308787  1 P  py         
    94      1.890830  4 H  s                 57     -1.763526  2 H  s          
    19     -1.315351  1 P  px                17      1.094247  1 P  py         
 
 Vector   18  Occ=0.000000D+00  E= 1.040680D-01  Symmetry=a1
              MO Center=  1.8D-12, -1.1D-13, -7.8D-01, r^2= 1.6D+01
   Bfn.  Coefficient  Atom+Function         Bfn.  Coefficient  Atom+Function  
  ----- ------------  ---------------      ----- ------------  ---------------
    22     20.180527  1 P  s                 57     -6.881324  2 H  s          
    76     -6.881324  3 H  s                 95     -6.881324  4 H  s          
    25     -5.146804  1 P  pz                 6     -0.792092  1 P  s          
    38     -0.585506  1 P  dxx               41     -0.585506  1 P  dyy        
     5     -0.456561  1 P  s                 43     -0.425926  1 P  dzz        
 
 Vector   19  Occ=0.000000D+00  E= 1.163183D-01  Symmetry=a1
              MO Center= -1.4D-13, -7.8D-14, -5.4D-01, r^2= 5.3D+00
   Bfn.  Coefficient  Atom+Function         Bfn.  Coefficient  Atom+Function  
  ----- ------------  ---------------      ----- ------------  ---------------
    22      4.944505  1 P  s                  6      2.729847  1 P  s          
    56     -2.262549  2 H  s                 75     -2.262549  3 H  s          
    94     -2.262549  4 H  s                 21     -1.988966  1 P  pz         
    18     -1.116102  1 P  pz                57     -0.977619  2 H  s          
    76     -0.977619  3 H  s                 95     -0.977619  4 H  s          
 
 Vector   20  Occ=0.000000D+00  E= 1.383650D-01  Symmetry=e
              MO Center=  5.2D-03,  3.8D-03, -4.1D-02, r^2= 3.2D+00
   Bfn.  Coefficient  Atom+Function         Bfn.  Coefficient  Atom+Function  
  ----- ------------  ---------------      ----- ------------  ---------------
    95      0.551135  4 H  s                 76     -0.505878  3 H  s          
    40      0.486627  1 P  dxz               38      0.425864  1 P  dxx        
    41     -0.425864  1 P  dyy               42     -0.419434  1 P  dyz        
    94     -0.346312  4 H  s                 75      0.317875  3 H  s          
    23     -0.312886  1 P  px                19      0.290540  1 P  px         
 
 Vector   21  Occ=0.000000D+00  E= 1.383650D-01  Symmetry=e
              MO Center= -5.2D-03, -3.8D-03, -4.1D-02, r^2= 3.2D+00
   Bfn.  Coefficient  Atom+Function         Bfn.  Coefficient  Atom+Function  
  ----- ------------  ---------------      ----- ------------  ---------------
    39      0.851728  1 P  dxy               57      0.610267  2 H  s          
    42     -0.486627  1 P  dyz               40     -0.419434  1 P  dxz        
    56     -0.383468  2 H  s                 76     -0.344327  3 H  s          
    24      0.312886  1 P  py                20     -0.290540  1 P  py         
    23      0.269683  1 P  px                95     -0.265940  4 H  s          
 
 Vector   22  Occ=0.000000D+00  E= 1.995338D-01  Symmetry=a1
              MO Center= -4.0D-14, -5.1D-14, -1.4D-01, r^2= 7.7D+00
   Bfn.  Coefficient  Atom+Function         Bfn.  Coefficient  Atom+Function  
  ----- ------------  ---------------      ----- ------------  ---------------
    22     14.490338  1 P  s                 57     -3.957834  2 H  s          
    76     -3.957834  3 H  s                 95     -3.957834  4 H  s          
     6      3.829003  1 P  s                 56     -3.410753  2 H  s          
    75     -3.410753  3 H  s                 94     -3.410753  4 H  s          
    21     -3.158366  1 P  pz                25     -2.638639  1 P  pz         
 
 Vector   23  Occ=0.000000D+00  E= 2.424070D-01  Symmetry=e
              MO Center=  4.0D-02,  5.0D-02,  6.6D-02, r^2= 1.0D+01
   Bfn.  Coefficient  Atom+Function         Bfn.  Coefficient  Atom+Function  
  ----- ------------  ---------------      ----- ------------  ---------------
    20      2.663941  1 P  py                19     -2.388776  1 P  px         
    24     -1.555061  1 P  py                23      1.394435  1 P  px         
    17     -1.255491  1 P  py                16      1.125808  1 P  px         
    75     -0.680449  3 H  s                 94      0.638964  4 H  s          
    42     -0.448364  1 P  dyz               74     -0.426350  3 H  s          
 
 Vector   24  Occ=0.000000D+00  E= 2.424070D-01  Symmetry=e
              MO Center= -4.0D-02, -5.0D-02,  6.6D-02, r^2= 1.0D+01
   Bfn.  Coefficient  Atom+Function         Bfn.  Coefficient  Atom+Function  
  ----- ------------  ---------------      ----- ------------  ---------------
    19      2.663941  1 P  px                20      2.388776  1 P  py         
    23     -1.555061  1 P  px                24     -1.394435  1 P  py         
    16     -1.255491  1 P  px                17     -1.125808  1 P  py         
    56      0.761763  2 H  s                 55      0.477299  2 H  s          
    40     -0.448364  1 P  dxz               49      0.416382  1 P  fxzz       
 
 Vector   25  Occ=0.000000D+00  E= 2.529391D-01  Symmetry=a1
              MO Center= -1.0D-13,  8.3D-14,  7.7D-01, r^2= 9.6D+00
   Bfn.  Coefficient  Atom+Function         Bfn.  Coefficient  Atom+Function  
  ----- ------------  ---------------      ----- ------------  ---------------
    21      4.311821  1 P  pz                 6     -3.126187  1 P  s          
    25     -2.816211  1 P  pz                22      2.793114  1 P  s          
    56      1.453192  2 H  s                 75      1.453192  3 H  s          
    94      1.453192  4 H  s                 18     -1.193338  1 P  pz         
    57     -1.131552  2 H  s                 76     -1.131552  3 H  s          
 
 Vector   26  Occ=0.000000D+00  E= 3.194436D-01  Symmetry=e
              MO Center= -1.1D-01, -3.1D-01, -2.9D-01, r^2= 9.6D+00
   Bfn.  Coefficient  Atom+Function         Bfn.  Coefficient  Atom+Function  
  ----- ------------  ---------------      ----- ------------  ---------------
    56      8.133752  2 H  s                 94     -5.624665  4 H  s          
    19      5.437516  1 P  px                57     -5.043023  2 H  s          
    95      3.487359  4 H  s                 20      3.468050  1 P  py         
    23     -3.286566  1 P  px                40     -2.788954  1 P  dxz        
    75     -2.509087  3 H  s                 16      2.416253  1 P  px         
 
 Vector   27  Occ=0.000000D+00  E= 3.194436D-01  Symmetry=e
              MO Center=  1.1D-01,  3.1D-01, -2.9D-01, r^2= 9.6D+00
   Bfn.  Coefficient  Atom+Function         Bfn.  Coefficient  Atom+Function  
  ----- ------------  ---------------      ----- ------------  ---------------
    75      7.943425  3 H  s                 94     -6.144646  4 H  s          
    20     -5.437516  1 P  py                76     -4.925019  3 H  s          
    95      3.809754  4 H  s                 19      3.468050  1 P  px         
    24      3.286566  1 P  py                42      2.788954  1 P  dyz        
    17     -2.416253  1 P  py                23     -2.096173  1 P  px         
 
 Vector   28  Occ=0.000000D+00  E= 4.088971D-01  Symmetry=a1
              MO Center=  9.3D-15, -5.2D-14, -6.6D-01, r^2= 7.1D+00
   Bfn.  Coefficient  Atom+Function         Bfn.  Coefficient  Atom+Function  
  ----- ------------  ---------------      ----- ------------  ---------------
     6      7.725741  1 P  s                 56     -5.774780  2 H  s          
    75     -5.774780  3 H  s                 94     -5.774780  4 H  s          
    22      4.341017  1 P  s                 18     -4.227623  1 P  pz         
    21     -3.830562  1 P  pz                43      1.552680  1 P  dzz        
    53      1.382529  1 P  fzzz              46      1.283964  1 P  fxxz       
 
 Vector   29  Occ=0.000000D+00  E= 4.200507D-01  Symmetry=e
              MO Center= -1.4D-02, -1.1D-02,  2.7D-02, r^2= 5.4D+00
   Bfn.  Coefficient  Atom+Function         Bfn.  Coefficient  Atom+Function  
  ----- ------------  ---------------      ----- ------------  ---------------
    56      3.284955  2 H  s                 57     -2.494592  2 H  s          
    75     -1.809884  3 H  s                 20      1.799974  1 P  py         
    19      1.599907  1 P  px                94     -1.475071  4 H  s          
    76      1.374424  3 H  s                 17      1.318215  1 P  py         
    24     -1.286069  1 P  py                16      1.171695  1 P  px         
 
 Vector   30  Occ=0.000000D+00  E= 4.200507D-01  Symmetry=e
              MO Center=  1.4D-02,  1.1D-02,  2.7D-02, r^2= 5.4D+00
   Bfn.  Coefficient  Atom+Function         Bfn.  Coefficient  Atom+Function  
  ----- ------------  ---------------      ----- ------------  ---------------
    94     -2.941507  4 H  s                 75      2.748202  3 H  s          
    95      2.233778  4 H  s                 76     -2.086983  3 H  s          
    19      1.799974  1 P  px                20     -1.599907  1 P  py         
    16      1.318215  1 P  px                23     -1.286069  1 P  px         
    17     -1.171695  1 P  py                24      1.143123  1 P  py         
 
 Vector   31  Occ=0.000000D+00  E= 4.215006D-01  Symmetry=a2
              MO Center= -1.2D-16,  3.2D-14, -6.1D-01, r^2= 4.3D+00
   Bfn.  Coefficient  Atom+Function         Bfn.  Coefficient  Atom+Function  
  ----- ------------  ---------------      ----- ------------  ---------------
    83      0.876426  3 H  px               103     -0.876426  4 H  py         
    64     -0.641588  2 H  px                65      0.641588  2 H  py         
    84      0.234838  3 H  py               102     -0.234838  4 H  px         
    45     -0.035254  1 P  fxxy              47      0.035254  1 P  fxyy       
    80     -0.034315  3 H  px               100      0.034315  4 H  py         
 
 Vector   32  Occ=0.000000D+00  E= 4.287489D-01  Symmetry=a1
              MO Center=  2.9D-14,  6.3D-15, -2.9D-01, r^2= 7.7D+00
   Bfn.  Coefficient  Atom+Function         Bfn.  Coefficient  Atom+Function  
  ----- ------------  ---------------      ----- ------------  ---------------
    22     15.552311  1 P  s                 57     -4.841320  2 H  s          
    76     -4.841320  3 H  s                 95     -4.841320  4 H  s          
    25     -3.898696  1 P  pz                 6      3.124873  1 P  s          
    38     -2.940172  1 P  dxx               41     -2.940172  1 P  dyy        
    43     -2.105397  1 P  dzz               18     -1.131788  1 P  pz         
 
 Vector   33  Occ=0.000000D+00  E= 4.434998D-01  Symmetry=e
              MO Center= -7.5D-03, -2.7D-01, -3.1D-01, r^2= 4.4D+00
   Bfn.  Coefficient  Atom+Function         Bfn.  Coefficient  Atom+Function  
  ----- ------------  ---------------      ----- ------------  ---------------
    39      2.174328  1 P  dxy               40     -1.423380  1 P  dxz        
    83     -0.866198  3 H  px                66     -0.854578  2 H  pz         
    65      0.811156  2 H  py                56      0.758515  2 H  s          
   104      0.722143  4 H  pz               103     -0.701868  4 H  py         
    94     -0.640967  4 H  s                 42     -0.612340  1 P  dyz        
 
 Vector   34  Occ=0.000000D+00  E= 4.434998D-01  Symmetry=e
              MO Center=  7.5D-03,  2.7D-01, -3.1D-01, r^2= 4.4D+00
   Bfn.  Coefficient  Atom+Function         Bfn.  Coefficient  Atom+Function  
  ----- ------------  ---------------      ----- ------------  ---------------
    42      1.423380  1 P  dyz               38     -1.087164  1 P  dxx        
    41      1.087164  1 P  dyy               85     -0.910320  3 H  pz         
    84     -0.880891  3 H  py                39     -0.866263  1 P  dxy        
    64     -0.804835  2 H  px                75      0.807992  3 H  s          
   102      0.708189  4 H  px                40     -0.612340  1 P  dxz        
 
 Vector   35  Occ=0.000000D+00  E= 6.094330D-01  Symmetry=a1
              MO Center= -1.3D-14, -4.7D-14, -3.2D-01, r^2= 5.6D+00
   Bfn.  Coefficient  Atom+Function         Bfn.  Coefficient  Atom+Function  
  ----- ------------  ---------------      ----- ------------  ---------------
    21      3.492035  1 P  pz                43     -3.354875  1 P  dzz        
     6      2.207046  1 P  s                 66     -1.623159  2 H  pz         
    85     -1.623159  3 H  pz               104     -1.623159  4 H  pz         
    25     -0.913109  1 P  pz                18      0.716822  1 P  pz         
    56      0.679319  2 H  s                 75      0.679319  3 H  s          
 
 Vector   36  Occ=0.000000D+00  E= 6.176207D-01  Symmetry=e
              MO Center= -7.7D-02, -4.4D-02, -5.0D-01, r^2= 5.3D+00
   Bfn.  Coefficient  Atom+Function         Bfn.  Coefficient  Atom+Function  
  ----- ------------  ---------------      ----- ------------  ---------------
    56      1.868473  2 H  s                 42      1.738636  1 P  dyz        
    20     -1.415319  1 P  py                55     -1.389822  2 H  s          
    40      1.332430  1 P  dxz              103      1.248363  4 H  py         
    75     -1.148266  3 H  s                 19     -1.084651  1 P  px         
    84      1.061211  3 H  py                65      1.030576  2 H  py         
 
 Vector   37  Occ=0.000000D+00  E= 6.176207D-01  Symmetry=e
              MO Center=  7.7D-02,  4.4D-02, -5.0D-01, r^2= 5.3D+00
   Bfn.  Coefficient  Atom+Function         Bfn.  Coefficient  Atom+Function  
  ----- ------------  ---------------      ----- ------------  ---------------
    40      1.738636  1 P  dxz               94     -1.741715  4 H  s          
    75      1.494575  3 H  s                 19     -1.415319  1 P  px         
    42     -1.332430  1 P  dyz               93      1.295536  4 H  s          
    64      1.196191  2 H  px                83      1.165556  3 H  px         
    74     -1.111706  3 H  s                 20      1.084651  1 P  py         
 
 Vector   38  Occ=0.000000D+00  E= 7.395757D-01  Symmetry=a1
              MO Center=  7.1D-15, -5.2D-14, -3.1D-01, r^2= 5.8D+00
   Bfn.  Coefficient  Atom+Function         Bfn.  Coefficient  Atom+Function  
  ----- ------------  ---------------      ----- ------------  ---------------
     6     17.561391  1 P  s                 18     -7.123299  1 P  pz         
    56     -5.803901  2 H  s                 75     -5.803901  3 H  s          
    94     -5.803901  4 H  s                 21     -4.396182  1 P  pz         
    22      3.244309  1 P  s                 84      2.377610  3 H  py         
   102      2.377610  4 H  px                55     -1.823775  2 H  s          
 
 Vector   39  Occ=0.000000D+00  E= 7.405723D-01  Symmetry=e
              MO Center=  8.0D-02, -2.7D-02, -6.7D-03, r^2= 6.8D+00
   Bfn.  Coefficient  Atom+Function         Bfn.  Coefficient  Atom+Function  
  ----- ------------  ---------------      ----- ------------  ---------------
    94     11.509355  4 H  s                 16     -9.338947  1 P  px         
    19     -7.285170  1 P  px                56     -6.074328  2 H  s          
    40      5.700303  1 P  dxz               75     -5.435026  3 H  s          
    95     -3.506971  4 H  s                102     -3.066997  4 H  px         
    23      2.910865  1 P  px                44      2.378855  1 P  fxxx       
 
 Vector   40  Occ=0.000000D+00  E= 7.405723D-01  Symmetry=e
              MO Center= -8.0D-02,  2.7D-02, -6.7D-03, r^2= 6.8D+00
   Bfn.  Coefficient  Atom+Function         Bfn.  Coefficient  Atom+Function  
  ----- ------------  ---------------      ----- ------------  ---------------
    75    -10.151944  3 H  s                 56      9.782843  2 H  s          
    17      9.338947  1 P  py                20      7.285170  1 P  py         
    42     -5.700303  1 P  dyz               39     -3.359384  1 P  dxy        
    76      3.093360  3 H  s                 57     -2.980893  2 H  s          
    24     -2.910865  1 P  py                84      2.637042  3 H  py         
 
 Vector   41  Occ=0.000000D+00  E= 8.267013D-01  Symmetry=e
              MO Center=  6.8D-02,  2.9D-03,  2.0D-01, r^2= 2.1D+00
   Bfn.  Coefficient  Atom+Function         Bfn.  Coefficient  Atom+Function  
  ----- ------------  ---------------      ----- ------------  ---------------
    40      1.703482  1 P  dxz               94      1.616362  4 H  s          
    19     -1.488939  1 P  px                75     -1.023227  3 H  s          
    34     -0.863376  1 P  dxz               42     -0.748975  1 P  dyz        
    20      0.654646  1 P  py                23      0.614063  1 P  px         
    32     -0.599311  1 P  dxx               35      0.599311  1 P  dyy        
 
 Vector   42  Occ=0.000000D+00  E= 8.267013D-01  Symmetry=e
              MO Center= -6.8D-02, -2.9D-03,  2.0D-01, r^2= 2.1D+00
   Bfn.  Coefficient  Atom+Function         Bfn.  Coefficient  Atom+Function  
  ----- ------------  ---------------      ----- ------------  ---------------
    42      1.703482  1 P  dyz               56     -1.523968  2 H  s          
    20     -1.488939  1 P  py                75      1.275654  3 H  s          
    33      1.198621  1 P  dxy               36     -0.863376  1 P  dyz        
    40      0.748975  1 P  dxz               19     -0.654646  1 P  px         
    24      0.614063  1 P  py                39     -0.580633  1 P  dxy        
 
 Vector   43  Occ=0.000000D+00  E= 8.520047D-01  Symmetry=a1
              MO Center= -2.0D-15, -4.6D-15,  3.1D-01, r^2= 2.4D+00
   Bfn.  Coefficient  Atom+Function         Bfn.  Coefficient  Atom+Function  
  ----- ------------  ---------------      ----- ------------  ---------------
    22      2.642215  1 P  s                  6     -2.096607  1 P  s          
    21      1.502183  1 P  pz                43     -1.315594  1 P  dzz        
    25     -1.130193  1 P  pz                57     -0.887923  2 H  s          
    76     -0.887923  3 H  s                 95     -0.887923  4 H  s          
    37      0.817870  1 P  dzz               56      0.815951  2 H  s          
 
 Vector   44  Occ=0.000000D+00  E= 9.112106D-01  Symmetry=e
              MO Center= -6.5D-03,  1.7D-01, -2.5D-01, r^2= 3.6D+00
   Bfn.  Coefficient  Atom+Function         Bfn.  Coefficient  Atom+Function  
  ----- ------------  ---------------      ----- ------------  ---------------
    17      7.289132  1 P  py                45     -2.991451  1 P  fxxy       
    50     -2.991451  1 P  fyyy              52     -2.985673  1 P  fyzz       
    16     -2.855087  1 P  px                14     -2.419152  1 P  py         
    42     -2.356330  1 P  dyz               75     -1.295051  3 H  s          
    44      1.171725  1 P  fxxx              47      1.171725  1 P  fxyy       
 
 Vector   45  Occ=0.000000D+00  E= 9.112106D-01  Symmetry=e
              MO Center=  6.5D-03, -1.7D-01, -2.5D-01, r^2= 3.6D+00
   Bfn.  Coefficient  Atom+Function         Bfn.  Coefficient  Atom+Function  
  ----- ------------  ---------------      ----- ------------  ---------------
    16      7.289132  1 P  px                44     -2.991451  1 P  fxxx       
    47     -2.991451  1 P  fxyy              49     -2.985673  1 P  fxzz       
    17      2.855087  1 P  py                13     -2.419152  1 P  px         
    40     -2.356330  1 P  dxz               56      1.194062  2 H  s          
    45     -1.171725  1 P  fxxy              50     -1.171725  1 P  fyyy       
 
 Vector   46  Occ=0.000000D+00  E= 1.039205D+00  Symmetry=a1
              MO Center= -7.1D-15,  5.7D-14, -3.3D-01, r^2= 4.1D+00
   Bfn.  Coefficient  Atom+Function         Bfn.  Coefficient  Atom+Function  
  ----- ------------  ---------------      ----- ------------  ---------------
    18     15.000146  1 P  pz                 6     -9.930452  1 P  s          
    46     -5.759531  1 P  fxxz              51     -5.759531  1 P  fyyz       
    53     -5.260491  1 P  fzzz              15     -4.243784  1 P  pz         
    22     -4.166559  1 P  s                 56      3.746799  2 H  s          
    75      3.746799  3 H  s                 94      3.746799  4 H  s          
 
 Vector   47  Occ=0.000000D+00  E= 1.144793D+00  Symmetry=e
              MO Center= -5.6D-02, -2.0D-02, -4.0D-02, r^2= 3.4D+00
   Bfn.  Coefficient  Atom+Function         Bfn.  Coefficient  Atom+Function  
  ----- ------------  ---------------      ----- ------------  ---------------
    17     10.448004  1 P  py                16      6.651112  1 P  px         
    56      5.296980  2 H  s                 52     -3.998176  1 P  fyzz       
    75     -3.667113  3 H  s                 45     -3.599926  1 P  fxxy       
    50     -3.599926  1 P  fyyy              14     -2.759260  1 P  py         
    49     -2.545205  1 P  fxzz              44     -2.291683  1 P  fxxx       
 
 Vector   48  Occ=0.000000D+00  E= 1.144793D+00  Symmetry=e
              MO Center=  5.6D-02,  2.0D-02, -4.0D-02, r^2= 3.4D+00
   Bfn.  Coefficient  Atom+Function         Bfn.  Coefficient  Atom+Function  
  ----- ------------  ---------------      ----- ------------  ---------------
    16     10.448004  1 P  px                17     -6.651112  1 P  py         
    94     -5.175422  4 H  s                 49     -3.998176  1 P  fxzz       
    75      3.999217  3 H  s                 44     -3.599926  1 P  fxxx       
    47     -3.599926  1 P  fxyy              13     -2.759260  1 P  px         
    52      2.545205  1 P  fyzz              45      2.291683  1 P  fxxy       
 
 Vector   49  Occ=0.000000D+00  E= 1.206881D+00  Symmetry=a1
              MO Center= -4.4D-14, -1.2D-13,  4.2D-02, r^2= 4.3D+00
   Bfn.  Coefficient  Atom+Function         Bfn.  Coefficient  Atom+Function  
  ----- ------------  ---------------      ----- ------------  ---------------
     6     12.411746  1 P  s                 22      8.700638  1 P  s          
     5     -5.275577  1 P  s                 38     -5.057000  1 P  dxx        
    41     -5.057000  1 P  dyy               43     -5.003978  1 P  dzz        
    57     -2.781188  2 H  s                 76     -2.781188  3 H  s          
    95     -2.781188  4 H  s                 25     -2.293564  1 P  pz         
 
 Vector   50  Occ=0.000000D+00  E= 1.303749D+00  Symmetry=a1
              MO Center=  2.6D-16,  3.2D-16,  1.1D-01, r^2= 1.6D+00
   Bfn.  Coefficient  Atom+Function         Bfn.  Coefficient  Atom+Function  
  ----- ------------  ---------------      ----- ------------  ---------------
    18      2.082010  1 P  pz                53     -1.427249  1 P  fzzz       
    45     -1.097755  1 P  fxxy              47     -1.097755  1 P  fxyy       
    56      0.962346  2 H  s                 75      0.962346  3 H  s          
    94      0.962346  4 H  s                 21      0.927490  1 P  pz         
    43     -0.899949  1 P  dzz               22     -0.846508  1 P  s          
 
 Vector   51  Occ=0.000000D+00  E= 1.366879D+00  Symmetry=a2
              MO Center=  3.8D-15,  3.3D-15, -1.4D-01, r^2= 2.2D+00
   Bfn.  Coefficient  Atom+Function         Bfn.  Coefficient  Atom+Function  
  ----- ------------  ---------------      ----- ------------  ---------------
    45      1.522796  1 P  fxxy              47     -1.522796  1 P  fxyy       
    83      0.547516  3 H  px               103     -0.547516  4 H  py         
    44      0.507599  1 P  fxxx              50     -0.507599  1 P  fyyy       
    64     -0.400809  2 H  px                65      0.400809  2 H  py         
    80     -0.260573  3 H  px               100      0.260573  4 H  py         
 
 Vector   52  Occ=0.000000D+00  E= 1.415476D+00  Symmetry=e
              MO Center= -5.0D-02,  1.4D-01, -8.1D-02, r^2= 2.1D+00
   Bfn.  Coefficient  Atom+Function         Bfn.  Coefficient  Atom+Function  
  ----- ------------  ---------------      ----- ------------  ---------------
    52      1.750797  1 P  fyzz              17      1.282314  1 P  py         
    42     -1.225498  1 P  dyz               45     -0.969314  1 P  fxxy       
    50     -0.969314  1 P  fyyy              75     -0.719065  3 H  s          
    84      0.618290  3 H  py                85      0.552695  3 H  pz         
    64      0.514189  2 H  px                39      0.473960  1 P  dxy        
 
 Vector   53  Occ=0.000000D+00  E= 1.415476D+00  Symmetry=e
              MO Center=  5.0D-02, -1.4D-01, -8.1D-02, r^2= 2.1D+00
   Bfn.  Coefficient  Atom+Function         Bfn.  Coefficient  Atom+Function  
  ----- ------------  ---------------      ----- ------------  ---------------
    49      1.750797  1 P  fxzz              16      1.282314  1 P  px         
    40     -1.225498  1 P  dxz               44     -0.969314  1 P  fxxx       
    47     -0.969314  1 P  fxyy              39      0.741808  1 P  dxy        
    48     -0.721445  1 P  fxyz              94     -0.638901  4 H  s          
    56      0.606556  2 H  s                 65      0.556381  2 H  py         
 
 Vector   54  Occ=0.000000D+00  E= 1.609341D+00  Symmetry=e
              MO Center= -2.6D-02, -5.9D-02, -4.0D-02, r^2= 2.8D+00
   Bfn.  Coefficient  Atom+Function         Bfn.  Coefficient  Atom+Function  
  ----- ------------  ---------------      ----- ------------  ---------------
    17      8.374392  1 P  py                16     -5.689964  1 P  px         
    75     -5.068118  3 H  s                 94      4.062002  4 H  s          
    45     -2.593339  1 P  fxxy              50     -2.593339  1 P  fyyy       
    42     -2.537283  1 P  dyz               74     -2.486142  3 H  s          
    52     -2.274979  1 P  fyzz              14     -2.117826  1 P  py         
 
 Vector   55  Occ=0.000000D+00  E= 1.609341D+00  Symmetry=e
              MO Center=  2.6D-02,  5.9D-02, -4.0D-02, r^2= 2.8D+00
   Bfn.  Coefficient  Atom+Function         Bfn.  Coefficient  Atom+Function  
  ----- ------------  ---------------      ----- ------------  ---------------
    16      8.374392  1 P  px                17      5.689964  1 P  py         
    56      5.271277  2 H  s                 48      3.667489  1 P  fxyz       
    94     -3.506960  4 H  s                 39     -2.801542  1 P  dxy        
    44     -2.593339  1 P  fxxx              47     -2.593339  1 P  fxyy       
    55      2.585801  2 H  s                 40     -2.537283  1 P  dxz        
 
 Vector   56  Occ=0.000000D+00  E= 1.719813D+00  Symmetry=a1
              MO Center= -1.2D-14,  5.4D-15, -1.8D-01, r^2= 2.7D+00
   Bfn.  Coefficient  Atom+Function         Bfn.  Coefficient  Atom+Function  
  ----- ------------  ---------------      ----- ------------  ---------------
     6     13.790562  1 P  s                 18     -8.112694  1 P  pz         
    53      3.144221  1 P  fzzz              56     -2.605571  2 H  s          
    75     -2.605571  3 H  s                 94     -2.605571  4 H  s          
     5     -2.527322  1 P  s                 15      2.073764  1 P  pz         
    55     -1.791597  2 H  s                 74     -1.791597  3 H  s          
 
 Vector   57  Occ=0.000000D+00  E= 1.894906D+00  Symmetry=a2
              MO Center=  2.2D-14,  1.5D-14, -4.0D-01, r^2= 2.2D+00
   Bfn.  Coefficient  Atom+Function         Bfn.  Coefficient  Atom+Function  
  ----- ------------  ---------------      ----- ------------  ---------------
    45      1.164474  1 P  fxxy              47     -1.164474  1 P  fxyy       
    80      0.723467  3 H  px               100     -0.723467  4 H  py         
    61     -0.529615  2 H  px                62      0.529615  2 H  py         
    44      0.388158  1 P  fxxx              50     -0.388158  1 P  fyyy       
    83     -0.362644  3 H  px               103      0.362644  4 H  py         
 
 Vector   58  Occ=0.000000D+00  E= 1.914055D+00  Symmetry=a1
              MO Center=  1.9D-14,  7.7D-15, -4.1D-01, r^2= 3.4D+00
   Bfn.  Coefficient  Atom+Function         Bfn.  Coefficient  Atom+Function  
  ----- ------------  ---------------      ----- ------------  ---------------
     6      9.276621  1 P  s                 18     -6.047289  1 P  pz         
    21     -3.086044  1 P  pz                55     -3.083565  2 H  s          
    74     -3.083565  3 H  s                 93     -3.083565  4 H  s          
    56     -2.539662  2 H  s                 75     -2.539662  3 H  s          
    94     -2.539662  4 H  s                 15      1.813993  1 P  pz         
 
 Vector   59  Occ=0.000000D+00  E= 1.926714D+00  Symmetry=e
              MO Center= -1.4D-04, -2.3D-04, -3.2D-01, r^2= 3.3D+00
   Bfn.  Coefficient  Atom+Function         Bfn.  Coefficient  Atom+Function  
  ----- ------------  ---------------      ----- ------------  ---------------
    17      4.514310  1 P  py                75     -3.664230  3 H  s          
    16     -3.580393  1 P  px                74     -3.450862  3 H  s          
    94      3.206559  4 H  s                 93      3.019841  4 H  s          
    20      2.903182  1 P  py                42     -2.803289  1 P  dyz        
    19     -2.302574  1 P  px                40      2.223347  1 P  dxz        
 
 Vector   60  Occ=0.000000D+00  E= 1.926714D+00  Symmetry=e
              MO Center=  1.4D-04,  2.3D-04, -3.2D-01, r^2= 3.3D+00
   Bfn.  Coefficient  Atom+Function         Bfn.  Coefficient  Atom+Function  
  ----- ------------  ---------------      ----- ------------  ---------------
    16      4.514310  1 P  px                56      3.966852  2 H  s          
    55      3.735863  2 H  s                 17      3.580393  1 P  py         
    19      2.903182  1 P  px                40     -2.803289  1 P  dxz        
    94     -2.379781  4 H  s                 20      2.302574  1 P  py         
    93     -2.241206  4 H  s                 42     -2.223347  1 P  dyz        
 
 Vector   61  Occ=0.000000D+00  E= 1.975475D+00  Symmetry=e
              MO Center= -1.5D-01,  1.5D-01, -4.6D-01, r^2= 2.3D+00
   Bfn.  Coefficient  Atom+Function         Bfn.  Coefficient  Atom+Function  
  ----- ------------  ---------------      ----- ------------  ---------------
    52      1.482892  1 P  fyzz              74      1.260553  3 H  s          
    55     -0.930404  2 H  s                 82      0.702407  3 H  pz         
    17     -0.646557  1 P  py                63     -0.518441  2 H  pz         
    61      0.487863  2 H  px                81      0.473223  3 H  py         
    42      0.445667  1 P  dyz               84     -0.447315  3 H  py         
 
 Vector   62  Occ=0.000000D+00  E= 1.975475D+00  Symmetry=e
              MO Center=  1.5D-01, -1.5D-01, -4.6D-01, r^2= 2.3D+00
   Bfn.  Coefficient  Atom+Function         Bfn.  Coefficient  Atom+Function  
  ----- ------------  ---------------      ----- ------------  ---------------
    49      1.482892  1 P  fxzz              93      1.264950  4 H  s          
    55     -0.918392  2 H  s                101      0.704857  4 H  pz         
    16     -0.646557  1 P  px                63     -0.511748  2 H  pz         
    62      0.487179  2 H  py                99      0.476391  4 H  px         
   102     -0.449670  4 H  px                40      0.445667  1 P  dxz        
 
 Vector   63  Occ=0.000000D+00  E= 2.135505D+00  Symmetry=a1
              MO Center= -3.4D-14, -7.1D-14, -3.6D-01, r^2= 2.7D+00
   Bfn.  Coefficient  Atom+Function         Bfn.  Coefficient  Atom+Function  
  ----- ------------  ---------------      ----- ------------  ---------------
    22      3.546364  1 P  s                  6     -2.696790  1 P  s          
    18      2.449670  1 P  pz                55      2.115913  2 H  s          
    74      2.115913  3 H  s                 93      2.115913  4 H  s          
    46     -1.179302  1 P  fxxz              51     -1.179302  1 P  fyyz       
    45     -1.049821  1 P  fxxy              47     -1.049821  1 P  fxyy       
 
 Vector   64  Occ=0.000000D+00  E= 2.172716D+00  Symmetry=e
              MO Center=  6.8D-02,  4.1D-02, -3.6D-01, r^2= 2.7D+00
   Bfn.  Coefficient  Atom+Function         Bfn.  Coefficient  Atom+Function  
  ----- ------------  ---------------      ----- ------------  ---------------
    93      2.869039  4 H  s                 74     -2.483019  3 H  s          
    46     -1.401488  1 P  fxxz              51      1.401488  1 P  fyyz       
    92     -1.072600  4 H  s                 73      0.928285  3 H  s          
    16     -0.782974  1 P  px               102     -0.708503  4 H  px         
    17      0.609072  1 P  py                84      0.595386  3 H  py         
 
 Vector   65  Occ=0.000000D+00  E= 2.172716D+00  Symmetry=e
              MO Center= -6.8D-02, -4.1D-02, -3.6D-01, r^2= 2.7D+00
   Bfn.  Coefficient  Atom+Function         Bfn.  Coefficient  Atom+Function  
  ----- ------------  ---------------      ----- ------------  ---------------
    55      3.090012  2 H  s                 48     -2.802976  1 P  fxyz       
    74     -1.879309  3 H  s                 93     -1.210703  4 H  s          
    54     -1.155211  2 H  s                 17      0.782974  1 P  py         
    73      0.702586  3 H  s                100     -0.643006  4 H  py         
    16      0.609072  1 P  px                65      0.601595  2 H  py         
 
 Vector   66  Occ=0.000000D+00  E= 2.420765D+00  Symmetry=e
              MO Center= -1.9D-01, -4.4D-01, -4.8D-01, r^2= 2.3D+00
   Bfn.  Coefficient  Atom+Function         Bfn.  Coefficient  Atom+Function  
  ----- ------------  ---------------      ----- ------------  ---------------
    16      3.264030  1 P  px                55      2.804044  2 H  s          
    17      2.198502  1 P  py                48      1.997288  1 P  fxyz       
    93     -1.875703  4 H  s                 40     -1.181429  1 P  dxz        
    44     -1.150706  1 P  fxxx              47     -1.150706  1 P  fxyy       
    74     -0.928341  3 H  s                 33     -0.808889  1 P  dxy        
 
 Vector   67  Occ=0.000000D+00  E= 2.420765D+00  Symmetry=e
              MO Center=  1.9D-01,  4.4D-01, -4.8D-01, r^2= 2.3D+00
   Bfn.  Coefficient  Atom+Function         Bfn.  Coefficient  Atom+Function  
  ----- ------------  ---------------      ----- ------------  ---------------
    17      3.264030  1 P  py                74     -2.701854  3 H  s          
    16     -2.198502  1 P  px                93      2.154894  4 H  s          
    42     -1.181429  1 P  dyz               45     -1.150706  1 P  fxxy       
    50     -1.150706  1 P  fyyy              46      0.998644  1 P  fxxz       
    51     -0.998644  1 P  fyyz              81      0.943093  3 H  py         
 
 Vector   68  Occ=0.000000D+00  E= 2.686115D+00  Symmetry=a1
              MO Center= -1.4D-14,  2.0D-14,  6.5D-02, r^2= 2.1D+00
   Bfn.  Coefficient  Atom+Function         Bfn.  Coefficient  Atom+Function  
  ----- ------------  ---------------      ----- ------------  ---------------
    18     14.785993  1 P  pz                46     -7.459539  1 P  fxxz       
    51     -7.459539  1 P  fyyz              53     -7.029916  1 P  fzzz       
     6     -5.661159  1 P  s                 15     -2.621665  1 P  pz         
    56      2.175342  2 H  s                 75      2.175342  3 H  s          
    94      2.175342  4 H  s                 55      1.432376  2 H  s          
 
 Vector   69  Occ=0.000000D+00  E= 2.773551D+00  Symmetry=e
              MO Center=  1.0D-02, -1.1D-02,  5.7D-02, r^2= 2.2D+00
   Bfn.  Coefficient  Atom+Function         Bfn.  Coefficient  Atom+Function  
  ----- ------------  ---------------      ----- ------------  ---------------
    16     16.432478  1 P  px                49     -7.778320  1 P  fxzz       
    44     -7.661805  1 P  fxxx              47     -7.661805  1 P  fxyy       
    94     -3.827259  4 H  s                 13     -3.129605  1 P  px         
    40     -2.857747  1 P  dxz               56      2.853102  2 H  s          
    93     -2.717340  4 H  s                 55      2.025692  2 H  s          
 
 Vector   70  Occ=0.000000D+00  E= 2.773551D+00  Symmetry=e
              MO Center= -1.0D-02,  1.1D-02,  5.7D-02, r^2= 2.2D+00
   Bfn.  Coefficient  Atom+Function         Bfn.  Coefficient  Atom+Function  
  ----- ------------  ---------------      ----- ------------  ---------------
    17     16.432478  1 P  py                52     -7.778320  1 P  fyzz       
    45     -7.661805  1 P  fxxy              50     -7.661805  1 P  fyyy       
    75     -3.856908  3 H  s                 14     -3.129605  1 P  py         
    42     -2.857747  1 P  dyz               56      2.772099  2 H  s          
    74     -2.738391  3 H  s                 55      1.968180  2 H  s          
 
 Vector   71  Occ=0.000000D+00  E= 2.808614D+00  Symmetry=a1
              MO Center= -8.0D-14,  3.8D-15, -5.5D-01, r^2= 2.8D+00
   Bfn.  Coefficient  Atom+Function         Bfn.  Coefficient  Atom+Function  
  ----- ------------  ---------------      ----- ------------  ---------------
     6     15.616551  1 P  s                 18     -8.471995  1 P  pz         
    55     -4.192811  2 H  s                 74     -4.192811  3 H  s          
    93     -4.192811  4 H  s                 53      2.987572  1 P  fzzz       
    38     -2.777555  1 P  dxx               41     -2.777555  1 P  dyy        
    43     -2.641892  1 P  dzz                5     -2.413368  1 P  s          
 
 Vector   72  Occ=0.000000D+00  E= 3.033688D+00  Symmetry=e
              MO Center=  5.4D-01, -1.2D-01, -6.1D-01, r^2= 1.7D+00
   Bfn.  Coefficient  Atom+Function         Bfn.  Coefficient  Atom+Function  
  ----- ------------  ---------------      ----- ------------  ---------------
    16      2.064131  1 P  px                49     -0.883203  1 P  fxzz       
    44     -0.876299  1 P  fxxx              47     -0.876299  1 P  fxyy       
    40     -0.700057  1 P  dxz               94     -0.690327  4 H  s          
   107      0.617308  4 H  dxz               17     -0.603586  1 P  py         
   108     -0.597072  4 H  dyy              110      0.489336  4 H  dzz        
 
 Vector   73  Occ=0.000000D+00  E= 3.033688D+00  Symmetry=e
              MO Center= -5.4D-01,  1.2D-01, -6.1D-01, r^2= 1.7D+00
   Bfn.  Coefficient  Atom+Function         Bfn.  Coefficient  Atom+Function  
  ----- ------------  ---------------      ----- ------------  ---------------
    17      2.064131  1 P  py                52     -0.883203  1 P  fyzz       
    45     -0.876299  1 P  fxxy              50     -0.876299  1 P  fyyy       
    68     -0.853803  2 H  dxy               42     -0.700057  1 P  dyz        
    16      0.603586  1 P  px                56      0.605672  2 H  s          
    75     -0.590009  3 H  s                 90      0.563184  3 H  dyz        
 
 Vector   74  Occ=0.000000D+00  E= 3.185276D+00  Symmetry=a2
              MO Center= -9.0D-13, -9.8D-13, -6.1D-01, r^2= 2.0D+00
   Bfn.  Coefficient  Atom+Function         Bfn.  Coefficient  Atom+Function  
  ----- ------------  ---------------      ----- ------------  ---------------
    87      0.700738  3 H  dxy              106     -0.700738  4 H  dxy        
    88      0.593177  3 H  dxz              109     -0.593177  4 H  dyz        
    69     -0.434236  2 H  dxz               71      0.434236  2 H  dyz        
    67      0.404571  2 H  dxx               70     -0.404571  2 H  dyy        
    45      0.231942  1 P  fxxy              47     -0.231942  1 P  fxyy       
 
 Vector   75  Occ=0.000000D+00  E= 3.188101D+00  Symmetry=e
              MO Center= -1.5D-01, -3.4D-01, -5.8D-01, r^2= 1.9D+00
   Bfn.  Coefficient  Atom+Function         Bfn.  Coefficient  Atom+Function  
  ----- ------------  ---------------      ----- ------------  ---------------
    17      1.480680  1 P  py                52     -1.074161  1 P  fyzz       
    16     -1.025445  1 P  px                71     -0.855298  2 H  dyz        
    69      0.829628  2 H  dxz              109     -0.776501  4 H  dyz        
    49      0.743910  1 P  fxzz              75     -0.661338  3 H  s          
    45     -0.591991  1 P  fxxy              50     -0.591991  1 P  fyyy       
 
 Vector   76  Occ=0.000000D+00  E= 3.188101D+00  Symmetry=e
              MO Center=  1.5D-01,  3.4D-01, -5.8D-01, r^2= 1.9D+00
   Bfn.  Coefficient  Atom+Function         Bfn.  Coefficient  Atom+Function  
  ----- ------------  ---------------      ----- ------------  ---------------
    16      1.480680  1 P  px                88     -1.092305  3 H  dxz        
    49     -1.074161  1 P  fxzz              17      1.025445  1 P  py         
   109     -0.875122  4 H  dyz               52     -0.743910  1 P  fyzz       
    56      0.691162  2 H  s                 44     -0.591991  1 P  fxxx       
    47     -0.591991  1 P  fxyy              94     -0.454310  4 H  s          
 
 Vector   77  Occ=0.000000D+00  E= 3.372919D+00  Symmetry=a1
              MO Center=  2.2D-15,  8.7D-15, -5.2D-01, r^2= 2.1D+00
   Bfn.  Coefficient  Atom+Function         Bfn.  Coefficient  Atom+Function  
  ----- ------------  ---------------      ----- ------------  ---------------
    18      2.044422  1 P  pz                 5      1.411625  1 P  s          
    46     -1.222391  1 P  fxxz              51     -1.222391  1 P  fyyz       
    32     -0.789881  1 P  dxx               35     -0.789881  1 P  dyy        
    37     -0.686560  1 P  dzz               45      0.678328  1 P  fxxy       
    47      0.678328  1 P  fxyy              43     -0.626264  1 P  dzz        
 
 Vector   78  Occ=0.000000D+00  E= 3.419195D+00  Symmetry=a1
              MO Center=  9.1D-14, -3.1D-14,  2.0D-02, r^2= 1.7D+00
   Bfn.  Coefficient  Atom+Function         Bfn.  Coefficient  Atom+Function  
  ----- ------------  ---------------      ----- ------------  ---------------
     5      9.004203  1 P  s                  6      6.771004  1 P  s          
    32     -5.093125  1 P  dxx               35     -5.093125  1 P  dyy        
    37     -5.042860  1 P  dzz               22      4.160767  1 P  s          
    38     -2.364442  1 P  dxx               41     -2.364442  1 P  dyy        
     4     -2.337201  1 P  s                 43     -2.114177  1 P  dzz        
 
 Vector   79  Occ=0.000000D+00  E= 3.534519D+00  Symmetry=e
              MO Center= -2.6D-01, -1.8D-01, -3.3D-01, r^2= 1.7D+00
   Bfn.  Coefficient  Atom+Function         Bfn.  Coefficient  Atom+Function  
  ----- ------------  ---------------      ----- ------------  ---------------
    46      0.804280  1 P  fxxz              51     -0.804280  1 P  fyyz       
    87      0.712697  3 H  dxy               40     -0.687038  1 P  dxz        
    93     -0.675364  4 H  s                 67     -0.630427  2 H  dxx        
    74      0.613268  3 H  s                 70      0.593482  2 H  dyy        
    42      0.581187  1 P  dyz              106     -0.570213  4 H  dxy        
 
 Vector   80  Occ=0.000000D+00  E= 3.534519D+00  Symmetry=e
              MO Center=  2.6D-01,  1.8D-01, -3.3D-01, r^2= 1.7D+00
   Bfn.  Coefficient  Atom+Function         Bfn.  Coefficient  Atom+Function  
  ----- ------------  ---------------      ----- ------------  ---------------
    48      1.608560  1 P  fxyz             106     -0.907103  4 H  dxy        
    87     -0.800026  3 H  dxy               27     -0.744897  1 P  dxy        
    55     -0.743992  2 H  s                 42      0.687038  1 P  dyz        
    40      0.581187  1 P  dxz              109      0.526583  4 H  dyz        
    20     -0.501859  1 P  py                88      0.485739  3 H  dxz        
 
 Vector   81  Occ=0.000000D+00  E= 3.559528D+00  Symmetry=a1
              MO Center= -5.6D-16, -4.6D-15, -3.1D-01, r^2= 1.7D+00
   Bfn.  Coefficient  Atom+Function         Bfn.  Coefficient  Atom+Function  
  ----- ------------  ---------------      ----- ------------  ---------------
    18      2.298133  1 P  pz                 5      1.979114  1 P  s          
     6     -1.839341  1 P  s                 21      1.098618  1 P  pz         
    43     -1.055616  1 P  dzz               55      0.956593  2 H  s          
    74      0.956593  3 H  s                 93      0.956593  4 H  s          
    32     -0.916796  1 P  dxx               35     -0.916796  1 P  dyy        
 
 Vector   82  Occ=0.000000D+00  E= 3.559870D+00  Symmetry=e
              MO Center=  2.3D-01,  2.2D-01, -3.6D-01, r^2= 1.8D+00
   Bfn.  Coefficient  Atom+Function         Bfn.  Coefficient  Atom+Function  
  ----- ------------  ---------------      ----- ------------  ---------------
    16      0.810868  1 P  px                17     -0.795294  1 P  py         
    44     -0.714996  1 P  fxxx              47     -0.714996  1 P  fxyy       
    45      0.701264  1 P  fxxy              50      0.701264  1 P  fyyy       
    49      0.652201  1 P  fxzz              52     -0.639675  1 P  fyzz       
    40     -0.602616  1 P  dxz               42      0.591042  1 P  dyz        
 
 Vector   83  Occ=0.000000D+00  E= 3.559870D+00  Symmetry=e
              MO Center= -2.3D-01, -2.2D-01, -3.6D-01, r^2= 1.8D+00
   Bfn.  Coefficient  Atom+Function         Bfn.  Coefficient  Atom+Function  
  ----- ------------  ---------------      ----- ------------  ---------------
    17      0.810868  1 P  py                16      0.795294  1 P  px         
    45     -0.714996  1 P  fxxy              50     -0.714996  1 P  fyyy       
    44     -0.701264  1 P  fxxx              47     -0.701264  1 P  fxyy       
    52      0.652201  1 P  fyzz              68      0.643334  2 H  dxy        
    49      0.639675  1 P  fxzz              72     -0.633403  2 H  dzz        
 
 Vector   84  Occ=0.000000D+00  E= 3.577694D+00  Symmetry=a2
              MO Center= -2.5D-14, -1.6D-14, -5.0D-01, r^2= 2.1D+00
   Bfn.  Coefficient  Atom+Function         Bfn.  Coefficient  Atom+Function  
  ----- ------------  ---------------      ----- ------------  ---------------
    45      1.221093  1 P  fxxy              47     -1.221093  1 P  fxyy       
    88      0.900478  3 H  dxz              109     -0.900478  4 H  dyz        
    69     -0.659196  2 H  dxz               71      0.659196  2 H  dyz        
    87     -0.643608  3 H  dxy              106      0.643608  4 H  dxy        
    44      0.407031  1 P  fxxx              50     -0.407031  1 P  fyyy       
 
 Vector   85  Occ=0.000000D+00  E= 4.089878D+00  Symmetry=a1
              MO Center=  9.9D-15, -1.9D-15, -4.6D-01, r^2= 2.3D+00
   Bfn.  Coefficient  Atom+Function         Bfn.  Coefficient  Atom+Function  
  ----- ------------  ---------------      ----- ------------  ---------------
     6      6.029154  1 P  s                 18     -5.045823  1 P  pz         
    55     -2.832582  2 H  s                 74     -2.832582  3 H  s          
    93     -2.832582  4 H  s                  5     -2.720894  1 P  s          
    32      1.989700  1 P  dxx               35      1.989700  1 P  dyy        
    56     -1.949890  2 H  s                 75     -1.949890  3 H  s          
 
 Vector   86  Occ=0.000000D+00  E= 4.106304D+00  Symmetry=e
              MO Center= -4.3D-01,  2.1D-01, -4.8D-01, r^2= 1.7D+00
   Bfn.  Coefficient  Atom+Function         Bfn.  Coefficient  Atom+Function  
  ----- ------------  ---------------      ----- ------------  ---------------
    17      4.249058  1 P  py                75     -2.420595  3 H  s          
    74     -2.381174  3 H  s                 56      2.151897  2 H  s          
    55      2.116852  2 H  s                 20      1.599662  1 P  py         
    42     -1.448077  1 P  dyz               84      1.168417  3 H  py         
    90      1.149221  3 H  dyz               45     -1.134976  1 P  fxxy       
 
 Vector   87  Occ=0.000000D+00  E= 4.106304D+00  Symmetry=e
              MO Center=  4.3D-01, -2.1D-01, -4.8D-01, r^2= 1.7D+00
   Bfn.  Coefficient  Atom+Function         Bfn.  Coefficient  Atom+Function  
  ----- ------------  ---------------      ----- ------------  ---------------
    16      4.249058  1 P  px                94     -2.639929  4 H  s          
    93     -2.596937  4 H  s                 19      1.599662  1 P  px         
    56      1.552664  2 H  s                 55      1.527378  2 H  s          
    40     -1.448077  1 P  dxz              102      1.278663  4 H  px         
   107      1.263516  4 H  dxz               44     -1.134976  1 P  fxxx       
 
 Vector   88  Occ=0.000000D+00  E= 4.585692D+00  Symmetry=e
              MO Center=  5.1D-01, -6.2D-02, -4.8D-01, r^2= 2.1D+00
   Bfn.  Coefficient  Atom+Function         Bfn.  Coefficient  Atom+Function  
  ----- ------------  ---------------      ----- ------------  ---------------
    16      6.188691  1 P  px                93     -5.177383  4 H  s          
    74      2.904290  3 H  s                 55      2.273093  2 H  s          
    17     -2.134110  1 P  py                44     -2.108539  1 P  fxxx       
    47     -2.108539  1 P  fxyy              40     -1.827934  1 P  dxz        
    49     -1.735101  1 P  fxzz              94     -1.497859  4 H  s          
 
 Vector   89  Occ=0.000000D+00  E= 4.585692D+00  Symmetry=e
              MO Center= -5.1D-01,  6.2D-02, -4.8D-01, r^2= 2.1D+00
   Bfn.  Coefficient  Atom+Function         Bfn.  Coefficient  Atom+Function  
  ----- ------------  ---------------      ----- ------------  ---------------
    17      6.188691  1 P  py                55      4.665956  2 H  s          
    74     -4.301534  3 H  s                 16      2.134110  1 P  px         
    45     -2.108539  1 P  fxxy              50     -2.108539  1 P  fyyy       
    42     -1.827934  1 P  dyz               52     -1.735101  1 P  fyzz       
    56      1.349899  2 H  s                 72     -1.337927  2 H  dzz        
 
 Vector   90  Occ=0.000000D+00  E= 4.622041D+00  Symmetry=a1
              MO Center=  1.8D-15,  3.2D-16, -2.6D-01, r^2= 1.5D+00
   Bfn.  Coefficient  Atom+Function         Bfn.  Coefficient  Atom+Function  
  ----- ------------  ---------------      ----- ------------  ---------------
    18      2.130714  1 P  pz                 5     -1.810176  1 P  s          
    46     -1.561637  1 P  fxxz              51     -1.561637  1 P  fyyz       
    32      1.431244  1 P  dxx               35      1.431244  1 P  dyy        
    55      1.405437  2 H  s                 74      1.405437  3 H  s          
    93      1.405437  4 H  s                  6     -1.306799  1 P  s          
 
 Vector   91  Occ=0.000000D+00  E= 4.682146D+00  Symmetry=a1
              MO Center=  6.6D-14,  3.4D-15, -5.2D-01, r^2= 1.8D+00
   Bfn.  Coefficient  Atom+Function         Bfn.  Coefficient  Atom+Function  
  ----- ------------  ---------------      ----- ------------  ---------------
     6      5.115222  1 P  s                 18     -4.677453  1 P  pz         
    55     -2.772984  2 H  s                 74     -2.772984  3 H  s          
    93     -2.772984  4 H  s                 53      1.965785  1 P  fzzz       
    46      1.699839  1 P  fxxz              51      1.699839  1 P  fyyz       
    37     -1.081737  1 P  dzz               15      1.066825  1 P  pz         
 
 Vector   92  Occ=0.000000D+00  E= 4.768742D+00  Symmetry=e
              MO Center= -1.2D-01, -3.1D-02, -2.5D-01, r^2= 1.2D+00
   Bfn.  Coefficient  Atom+Function         Bfn.  Coefficient  Atom+Function  
  ----- ------------  ---------------      ----- ------------  ---------------
    49      1.309987  1 P  fxzz              34     -0.964310  1 P  dxz        
    16     -0.790461  1 P  px                28      0.789602  1 P  dxz        
    93      0.761302  4 H  s                 52     -0.751425  1 P  fyzz       
    32     -0.727600  1 P  dxx               35      0.727600  1 P  dyy        
    46      0.664326  1 P  fxxz              51     -0.664326  1 P  fyyz       
 
 Vector   93  Occ=0.000000D+00  E= 4.768742D+00  Symmetry=e
              MO Center=  1.2D-01,  3.1D-02, -2.5D-01, r^2= 1.2D+00
   Bfn.  Coefficient  Atom+Function         Bfn.  Coefficient  Atom+Function  
  ----- ------------  ---------------      ----- ------------  ---------------
    33      1.455199  1 P  dxy               48     -1.328652  1 P  fxyz       
    52      1.309987  1 P  fyzz              27     -1.212582  1 P  dxy        
    36     -0.964310  1 P  dyz              106      0.919215  4 H  dxy        
    17     -0.790461  1 P  py                30      0.789602  1 P  dyz        
    55     -0.760157  2 H  s                 49      0.751425  1 P  fxzz       
 
 Vector   94  Occ=0.000000D+00  E= 5.459065D+00  Symmetry=e
              MO Center=  8.0D-02,  5.6D-02, -2.3D-02, r^2= 1.1D+00
   Bfn.  Coefficient  Atom+Function         Bfn.  Coefficient  Atom+Function  
  ----- ------------  ---------------      ----- ------------  ---------------
    34      2.559675  1 P  dxz               36     -2.143189  1 P  dyz        
    46      2.117791  1 P  fxxz              51     -2.117791  1 P  fyyz       
    49     -2.058948  1 P  fxzz              52      1.723936  1 P  fyzz       
    32     -1.438613  1 P  dxx               35      1.438613  1 P  dyy        
    44     -1.255130  1 P  fxxx              47     -1.255130  1 P  fxyy       
 
 Vector   95  Occ=0.000000D+00  E= 5.459065D+00  Symmetry=e
              MO Center= -8.0D-02, -5.6D-02, -2.3D-02, r^2= 1.1D+00
   Bfn.  Coefficient  Atom+Function         Bfn.  Coefficient  Atom+Function  
  ----- ------------  ---------------      ----- ------------  ---------------
    48      4.235581  1 P  fxyz              33     -2.877227  1 P  dxy        
    36     -2.559675  1 P  dyz               34     -2.143189  1 P  dxz        
    52      2.058948  1 P  fyzz              49      1.723936  1 P  fxzz       
    27      1.271860  1 P  dxy               45      1.255130  1 P  fxxy       
    50      1.255130  1 P  fyyy              30      1.088901  1 P  dyz        
 
 Vector   96  Occ=0.000000D+00  E= 8.641067D+00  Symmetry=a1
              MO Center=  6.0D-15,  9.1D-15,  6.3D-02, r^2= 8.3D-01
   Bfn.  Coefficient  Atom+Function         Bfn.  Coefficient  Atom+Function  
  ----- ------------  ---------------      ----- ------------  ---------------
     5     18.750598  1 P  s                 32     -6.416569  1 P  dxx        
    35     -6.416569  1 P  dyy               37     -6.337879  1 P  dzz        
    31     -3.256524  1 P  dzz               26     -3.232981  1 P  dxx        
    29     -3.232981  1 P  dyy               22      1.946562  1 P  s          
     3     -1.768196  1 P  s                  6      1.034487  1 P  s          
 
 Vector   97  Occ=0.000000D+00  E= 8.659011D+00  Symmetry=a2
              MO Center= -2.0D-16, -5.6D-17, -6.2D-01, r^2= 1.7D+00
   Bfn.  Coefficient  Atom+Function         Bfn.  Coefficient  Atom+Function  
  ----- ------------  ---------------      ----- ------------  ---------------
    77      0.711186  3 H  px                97     -0.711186  4 H  py         
    58     -0.520624  2 H  px                59      0.520624  2 H  py         
    80     -0.508602  3 H  px               100      0.508602  4 H  py         
    61      0.372322  2 H  px                62     -0.372322  2 H  py         
    45     -0.227587  1 P  fxxy              47      0.227587  1 P  fxyy       
 
 Vector   98  Occ=0.000000D+00  E= 8.703872D+00  Symmetry=e
              MO Center= -3.1D-01, -1.8D-01, -6.2D-01, r^2= 1.6D+00
   Bfn.  Coefficient  Atom+Function         Bfn.  Coefficient  Atom+Function  
  ----- ------------  ---------------      ----- ------------  ---------------
    60      0.774249  2 H  pz                63     -0.547297  2 H  pz         
    79     -0.470471  3 H  pz                20      0.439913  1 P  py         
    59     -0.403867  2 H  py                78     -0.397615  3 H  py         
    97     -0.361797  4 H  py                19      0.342640  1 P  px         
    56      0.331038  2 H  s                 82      0.332565  3 H  pz         
 
 Vector   99  Occ=0.000000D+00  E= 8.703872D+00  Symmetry=e
              MO Center=  3.1D-01,  1.8D-01, -6.2D-01, r^2= 1.6D+00
   Bfn.  Coefficient  Atom+Function         Bfn.  Coefficient  Atom+Function  
  ----- ------------  ---------------      ----- ------------  ---------------
    98      0.718639  4 H  pz                79     -0.622398  3 H  pz         
   101     -0.507989  4 H  pz                19     -0.439913  1 P  px         
    82      0.439958  3 H  pz                96      0.413722  4 H  px         
    77      0.377904  3 H  px                58      0.371653  2 H  px         
    20      0.342640  1 P  py                99     -0.336108  4 H  px         
 
 Vector  100  Occ=0.000000D+00  E= 8.847395D+00  Symmetry=a1
              MO Center=  7.1D-17, -1.0D-15, -6.1D-01, r^2= 1.7D+00
   Bfn.  Coefficient  Atom+Function         Bfn.  Coefficient  Atom+Function  
  ----- ------------  ---------------      ----- ------------  ---------------
     5      1.055521  1 P  s                 22      1.034084  1 P  s          
    60      0.675299  2 H  pz                79      0.675299  3 H  pz         
    98      0.675299  4 H  pz                63     -0.556497  2 H  pz         
    82     -0.556497  3 H  pz               101     -0.556497  4 H  pz         
    37     -0.519567  1 P  dzz               21     -0.471619  1 P  pz         
 
 Vector  101  Occ=0.000000D+00  E= 8.851875D+00  Symmetry=e
              MO Center= -3.5D-01, -4.9D-02, -6.1D-01, r^2= 1.6D+00
   Bfn.  Coefficient  Atom+Function         Bfn.  Coefficient  Atom+Function  
  ----- ------------  ---------------      ----- ------------  ---------------
    59      0.678266  2 H  py                77     -0.651125  3 H  px         
    58     -0.590614  2 H  px                62     -0.535880  2 H  py         
    80      0.535650  3 H  px                61      0.489650  2 H  px         
    98      0.424859  4 H  pz               101     -0.380942  4 H  pz         
    46     -0.370987  1 P  fxxz              51      0.370987  1 P  fyyz       
 
 Vector  102  Occ=0.000000D+00  E= 8.851875D+00  Symmetry=e
              MO Center=  3.5D-01,  4.9D-02, -6.1D-01, r^2= 1.6D+00
   Bfn.  Coefficient  Atom+Function         Bfn.  Coefficient  Atom+Function  
  ----- ------------  ---------------      ----- ------------  ---------------
    97      0.905687  4 H  py                48     -0.741974  1 P  fxyz       
   100     -0.729165  4 H  py                77      0.643330  3 H  px         
    80     -0.509322  3 H  px                33      0.471418  1 P  dxy        
    60      0.411121  2 H  pz                63     -0.368624  2 H  pz         
    58     -0.343308  2 H  px                79     -0.324756  3 H  pz         
 
 Vector  103  Occ=0.000000D+00  E= 9.479261D+00  Symmetry=e
              MO Center=  1.5D-01,  5.2D-01, -5.6D-01, r^2= 1.4D+00
   Bfn.  Coefficient  Atom+Function         Bfn.  Coefficient  Atom+Function  
  ----- ------------  ---------------      ----- ------------  ---------------
    17      1.548820  1 P  py                52     -1.542234  1 P  fyzz       
    36      1.399445  1 P  dyz               81     -1.314359  3 H  py         
    45     -1.129528  1 P  fxxy              50     -1.129528  1 P  fyyy       
    99      0.981740  4 H  px                16     -0.918868  1 P  px         
    49      0.914960  1 P  fxzz              78      0.908976  3 H  py         
 
 Vector  104  Occ=0.000000D+00  E= 9.479261D+00  Symmetry=e
              MO Center= -1.5D-01, -5.2D-01, -5.6D-01, r^2= 1.4D+00
   Bfn.  Coefficient  Atom+Function         Bfn.  Coefficient  Atom+Function  
  ----- ------------  ---------------      ----- ------------  ---------------
    48     -1.687388  1 P  fxyz              16      1.548820  1 P  px         
    49     -1.542234  1 P  fxzz              34      1.399445  1 P  dxz        
    33      1.215984  1 P  dxy               44     -1.129528  1 P  fxxx       
    47     -1.129528  1 P  fxyy              62     -0.973147  2 H  py         
    61     -0.959437  2 H  px                99     -0.944553  4 H  px         
 
 Vector  105  Occ=0.000000D+00  E= 9.755912D+00  Symmetry=a1
              MO Center=  2.2D-16, -3.1D-15, -5.4D-01, r^2= 1.7D+00
   Bfn.  Coefficient  Atom+Function         Bfn.  Coefficient  Atom+Function  
  ----- ------------  ---------------      ----- ------------  ---------------
     6      4.053725  1 P  s                  5      3.784053  1 P  s          
    37     -1.466184  1 P  dzz               55     -1.384015  2 H  s          
    74     -1.384015  3 H  s                 93     -1.384015  4 H  s          
    32     -1.329621  1 P  dxx               35     -1.329621  1 P  dyy        
    43     -1.071014  1 P  dzz               38     -1.038279  1 P  dxx        
 
 Vector  106  Occ=0.000000D+00  E= 1.474792D+01  Symmetry=a1
              MO Center=  1.2D-14, -4.7D-15,  1.2D-01, r^2= 2.5D-01
   Bfn.  Coefficient  Atom+Function         Bfn.  Coefficient  Atom+Function  
  ----- ------------  ---------------      ----- ------------  ---------------
    18      3.760572  1 P  pz                53     -2.016342  1 P  fzzz       
    46     -1.809978  1 P  fxxz              51     -1.809978  1 P  fyyz       
    12     -1.612447  1 P  pz                 6     -1.519757  1 P  s          
     9      1.224249  1 P  pz                55      0.478361  2 H  s          
    74      0.478361  3 H  s                 93      0.478361  4 H  s          
 
 Vector  107  Occ=0.000000D+00  E= 1.481262D+01  Symmetry=e
              MO Center= -1.6D-02, -7.4D-04,  1.1D-01, r^2= 2.5D-01
   Bfn.  Coefficient  Atom+Function         Bfn.  Coefficient  Atom+Function  
  ----- ------------  ---------------      ----- ------------  ---------------
    17      3.336253  1 P  py                45     -1.682354  1 P  fxxy       
    50     -1.682354  1 P  fyyy              52     -1.550024  1 P  fyzz       
    11     -1.481896  1 P  py                16      1.473738  1 P  px         
     8      1.119411  1 P  py                44     -0.743154  1 P  fxxx       
    47     -0.743154  1 P  fxyy              49     -0.684699  1 P  fxzz       
 
 Vector  108  Occ=0.000000D+00  E= 1.481262D+01  Symmetry=e
              MO Center=  1.6D-02,  7.4D-04,  1.1D-01, r^2= 2.5D-01
   Bfn.  Coefficient  Atom+Function         Bfn.  Coefficient  Atom+Function  
  ----- ------------  ---------------      ----- ------------  ---------------
    16      3.336253  1 P  px                44     -1.682354  1 P  fxxx       
    47     -1.682354  1 P  fxyy              49     -1.550024  1 P  fxzz       
    10     -1.481896  1 P  px                17     -1.473738  1 P  py         
     7      1.119411  1 P  px                45      0.743154  1 P  fxxy       
    50      0.743154  1 P  fyyy              93     -0.688206  4 H  s          
 
 Vector  109  Occ=0.000000D+00  E= 2.132589D+01  Symmetry=a1
              MO Center= -2.6D-15,  6.5D-16,  1.3D-01, r^2= 3.1D-01
   Bfn.  Coefficient  Atom+Function         Bfn.  Coefficient  Atom+Function  
  ----- ------------  ---------------      ----- ------------  ---------------
     5     16.238716  1 P  s                  4     14.675775  1 P  s          
     3    -11.435944  1 P  s                 26     -6.635602  1 P  dxx        
    29     -6.635602  1 P  dyy               31     -6.638653  1 P  dzz        
    32     -4.984399  1 P  dxx               35     -4.984399  1 P  dyy        
    37     -4.979407  1 P  dzz               22      1.052028  1 P  s          
 
 Vector  110  Occ=0.000000D+00  E= 1.887381D+02  Symmetry=a1
              MO Center= -1.0D-15,  3.0D-16,  1.2D-01, r^2= 4.0D-02
   Bfn.  Coefficient  Atom+Function         Bfn.  Coefficient  Atom+Function  
  ----- ------------  ---------------      ----- ------------  ---------------
     4      7.158842  1 P  s                  3     -6.039644  1 P  s          
     5      5.437034  1 P  s                 26     -2.688063  1 P  dxx        
    29     -2.688063  1 P  dyy               31     -2.689372  1 P  dzz        
     2      2.300911  1 P  s                 32     -1.691834  1 P  dxx        
    35     -1.691834  1 P  dyy               37     -1.688089  1 P  dzz        
 

 center of mass
 --------------
 x =   0.00000000 y =  -0.00000000 z =   0.10983515

 moments of inertia (a.u.)
 ------------------
          13.281703001218           0.000000000000           0.000000000000
           0.000000000000          13.281703001218          -0.000000000000
           0.000000000000          -0.000000000000          15.564467881867
 
     Multipole analysis of the density
     ---------------------------------
 
     L   x y z        total         alpha         beta         nuclear
     -   - - -        -----         -----         ----         -------
     0   0 0 0     -0.000000     -9.000000     -9.000000     18.000000
 
     1   1 0 0     -0.000000     -0.000000     -0.000000      0.000000
     1   0 1 0     -0.000000     -0.000000     -0.000000      0.000000
     1   0 0 1     -0.260410     -0.130205     -0.130205      0.000000
 
     2   2 0 0    -10.910103     -9.315957     -9.315957      7.721811
     2   1 1 0     -0.000000      0.000000      0.000000     -0.000000
     2   1 0 1      0.000000      0.000000      0.000000     -0.000000
     2   0 2 0    -10.910103     -9.315957     -9.315957      7.721811
     2   0 1 1      0.000000      0.000000      0.000000     -0.000000
     2   0 0 2    -12.675292     -8.833241     -8.833241      4.991189
 

------------------------------------------------------------
EAF file 0: "./PH3.xyz.aoints.00" size=1048576 bytes
------------------------------------------------------------
               write      read    awrite     aread      wait
               -----      ----    ------     -----      ----
     calls:        6         8         0         8         8
   data(b): 3.15e+06  4.19e+06  0.00e+00  4.19e+06
   time(s): 0.00e+00  0.00e+00  0.00e+00  0.00e+00  0.00e+00
rate(mb/s): 0.00e+00  0.00e+00
------------------------------------------------------------


 Parallel integral file used     131 records with       0 large values


 Task  times  cpu:        1.6s     wall:        2.2s
 
 
                                NWChem Input Module
                                -------------------
 
 
 Summary of allocated global arrays
-----------------------------------
  No active global arrays



                         GA Statistics for process    0
                         ------------------------------

       create   destroy   get      put      acc     scatter   gather  read&inc
calls:  241      241     1716      965      532        0        0      155     
number of processes/call 3.46e+00 1.83e+00 3.93e+00 0.00e+00 0.00e+00
bytes total:             2.70e+07 4.58e+06 1.49e+07 0.00e+00 0.00e+00 1.24e+03
bytes remote:            1.76e+07 1.66e+06 8.55e+06 0.00e+00 0.00e+00 0.00e+00
Max memory consumed for GA by this process: 935176 bytes
 
MA_summarize_allocated_blocks: starting scan ...
MA_summarize_allocated_blocks: scan completed: 0 heap blocks, 0 stack blocks
MA usage statistics:

	allocation statistics:
					      heap	     stack
					      ----	     -----
	current number of blocks	         0	         0
	maximum number of blocks	        22	        57
	current total bytes		         0	         0
	maximum total bytes		   5044736	  23750696
	maximum total K-bytes		      5045	     23751
	maximum total M-bytes		         6	        24
 
 
                                     CITATION
                                     --------
                Please cite the following reference when publishing
                           results obtained with NWChem:
 
                 M. Valiev, E.J. Bylaska, N. Govind, K. Kowalski,
              T.P. Straatsma, H.J.J. van Dam, D. Wang, J. Nieplocha,
                        E. Apra, T.L. Windus, W.A. de Jong
                 "NWChem: a comprehensive and scalable open-source
                  solution for large scale molecular simulations"
                      Comput. Phys. Commun. 181, 1477 (2010)
                           doi:10.1016/j.cpc.2010.04.018
 
                                      AUTHORS
                                      -------
          E. Apra, E. J. Bylaska, W. A. de Jong, N. Govind, K. Kowalski,
       T. P. Straatsma, M. Valiev, H. J. J. van Dam, D. Wang, T. L. Windus,
        J. Hammond, J. Autschbach, K. Bhaskaran-Nair, J. Brabec, K. Lopata,
    S. A. Fischer, S. Krishnamoorthy, M. Jacquelin, W. Ma, M. Klemm, O. Villa,
      Y. Chen, V. Anisimov, F. Aquino, S. Hirata, M. T. Hackler, V. Konjkov,
            D. Mejia-Rodriguez, T. Risthaus, M. Malagoli, A. Marenich,
   A. Otero-de-la-Roza, J. Mullin, P. Nichols, R. Peverati, J. Pittner, Y. Zhao,
        P.-D. Fan, A. Fonari, M. J. Williamson, R. J. Harrison, J. R. Rehr,
      M. Dupuis, D. Silverstein, D. M. A. Smith, J. Nieplocha, V. Tipparaju,
    M. Krishnan, B. E. Van Kuiken, A. Vazquez-Mayagoitia, L. Jensen, M. Swart,
      Q. Wu, T. Van Voorhis, A. A. Auer, M. Nooijen, L. D. Crosby, E. Brown,
      G. Cisneros, G. I. Fann, H. Fruchtl, J. Garza, K. Hirao, R. A. Kendall,
      J. A. Nichols, K. Tsemekhman, K. Wolinski, J. Anchell, D. E. Bernholdt,
      P. Borowski, T. Clark, D. Clerc, H. Dachsel, M. J. O. Deegan, K. Dyall,
    D. Elwood, E. Glendening, M. Gutowski, A. C. Hess, J. Jaffe, B. G. Johnson,
     J. Ju, R. Kobayashi, R. Kutteh, Z. Lin, R. Littlefield, X. Long, B. Meng,
      T. Nakajima, S. Niu, L. Pollack, M. Rosing, K. Glaesemann, G. Sandrone,
      M. Stave, H. Taylor, G. Thomas, J. H. van Lenthe, A. T. Wong, Z. Zhang.

 Total times  cpu:        1.7s     wall:        2.5s
