 argument  1 = /storage/home/rabeet/work/nwc/pa8/nwtpss/SiH4.xyz.nw
  NWChem w/ OpenMP: maximum threads =  1
                                         
                                         
 
 
              Northwest Computational Chemistry Package (NWChem) 6.8
              ------------------------------------------------------
 
 
                    Environmental Molecular Sciences Laboratory
                       Pacific Northwest National Laboratory
                                Richland, WA 99352
 
                              Copyright (c) 1994-2018
                       Pacific Northwest National Laboratory
                            Battelle Memorial Institute
 
             NWChem is an open-source computational chemistry package
                        distributed under the terms of the
                      Educational Community License (ECL) 2.0
             A copy of the license is included with this distribution
                              in the LICENSE.TXT file
 
                                  ACKNOWLEDGMENT
                                  --------------

            This software and its documentation were developed at the
            EMSL at Pacific Northwest National Laboratory, a multiprogram
            national laboratory, operated for the U.S. Department of Energy
            by Battelle under Contract Number DE-AC05-76RL01830. Support
            for this work was provided by the Department of Energy Office
            of Biological and Environmental Research, Office of Basic
            Energy Sciences, and the Office of Advanced Scientific Computing.


           Job information
           ---------------

    hostname        = r8n4.niserhpc.org
    program         = /home/rabeet/nwchem-6.8/bin/LINUX64/nwchem
    date            = Sun Oct 27 10:45:56 2019

    compiled        = Fri_Jun_28_18:24:12_2019
    source          = /home/rabeet/nwchem-6.8
    nwchem branch   = Development
    nwchem revision = N/A
    ga revision     = 5.6.5
    use scalapack   = T
    input           = /storage/home/rabeet/work/nwc/pa8/nwtpss/SiH4.xyz.nw
    prefix          = SiH4.xyz.
    data base       = ./SiH4.xyz.db
    status          = startup
    nproc           =       16
    time left       =     -1s



           Memory information
           ------------------

    heap     =   13107194 doubles =    100.0 Mbytes
    stack    =   13107199 doubles =    100.0 Mbytes
    global   =   26214400 doubles =    200.0 Mbytes (distinct from heap & stack)
    total    =   52428793 doubles =    400.0 Mbytes
    verify   = yes
    hardfail = no 


           Directory information
           ---------------------
 
  0 permanent = .
  0 scratch   = .
 
 
 
 
                                NWChem Input Module
                                -------------------
 
 

 Scaling coordinates for geometry "geometry" by  1.889725989
 (inverse scale =  0.529177249)

 TD  symmetry detected

          ------
          auto-z
          ------
  Looking for out-of-plane bends
  no constraints, skipping   0.000000000000000E+000
  no constraints, skipping   0.000000000000000E+000
 
 
                             Geometry "geometry" -> ""
                             -------------------------
 
 Output coordinates in angstroms (scale by  1.889725989 to convert to a.u.)
 
  No.       Tag          Charge          X              Y              Z
 ---- ---------------- ---------- -------------- -------------- --------------
    1 Si                  14.0000     0.00000000     0.00000000     0.00000000
    2 H                    1.0000     0.85613000    -0.85613000     0.85613000
    3 H                    1.0000    -0.85613000     0.85613000     0.85613000
    4 H                    1.0000     0.85613000     0.85613000    -0.85613000
    5 H                    1.0000    -0.85613000    -0.85613000    -0.85613000
 
      Atomic Mass 
      ----------- 
 
      Si                27.976930
      H                  1.007825
 

 Effective nuclear repulsion energy (a.u.)      21.2954920217

            Nuclear Dipole moment (a.u.) 
            ----------------------------
        X                 Y               Z
 ---------------- ---------------- ----------------
     0.0000000000     0.0000000000     0.0000000000
 
      Symmetry information
      --------------------
 
 Group name              Td       
 Group number             42
 Group order              24
 No. of unique centers     2
 
      Symmetry unique atoms
 
     1    2
 


                                Z-matrix (autoz)
                                -------- 

 Units are Angstrom for bonds and degrees for angles
 
      Type          Name      I     J     K     L     M      Value
      ----------- --------  ----- ----- ----- ----- ----- ----------
    1 Stretch                  1     2                       1.48286
    2 Stretch                  1     3                       1.48286
    3 Stretch                  1     4                       1.48286
    4 Stretch                  1     5                       1.48286
    5 Bend                     2     1     3               109.47122
    6 Bend                     2     1     4               109.47122
    7 Bend                     2     1     5               109.47122
    8 Bend                     3     1     4               109.47122
    9 Bend                     3     1     5               109.47122
   10 Bend                     4     1     5               109.47122
 
 
            XYZ format geometry
            -------------------
     5
 geometry
 Si                    0.00000000     0.00000000     0.00000000
 H                     0.85613000    -0.85613000     0.85613000
 H                    -0.85613000     0.85613000     0.85613000
 H                     0.85613000     0.85613000    -0.85613000
 H                    -0.85613000    -0.85613000    -0.85613000
 
 ==============================================================================
                                internuclear distances
 ------------------------------------------------------------------------------
       center one      |      center two      | atomic units |  angstroms
 ------------------------------------------------------------------------------
    2 H                |   1 Si               |     2.80220  |     1.48286
    3 H                |   1 Si               |     2.80220  |     1.48286
    4 H                |   1 Si               |     2.80220  |     1.48286
    5 H                |   1 Si               |     2.80220  |     1.48286
 ------------------------------------------------------------------------------
                         number of included internuclear distances:          4
 ==============================================================================



 ==============================================================================
                                 internuclear angles
 ------------------------------------------------------------------------------
        center 1       |       center 2       |       center 3       |  degrees
 ------------------------------------------------------------------------------
    2 H                |   1 Si               |   3 H                |   109.47
    2 H                |   1 Si               |   4 H                |   109.47
    2 H                |   1 Si               |   5 H                |   109.47
    3 H                |   1 Si               |   4 H                |   109.47
    3 H                |   1 Si               |   5 H                |   109.47
    4 H                |   1 Si               |   5 H                |   109.47
 ------------------------------------------------------------------------------
                            number of included internuclear angles:          6
 ==============================================================================





 Summary of "ao basis" -> "" (cartesian)
 ------------------------------------------------------------------------------
       Tag                 Description            Shells   Functions and Types
 ---------------- ------------------------------  ------  ---------------------
 *                     6-311++G(3df,3pd)              on all atoms 


 
                                 NWChem DFT Module
                                 -----------------
 
 
                      Basis "ao basis" -> "ao basis" (cartesian)
                      -----
  Si (Silicon)
  ------------
            Exponent  Coefficients 
       -------------- ---------------------------------------------------------
  1 S  6.93792300E+04  0.000757
  1 S  1.03549400E+04  0.005932
  1 S  2.33387960E+03  0.031088
  1 S  6.57142950E+02  0.124967
  1 S  2.14301130E+02  0.386897
  1 S  7.76291680E+01  0.554888
 
  2 S  7.76291680E+01  0.177881
  2 S  3.06308070E+01  0.627765
  2 S  1.28012950E+01  0.247623
 
  3 S  3.92686600E+00  1.000000
 
  4 S  1.45234300E+00  1.000000
 
  5 S  2.56234000E-01  1.000000
 
  6 S  9.42790000E-02  1.000000
 
  7 P  3.35483190E+02  0.008866
  7 P  7.89003660E+01  0.068299
  7 P  2.49881500E+01  0.290958
  7 P  9.21971100E+00  0.732117
 
  8 P  3.62114000E+00  0.619879
  8 P  1.45131000E+00  0.439148
 
  9 P  5.04977000E-01  1.000000
 
 10 P  1.86317000E-01  1.000000
 
 11 P  6.54320000E-02  1.000000
 
 12 S  3.31000000E-02  1.000000
 
 13 P  3.31000000E-02  1.000000
 
 14 D  1.80000000E+00  1.000000
 
 15 D  4.50000000E-01  1.000000
 
 16 D  1.12500000E-01  1.000000
 
 17 F  3.20000000E-01  1.000000
 
  H (Hydrogen)
  ------------
            Exponent  Coefficients 
       -------------- ---------------------------------------------------------
  1 S  3.38650000E+01  0.025494
  1 S  5.09479000E+00  0.190373
  1 S  1.15879000E+00  0.852161
 
  2 S  3.25840000E-01  1.000000
 
  3 S  1.02741000E-01  1.000000
 
  4 S  3.60000000E-02  1.000000
 
  5 P  3.00000000E+00  1.000000
 
  6 P  7.50000000E-01  1.000000
 
  7 P  1.87500000E-01  1.000000
 
  8 D  1.00000000E+00  1.000000
 


 Summary of "ao basis" -> "ao basis" (cartesian)
 ------------------------------------------------------------------------------
       Tag                 Description            Shells   Functions and Types
 ---------------- ------------------------------  ------  ---------------------
 Si                    6-311++G(3df,3pd)            17       53   7s6p3d1f
 H                     6-311++G(3df,3pd)             8       19   4s3p1d




 Summary of "ao basis" -> "ao basis" (cartesian)
 ------------------------------------------------------------------------------
       Tag                 Description            Shells   Functions and Types
 ---------------- ------------------------------  ------  ---------------------
 Si                    6-311++G(3df,3pd)            17       53   7s6p3d1f
 H                     6-311++G(3df,3pd)             8       19   4s3p1d


      Symmetry analysis of basis
      --------------------------
 
        a1         20
        a2          0
        e          16
        t1         18
        t2         75
 
  Caching 1-el integrals 
 
            General Information
            -------------------
          SCF calculation type: DFT
          Wavefunction type:  closed shell.
          No. of atoms     :     5
          No. of electrons :    18
           Alpha electrons :     9
            Beta electrons :     9
          Charge           :     0
          Spin multiplicity:     1
          Use of symmetry is: on ; symmetry adaption is: on 
          Maximum number of iterations: ***
          AO basis - number of functions:   129
                     number of shells:    49
          Convergence on energy requested:  1.00D-06
          Convergence on density requested:  1.00D-05
          Convergence on gradient requested:  5.00D-04
 
              XC Information
              --------------
                  TPSS metaGGA Exchange Functional  1.000          
             TPSS03 metaGGA Correlation Functional  1.000          
 
             Grid Information
             ----------------
          Grid used for XC integration:  medium    
          Radial quadrature: Mura-Knowles        
          Angular quadrature: Lebedev. 
          Tag              B.-S. Rad. Rad. Pts. Rad. Cut. Ang. Pts.
          ---              ---------- --------- --------- ---------
          Si                  1.10       88          11.0       590
          H                   0.35       45          12.0       434
          Grid pruning is: on 
          Number of quadrature shells:   133
          Spatial weights used:  Erf1
 
          Convergence Information
          -----------------------
          Convergence aids based upon iterative change in 
          total energy or number of iterations. 
          Levelshifting, if invoked, occurs when the 
          HOMO/LUMO gap drops below (HL_TOL):  1.00D-02
          DIIS, if invoked, will attempt to extrapolate 
          using up to (NFOCK): 10 stored Fock matrices.

                    Damping( 0%)  Levelshifting(0.5)       DIIS
                  --------------- ------------------- ---------------
          dE  on:    start            ASAP                start   
          dE off:    2 iters        *** iters           *** iters 

 
      Screening Tolerance Information
      -------------------------------
          Density screening/tol_rho:  1.00D-10
          AO Gaussian exp screening on grid/accAOfunc:  14
          CD Gaussian exp screening on grid/accCDfunc:  20
          XC Gaussian exp screening on grid/accXCfunc:  20
          Schwarz screening/accCoul:  1.00D-08

 
      Superposition of Atomic Density Guess
      -------------------------------------
 
 Sum of atomic energies:        -290.83602681
 
      Non-variational initial energy
      ------------------------------

 Total energy =    -291.041032
 1-e energy   =    -444.411388
 2-e energy   =     132.074864
 HOMO         =      -0.435272
 LUMO         =       0.034944
 
 
      Symmetry analysis of molecular orbitals - initial
      -------------------------------------------------
 
  Numbering of irreducible representations: 
 
     1 a1          2 a2          3 e           4 t1          5 t2      
 
  Orbital symmetries:
 
     1 a1          2 a1          3 t2          4 t2          5 t2      
     6 a1          7 t2          8 t2          9 t2         10 a1      
    11 t2         12 t2         13 t2         14 t2         15 t2      
    16 t2         17 a1         18 t2         19 t2      
 
   Time after variat. SCF:      0.9
   Time prior to 1st pass:      0.9

 Integral file          = ./SiH4.xyz.aoints.00
 Record size in doubles =    65536    No. of integs per rec  =    43688
 Max. records in memory =        5    Max. records in file   =  8902831
 No. of bits per label  =        8    No. of bits per value  =       64


 #quartets = 1.180D+05 #integrals = 5.485D+06 #direct =  0.0% #cached =100.0%


File balance: exchanges=     8  moved=    12  time=   0.0


 Grid_pts file          = ./SiH4.xyz.gridpts.00
 Record size in doubles =  12289        No. of grid_pts per rec  =   3070
 Max. records in memory =      3        Max. recs in file   =    690581


           Memory utilization after 1st SCF pass: 
           Heap Space remaining (MW):       12.74            12738266
          Stack Space remaining (MW):       13.11            13106380

   convergence    iter        energy       DeltaE   RMS-Dens  Diis-err    time
 ---------------- ----- ----------------- --------- --------- ---------  ------
 d= 0,ls=0.0,diis     1   -291.9088466377 -3.13D+02  3.27D-03  4.06D-01     1.9
 d= 0,ls=0.0,diis     2   -291.9226406465 -1.38D-02  1.06D-03  6.36D-03     2.0
 d= 0,ls=0.0,diis     3   -291.9234099765 -7.69D-04  3.15D-04  3.45D-03     2.1
 d= 0,ls=0.0,diis     4   -291.9239037918 -4.94D-04  2.81D-05  5.89D-05     2.3
 d= 0,ls=0.0,diis     5   -291.9239075380 -3.75D-06  5.94D-06  7.31D-07     2.4
 d= 0,ls=0.0,diis     6   -291.9239076764 -1.38D-07  8.14D-07  6.20D-09     2.5


         Total DFT energy =     -291.923907676413
      One electron energy =     -445.806171455129
           Coulomb energy =      155.007557514201
          Exchange energy =      -21.805564850544
       Correlation energy =       -0.615220906662
 Nuclear repulsion energy =       21.295492021721

 Numeric. integr. density =       18.000009470192

     Total iterative time =      1.6s


 
                  Occupations of the irreducible representations
                  ----------------------------------------------
 
                     irrep           alpha         beta
                     --------     --------     --------
                     a1                3.0          3.0
                     a2                0.0          0.0
                     e                 0.0          0.0
                     t1                0.0          0.0
                     t2                6.0          6.0
 
 
                       DFT Final Molecular Orbital Analysis
                       ------------------------------------
 
 Vector    1  Occ=2.000000D+00  E=-6.565825D+01  Symmetry=a1
              MO Center= -6.0D-23, -7.5D-24, -1.4D-22, r^2= 4.7D-03
   Bfn.  Coefficient  Atom+Function         Bfn.  Coefficient  Atom+Function  
  ----- ------------  ---------------      ----- ------------  ---------------
     2      0.645716  1 Si s                  1      0.418166  1 Si s          
     3      0.026914  1 Si s          
 
 Vector    2  Occ=2.000000D+00  E=-5.105855D+00  Symmetry=a1
              MO Center=  1.3D-15, -5.4D-18,  9.0D-16, r^2= 1.1D-01
   Bfn.  Coefficient  Atom+Function         Bfn.  Coefficient  Atom+Function  
  ----- ------------  ---------------      ----- ------------  ---------------
     3      0.548647  1 Si s                  4      0.549333  1 Si s          
     2     -0.304819  1 Si s                  1     -0.116740  1 Si s          
     5      0.099476  1 Si s                  6     -0.073502  1 Si s          
    22     -0.037745  1 Si s          
 
 Vector    3  Occ=2.000000D+00  E=-3.479820D+00  Symmetry=t2
              MO Center= -1.8D-07, -3.3D-07,  1.4D-07, r^2= 1.0D-01
   Bfn.  Coefficient  Atom+Function         Bfn.  Coefficient  Atom+Function  
  ----- ------------  ---------------      ----- ------------  ---------------
    12      0.515811  1 Si pz                10     -0.401087  1 Si px         
     9      0.301822  1 Si pz                 7     -0.234692  1 Si px         
    11     -0.218448  1 Si py                 8     -0.127823  1 Si py         
    15      0.039605  1 Si pz                13     -0.030796  1 Si px         
 
 Vector    4  Occ=2.000000D+00  E=-3.479820D+00  Symmetry=t2
              MO Center=  3.2D-07,  5.8D-08,  1.0D-07, r^2= 1.0D-01
   Bfn.  Coefficient  Atom+Function         Bfn.  Coefficient  Atom+Function  
  ----- ------------  ---------------      ----- ------------  ---------------
    11      0.591708  1 Si py                 8      0.346232  1 Si py         
    12      0.335552  1 Si pz                 9      0.196345  1 Si pz         
    10      0.109262  1 Si px                 7      0.063934  1 Si px         
    14      0.045432  1 Si py                15      0.025764  1 Si pz         
 
 Vector    5  Occ=2.000000D+00  E=-3.479820D+00  Symmetry=t2
              MO Center= -1.4D-07,  2.7D-07, -2.4D-07, r^2= 1.0D-01
   Bfn.  Coefficient  Atom+Function         Bfn.  Coefficient  Atom+Function  
  ----- ------------  ---------------      ----- ------------  ---------------
    10      0.549402  1 Si px                 7      0.321477  1 Si px         
    12      0.309831  1 Si pz                11     -0.277153  1 Si py         
     9      0.181295  1 Si pz                 8     -0.162173  1 Si py         
    13      0.042184  1 Si px         
 
 Vector    6  Occ=2.000000D+00  E=-5.046331D-01  Symmetry=a1
              MO Center=  2.8D-15, -2.3D-15,  4.2D-15, r^2= 1.8D+00
   Bfn.  Coefficient  Atom+Function         Bfn.  Coefficient  Atom+Function  
  ----- ------------  ---------------      ----- ------------  ---------------
     5      0.430309  1 Si s                  6      0.339463  1 Si s          
     4     -0.262444  1 Si s                  3     -0.174158  1 Si s          
    55      0.105317  2 H  s                 74      0.105317  3 H  s          
    93      0.105317  4 H  s                112      0.105317  5 H  s          
    54      0.075636  2 H  s                 73      0.075636  3 H  s          
 
 Vector    7  Occ=2.000000D+00  E=-3.224807D-01  Symmetry=t2
              MO Center= -2.1D-01,  8.1D-02,  3.9D-01, r^2= 2.2D+00
   Bfn.  Coefficient  Atom+Function         Bfn.  Coefficient  Atom+Function  
  ----- ------------  ---------------      ----- ------------  ---------------
    74      0.260225  3 H  s                 55     -0.191889  2 H  s          
    75      0.170354  3 H  s                 14      0.168912  1 Si py         
    73      0.146765  3 H  s                112     -0.132513  5 H  s          
    56     -0.125619  2 H  s                 17      0.124077  1 Si py         
    11     -0.114409  1 Si py                54     -0.108224  2 H  s          
 
 Vector    8  Occ=2.000000D+00  E=-3.224807D-01  Symmetry=t2
              MO Center= -1.3D-01, -4.9D-01, -2.2D-01, r^2= 2.1D+00
   Bfn.  Coefficient  Atom+Function         Bfn.  Coefficient  Atom+Function  
  ----- ------------  ---------------      ----- ------------  ---------------
   112      0.277255  5 H  s                 55     -0.198010  2 H  s          
   113      0.181503  5 H  s                111      0.156369  5 H  s          
    13     -0.154535  1 Si px                56     -0.129625  2 H  s          
    16     -0.113516  1 Si px                54     -0.111676  2 H  s          
    10      0.104670  1 Si px                93     -0.098779  4 H  s          
 
 Vector    9  Occ=2.000000D+00  E=-3.224807D-01  Symmetry=t2
              MO Center=  3.4D-01,  4.1D-01, -1.7D-01, r^2= 2.1D+00
   Bfn.  Coefficient  Atom+Function         Bfn.  Coefficient  Atom+Function  
  ----- ------------  ---------------      ----- ------------  ---------------
    93      0.284230  4 H  s                 94      0.186069  4 H  s          
    74     -0.162985  3 H  s                 92      0.160303  4 H  s          
    15     -0.155940  1 Si pz                55     -0.136504  2 H  s          
    18     -0.114549  1 Si pz                75     -0.106697  3 H  s          
    12      0.105623  1 Si pz                73     -0.091922  3 H  s          
 
 Vector   10  Occ=0.000000D+00  E=-7.236860D-03  Symmetry=a1
              MO Center=  4.3D-16,  7.7D-16, -2.0D-16, r^2= 1.2D+01
   Bfn.  Coefficient  Atom+Function         Bfn.  Coefficient  Atom+Function  
  ----- ------------  ---------------      ----- ------------  ---------------
    22      4.447120  1 Si s                 57     -1.599350  2 H  s          
    76     -1.599350  3 H  s                 95     -1.599350  4 H  s          
   114     -1.599350  5 H  s                  5      0.352016  1 Si s          
     6     -0.257834  1 Si s                 56      0.187417  2 H  s          
    75      0.187417  3 H  s                 94      0.187417  4 H  s          
 
 Vector   11  Occ=0.000000D+00  E= 6.305206D-03  Symmetry=t2
              MO Center= -6.1D-01,  4.8D-02, -7.9D-02, r^2= 6.6D+00
   Bfn.  Coefficient  Atom+Function         Bfn.  Coefficient  Atom+Function  
  ----- ------------  ---------------      ----- ------------  ---------------
    57      1.734129  2 H  s                 95     -1.571628  4 H  s          
    24      1.538528  1 Si py                25     -0.923810  1 Si pz         
    76     -0.493889  3 H  s                 17      0.412743  1 Si py         
   114      0.331387  5 H  s                 40      0.307295  1 Si dxz        
    18     -0.247832  1 Si pz                39     -0.184515  1 Si dxy        
 
 Vector   12  Occ=0.000000D+00  E= 6.305206D-03  Symmetry=t2
              MO Center=  1.0D-02, -2.6D-01, -5.1D-02, r^2= 6.9D+00
   Bfn.  Coefficient  Atom+Function         Bfn.  Coefficient  Atom+Function  
  ----- ------------  ---------------      ----- ------------  ---------------
    23      1.764108  1 Si px                76      1.460780  3 H  s          
    95     -1.369656  4 H  s                 57     -0.998707  2 H  s          
   114      0.907583  5 H  s                 16      0.473260  1 Si px         
    42      0.352350  1 Si dyz               25     -0.344181  1 Si pz         
    36      0.191398  1 Si dyz               74      0.136277  3 H  s          
 
 Vector   13  Occ=0.000000D+00  E= 6.305206D-03  Symmetry=t2
              MO Center=  6.0D-01,  2.1D-01,  1.3D-01, r^2= 6.6D+00
   Bfn.  Coefficient  Atom+Function         Bfn.  Coefficient  Atom+Function  
  ----- ------------  ---------------      ----- ------------  ---------------
   114      1.854642  5 H  s                 25      1.504413  1 Si pz         
    76     -1.412591  3 H  s                 24      0.929230  1 Si py         
    57     -0.607125  2 H  s                 18      0.403591  1 Si pz         
    23      0.329267  1 Si px                39      0.300481  1 Si dxy        
    17      0.249286  1 Si py                40      0.185598  1 Si dxz        
 
 Vector   14  Occ=0.000000D+00  E= 3.774637D-02  Symmetry=t2
              MO Center=  1.8D-01, -1.4D-01,  1.0D+00, r^2= 1.4D+01
   Bfn.  Coefficient  Atom+Function         Bfn.  Coefficient  Atom+Function  
  ----- ------------  ---------------      ----- ------------  ---------------
    57      1.507950  2 H  s                 76     -1.290937  3 H  s          
    20      0.831852  1 Si py                19     -0.630951  1 Si px         
    17     -0.553061  1 Si py                16      0.419491  1 Si px         
    24     -0.418172  1 Si py                23      0.317179  1 Si px         
    95     -0.300705  4 H  s                 45      0.268461  1 Si fxxy       
 
 Vector   15  Occ=0.000000D+00  E= 3.774637D-02  Symmetry=t2
              MO Center=  3.0D-01,  4.2D-01, -9.4D-01, r^2= 1.4D+01
   Bfn.  Coefficient  Atom+Function         Bfn.  Coefficient  Atom+Function  
  ----- ------------  ---------------      ----- ------------  ---------------
    95      1.610156  4 H  s                114     -1.101949  5 H  s          
    19     -0.826654  1 Si px                20     -0.590794  1 Si py         
    16      0.549604  1 Si px                76     -0.479747  3 H  s          
    23      0.415559  1 Si px                17      0.392792  1 Si py         
    24      0.296992  1 Si py                21      0.265608  1 Si pz         
 
 Vector   16  Occ=0.000000D+00  E= 3.774637D-02  Symmetry=t2
              MO Center= -4.9D-01, -2.9D-01, -7.0D-02, r^2= 1.5D+01
   Bfn.  Coefficient  Atom+Function         Bfn.  Coefficient  Atom+Function  
  ----- ------------  ---------------      ----- ------------  ---------------
   114      1.344284  5 H  s                 76     -1.063823  3 H  s          
    21      1.009718  1 Si pz                57     -0.868143  2 H  s          
    18     -0.671315  1 Si pz                95      0.587682  4 H  s          
    25     -0.507585  1 Si pz                46      0.325863  1 Si fxxz       
    51      0.325863  1 Si fyyz              53      0.317795  1 Si fzzz       
 
 Vector   17  Occ=0.000000D+00  E= 1.042188D-01  Symmetry=t2
              MO Center= -3.4D-01, -1.0D-01,  1.6D-01, r^2= 1.6D+01
   Bfn.  Coefficient  Atom+Function         Bfn.  Coefficient  Atom+Function  
  ----- ------------  ---------------      ----- ------------  ---------------
    95      6.139509  4 H  s                 57     -4.258921  2 H  s          
    24     -4.128347  1 Si py                94     -2.742165  4 H  s          
    25      2.624636  1 Si pz                20      2.419120  1 Si py         
   114     -2.098022  5 H  s                 56      1.902215  2 H  s          
    21     -1.537979  1 Si pz                23     -1.221298  1 Si px         
 
 Vector   18  Occ=0.000000D+00  E= 1.042188D-01  Symmetry=t2
              MO Center=  3.5D-01,  9.5D-02,  5.6D-02, r^2= 1.6D+01
   Bfn.  Coefficient  Atom+Function         Bfn.  Coefficient  Atom+Function  
  ----- ------------  ---------------      ----- ------------  ---------------
   114      5.798183  5 H  s                 76     -4.728779  3 H  s          
    25      4.304978  1 Si pz               113     -2.589714  5 H  s          
    21     -2.522621  1 Si pz                24      2.531477  1 Si py         
    75      2.112073  3 H  s                 57     -1.900144  2 H  s          
    20     -1.483389  1 Si py                56      0.848685  2 H  s          
 
 Vector   19  Occ=0.000000D+00  E= 1.042188D-01  Symmetry=t2
              MO Center= -2.0D-03,  6.8D-03, -2.2D-01, r^2= 1.6D+01
   Bfn.  Coefficient  Atom+Function         Bfn.  Coefficient  Atom+Function  
  ----- ------------  ---------------      ----- ------------  ---------------
    23      4.842483  1 Si px                57     -4.843734  2 H  s          
    76      4.775153  3 H  s                 19     -2.837588  1 Si px         
   114      2.681436  5 H  s                 95     -2.612855  4 H  s          
    56      2.163417  2 H  s                 75     -2.132786  3 H  s          
    24     -1.404247  1 Si py               113     -1.197643  5 H  s          
 
 Vector   20  Occ=0.000000D+00  E= 1.131606D-01  Symmetry=e
              MO Center= -6.2D-14,  1.9D-15, -6.1D-15, r^2= 3.8D+00
   Bfn.  Coefficient  Atom+Function         Bfn.  Coefficient  Atom+Function  
  ----- ------------  ---------------      ----- ------------  ---------------
    38      0.892364  1 Si dxx               41     -0.480994  1 Si dyy        
    43     -0.411370  1 Si dzz               32      0.149037  1 Si dxx        
    35     -0.080332  1 Si dyy               37     -0.068704  1 Si dzz        
    26      0.040751  1 Si dxx        
 
 Vector   21  Occ=0.000000D+00  E= 1.131606D-01  Symmetry=e
              MO Center= -2.9D-17, -5.6D-15, -3.9D-15, r^2= 3.8D+00
   Bfn.  Coefficient  Atom+Function         Bfn.  Coefficient  Atom+Function  
  ----- ------------  ---------------      ----- ------------  ---------------
    43     -0.792909  1 Si dzz               41      0.752712  1 Si dyy        
    37     -0.132426  1 Si dzz               35      0.125713  1 Si dyy        
    38      0.040197  1 Si dxx               31     -0.036209  1 Si dzz        
    29      0.034374  1 Si dyy        
 
 Vector   22  Occ=0.000000D+00  E= 1.144146D-01  Symmetry=a1
              MO Center= -2.8D-12,  1.7D-12, -4.4D-13, r^2= 1.8D+01
   Bfn.  Coefficient  Atom+Function         Bfn.  Coefficient  Atom+Function  
  ----- ------------  ---------------      ----- ------------  ---------------
    22     24.205172  1 Si s                 57     -6.524381  2 H  s          
    76     -6.524381  3 H  s                 95     -6.524381  4 H  s          
   114     -6.524381  5 H  s                  6     -3.743874  1 Si s          
    56      1.245339  2 H  s                 75      1.245339  3 H  s          
    94      1.245339  4 H  s                113      1.245339  5 H  s          
 
 Vector   23  Occ=0.000000D+00  E= 1.259238D-01  Symmetry=a1
              MO Center= -1.6D-12,  3.2D-13, -8.8D-14, r^2= 9.5D+00
   Bfn.  Coefficient  Atom+Function         Bfn.  Coefficient  Atom+Function  
  ----- ------------  ---------------      ----- ------------  ---------------
    22     16.057485  1 Si s                  6      3.923484  1 Si s          
    57     -3.613738  2 H  s                 76     -3.613738  3 H  s          
    95     -3.613738  4 H  s                114     -3.613738  5 H  s          
    56     -1.786193  2 H  s                 75     -1.786193  3 H  s          
    94     -1.786193  4 H  s                113     -1.786193  5 H  s          
 
 Vector   24  Occ=0.000000D+00  E= 2.308659D-01  Symmetry=t2
              MO Center= -2.2D-02,  1.1D-01,  9.5D-02, r^2= 1.2D+01
   Bfn.  Coefficient  Atom+Function         Bfn.  Coefficient  Atom+Function  
  ----- ------------  ---------------      ----- ------------  ---------------
    16      5.446682  1 Si px                19     -3.347266  1 Si px         
    44     -1.754045  1 Si fxxx              47     -1.759464  1 Si fxyy       
    49     -1.759464  1 Si fxzz              23      1.604776  1 Si px         
    18     -1.244922  1 Si pz                13     -1.099072  1 Si px         
    17     -1.025372  1 Si py                21      0.765069  1 Si pz         
 
 Vector   25  Occ=0.000000D+00  E= 2.308659D-01  Symmetry=t2
              MO Center=  2.7D-01, -7.2D-03,  7.6D-03, r^2= 1.2D+01
   Bfn.  Coefficient  Atom+Function         Bfn.  Coefficient  Atom+Function  
  ----- ------------  ---------------      ----- ------------  ---------------
    17      4.140905  1 Si py                18     -3.886980  1 Si pz         
    20     -2.544800  1 Si py                21      2.388749  1 Si pz         
    45     -1.337654  1 Si fxxy              50     -1.333534  1 Si fyyy       
    52     -1.337654  1 Si fyzz              46      1.255627  1 Si fxxz       
    51      1.255627  1 Si fyyz              53      1.251760  1 Si fzzz       
 
 Vector   26  Occ=0.000000D+00  E= 2.308659D-01  Symmetry=t2
              MO Center= -2.5D-01, -1.1D-01, -1.0D-01, r^2= 1.2D+01
   Bfn.  Coefficient  Atom+Function         Bfn.  Coefficient  Atom+Function  
  ----- ------------  ---------------      ----- ------------  ---------------
    18      3.950838  1 Si pz                17      3.750877  1 Si py         
    21     -2.427993  1 Si pz                20     -2.305107  1 Si py         
    16      1.609150  1 Si px                46     -1.276256  1 Si fxxz       
    51     -1.276256  1 Si fyyz              53     -1.272325  1 Si fzzz       
    45     -1.211661  1 Si fxxy              50     -1.207929  1 Si fyyy       
 
 Vector   27  Occ=0.000000D+00  E= 3.007427D-01  Symmetry=t2
              MO Center=  1.4D-01, -1.6D-01,  2.0D-01, r^2= 8.7D+00
   Bfn.  Coefficient  Atom+Function         Bfn.  Coefficient  Atom+Function  
  ----- ------------  ---------------      ----- ------------  ---------------
    56      9.885522  2 H  s                 19     -4.934533  1 Si px         
    75     -4.513156  3 H  s                 20      4.351643  1 Si py         
    57     -4.157024  2 H  s                 42      3.878491  1 Si dyz        
    21     -3.464813  1 Si pz                40     -3.420345  1 Si dxz        
   113     -3.138083  5 H  s                 39      2.723307  1 Si dxy        
 
 Vector   28  Occ=0.000000D+00  E= 3.007427D-01  Symmetry=t2
              MO Center= -2.4D-01,  3.6D-02,  2.4D-02, r^2= 8.8D+00
   Bfn.  Coefficient  Atom+Function         Bfn.  Coefficient  Atom+Function  
  ----- ------------  ---------------      ----- ------------  ---------------
    75      8.464106  3 H  s                113     -7.499042  5 H  s          
    21     -6.124526  1 Si pz                39      4.813813  1 Si dxy        
    20     -4.170627  1 Si py                76     -3.559295  3 H  s          
    40      3.278069  1 Si dxz              114      3.153470  5 H  s          
    18     -3.078576  1 Si pz                25      2.849966  1 Si pz         
 
 Vector   29  Occ=0.000000D+00  E= 3.007427D-01  Symmetry=t2
              MO Center=  9.9D-02,  1.3D-01, -2.3D-01, r^2= 8.8D+00
   Bfn.  Coefficient  Atom+Function         Bfn.  Coefficient  Atom+Function  
  ----- ------------  ---------------      ----- ------------  ---------------
    94      9.524567  4 H  s                113     -5.797894  5 H  s          
    19     -5.527598  1 Si px                20     -4.354356  1 Si py         
    42      4.344634  1 Si dyz               95     -4.005237  4 H  s          
    40      3.422478  1 Si dxz               16     -2.778522  1 Si px         
    75     -2.772922  3 H  s                 23      2.572193  1 Si px         
 
 Vector   30  Occ=0.000000D+00  E= 3.340881D-01  Symmetry=a1
              MO Center= -2.8D-13,  1.0D-13, -2.6D-13, r^2= 8.7D+00
   Bfn.  Coefficient  Atom+Function         Bfn.  Coefficient  Atom+Function  
  ----- ------------  ---------------      ----- ------------  ---------------
    22     15.978837  1 Si s                  6     10.679945  1 Si s          
    57     -3.391885  2 H  s                 76     -3.391885  3 H  s          
    95     -3.391885  4 H  s                114     -3.391885  5 H  s          
    38     -2.591434  1 Si dxx               41     -2.591434  1 Si dyy        
    43     -2.591434  1 Si dzz               56     -2.342329  2 H  s          
 
 Vector   31  Occ=0.000000D+00  E= 3.757866D-01  Symmetry=t1
              MO Center= -2.8D-02, -3.5D-02,  4.2D-01, r^2= 4.7D+00
   Bfn.  Coefficient  Atom+Function         Bfn.  Coefficient  Atom+Function  
  ----- ------------  ---------------      ----- ------------  ---------------
    66      0.674618  2 H  pz                85     -0.674618  3 H  pz         
    65      0.400766  2 H  py               122     -0.400766  5 H  py         
    84      0.351464  3 H  py               103     -0.351464  4 H  py         
    83     -0.323154  3 H  px               121      0.323154  5 H  px         
    64     -0.273851  2 H  px               102      0.273851  4 H  px         
 
 Vector   32  Occ=0.000000D+00  E= 3.757866D-01  Symmetry=t1
              MO Center=  2.5D-01, -1.9D-01, -3.6D-01, r^2= 4.7D+00
   Bfn.  Coefficient  Atom+Function         Bfn.  Coefficient  Atom+Function  
  ----- ------------  ---------------      ----- ------------  ---------------
   104      0.620432  4 H  pz               123     -0.620432  5 H  pz         
    64     -0.540068  2 H  px               102      0.540068  4 H  px         
    65     -0.454999  2 H  py               122      0.454999  5 H  py         
    83     -0.165433  3 H  px               121      0.165433  5 H  px         
    66      0.085068  2 H  pz                85     -0.085068  3 H  pz         
 
 Vector   33  Occ=0.000000D+00  E= 3.757866D-01  Symmetry=t1
              MO Center= -2.2D-01,  2.2D-01, -6.7D-02, r^2= 4.8D+00
   Bfn.  Coefficient  Atom+Function         Bfn.  Coefficient  Atom+Function  
  ----- ------------  ---------------      ----- ------------  ---------------
    83      0.574936  3 H  px                84      0.576509  3 H  py         
   103     -0.576509  4 H  py               121     -0.574936  5 H  px         
    64     -0.309323  2 H  px               102      0.309323  4 H  px         
    65     -0.307750  2 H  py               122      0.307750  5 H  py         
   104     -0.267186  4 H  pz               123      0.267186  5 H  pz         
 
 Vector   34  Occ=0.000000D+00  E= 3.987763D-01  Symmetry=a1
              MO Center=  5.7D-14, -1.1D-12, -7.7D-13, r^2= 1.0D+01
   Bfn.  Coefficient  Atom+Function         Bfn.  Coefficient  Atom+Function  
  ----- ------------  ---------------      ----- ------------  ---------------
    22     16.449195  1 Si s                  6     -8.916488  1 Si s          
    56      4.645822  2 H  s                 75      4.645822  3 H  s          
    94      4.645822  4 H  s                113      4.645822  5 H  s          
    57     -4.450011  2 H  s                 76     -4.450011  3 H  s          
    95     -4.450011  4 H  s                114     -4.450011  5 H  s          
 
 Vector   35  Occ=0.000000D+00  E= 4.355061D-01  Symmetry=t2
              MO Center=  1.7D-01,  7.4D-02,  3.6D-02, r^2= 7.0D+00
   Bfn.  Coefficient  Atom+Function         Bfn.  Coefficient  Atom+Function  
  ----- ------------  ---------------      ----- ------------  ---------------
   114      3.074218  5 H  s                113     -2.512602  5 H  s          
    21     -2.326332  1 Si pz                76     -2.300552  3 H  s          
    25      2.280449  1 Si pz                39     -2.090783  1 Si dxy        
    75      1.880273  3 H  s                112      1.649423  5 H  s          
    57     -1.329335  2 H  s                 74     -1.234324  3 H  s          
 
 Vector   36  Occ=0.000000D+00  E= 4.355061D-01  Symmetry=t2
              MO Center= -3.0D-03, -9.7D-02,  1.3D-02, r^2= 7.0D+00
   Bfn.  Coefficient  Atom+Function         Bfn.  Coefficient  Atom+Function  
  ----- ------------  ---------------      ----- ------------  ---------------
    19      2.561460  1 Si px                23     -2.510940  1 Si px         
    95      2.515427  4 H  s                 76     -2.392361  3 H  s          
    42      2.302103  1 Si dyz               94     -2.055894  4 H  s          
    75      1.955310  3 H  s                114     -1.604406  5 H  s          
    57      1.481341  2 H  s                 93      1.349612  4 H  s          
 
 Vector   37  Occ=0.000000D+00  E= 4.355061D-01  Symmetry=t2
              MO Center= -1.6D-01,  2.2D-02, -4.9D-02, r^2= 7.0D+00
   Bfn.  Coefficient  Atom+Function         Bfn.  Coefficient  Atom+Function  
  ----- ------------  ---------------      ----- ------------  ---------------
    57      2.941588  2 H  s                 95     -2.445056  4 H  s          
    56     -2.404201  2 H  s                 20     -2.377277  1 Si py         
    24      2.330390  1 Si py                40     -2.136570  1 Si dxz        
    94      1.998379  4 H  s                 55      1.578262  2 H  s          
    93     -1.311856  4 H  s                 76     -1.264322  3 H  s          
 
 Vector   38  Occ=0.000000D+00  E= 5.536106D-01  Symmetry=t2
              MO Center= -1.2D-02,  1.3D-02,  1.6D-01, r^2= 5.7D+00
   Bfn.  Coefficient  Atom+Function         Bfn.  Coefficient  Atom+Function  
  ----- ------------  ---------------      ----- ------------  ---------------
    75     -1.942033  3 H  s                 56      1.795170  2 H  s          
    16     -1.445475  1 Si px                17      1.331499  1 Si py         
    76      0.877186  3 H  s                 19      0.826025  1 Si px         
    57     -0.810850  2 H  s                 42      0.793980  1 Si dyz        
    74      0.785191  3 H  s                 20     -0.760893  1 Si py         
 
 Vector   39  Occ=0.000000D+00  E= 5.536106D-01  Symmetry=t2
              MO Center= -1.1D-01, -1.1D-01, -9.6D-02, r^2= 5.7D+00
   Bfn.  Coefficient  Atom+Function         Bfn.  Coefficient  Atom+Function  
  ----- ------------  ---------------      ----- ------------  ---------------
   113      2.290297  5 H  s                 18      1.225925  1 Si pz         
    16      1.092356  1 Si px                17      1.085386  1 Si py         
   114     -1.034492  5 H  s                112     -0.926000  5 H  s          
    56     -0.829604  2 H  s                 75     -0.820224  3 H  s          
    21     -0.700562  1 Si pz                39     -0.673384  1 Si dxy        
 
 Vector   40  Occ=0.000000D+00  E= 5.536106D-01  Symmetry=t2
              MO Center=  1.2D-01,  9.6D-02, -6.0D-02, r^2= 5.7D+00
   Bfn.  Coefficient  Atom+Function         Bfn.  Coefficient  Atom+Function  
  ----- ------------  ---------------      ----- ------------  ---------------
    94      2.197673  4 H  s                 18      1.536032  1 Si pz         
    56     -1.162595  2 H  s                 95     -0.992655  4 H  s          
    17     -0.960856  1 Si py                75     -0.904570  3 H  s          
    93     -0.888550  4 H  s                 21     -0.877775  1 Si pz         
    39     -0.843722  1 Si dxy              104      0.796238  4 H  pz         
 
 Vector   41  Occ=0.000000D+00  E= 6.027786D-01  Symmetry=e
              MO Center= -4.6D-15, -2.5D-14,  7.7D-15, r^2= 5.4D+00
   Bfn.  Coefficient  Atom+Function         Bfn.  Coefficient  Atom+Function  
  ----- ------------  ---------------      ----- ------------  ---------------
    41      3.001834  1 Si dyy               38     -2.416202  1 Si dxx        
    65      1.101282  2 H  py                84     -1.101282  3 H  py         
   103     -1.101282  4 H  py               122      1.101282  5 H  py         
    64      0.886431  2 H  px                83     -0.886431  3 H  px         
   102      0.886431  4 H  px               121     -0.886431  5 H  px         
 
 Vector   42  Occ=0.000000D+00  E= 6.027786D-01  Symmetry=e
              MO Center= -3.3D-15, -2.0D-14,  4.5D-15, r^2= 5.4D+00
   Bfn.  Coefficient  Atom+Function         Bfn.  Coefficient  Atom+Function  
  ----- ------------  ---------------      ----- ------------  ---------------
    43      3.128104  1 Si dzz               38     -2.071225  1 Si dxx        
    66     -1.147606  2 H  pz                85     -1.147606  3 H  pz         
   104      1.147606  4 H  pz               123      1.147606  5 H  pz         
    41     -1.056880  1 Si dyy               64      0.759869  2 H  px         
    83     -0.759869  3 H  px               102      0.759869  4 H  px         
 
 Vector   43  Occ=0.000000D+00  E= 6.917007D-01  Symmetry=t2
              MO Center= -2.0D-01, -8.9D-03, -2.4D-03, r^2= 6.4D+00
   Bfn.  Coefficient  Atom+Function         Bfn.  Coefficient  Atom+Function  
  ----- ------------  ---------------      ----- ------------  ---------------
    18     16.130594  1 Si pz               113      8.369904  5 H  s          
    75     -8.211829  3 H  s                 39     -5.353702  1 Si dxy        
    21      5.149297  1 Si pz                53     -4.891808  1 Si fzzz       
    56     -4.902869  2 H  s                 94      4.744794  4 H  s          
    46     -4.378873  1 Si fxxz              51     -4.378873  1 Si fyyz       
 
 Vector   44  Occ=0.000000D+00  E= 6.917007D-01  Symmetry=t2
              MO Center=  1.9D-01,  3.6D-02, -1.3D-01, r^2= 6.4D+00
   Bfn.  Coefficient  Atom+Function         Bfn.  Coefficient  Atom+Function  
  ----- ------------  ---------------      ----- ------------  ---------------
    17     15.865086  1 Si py                94     -9.376588  4 H  s          
    56      6.961323  2 H  s                113      5.937508  5 H  s          
    40     -5.265581  1 Si dxz               20      5.064541  1 Si py         
    50     -4.811289  1 Si fyyy              45     -4.306797  1 Si fxxy       
    52     -4.306797  1 Si fyzz              18     -4.229940  1 Si pz         
 
 Vector   45  Occ=0.000000D+00  E= 6.917007D-01  Symmetry=t2
              MO Center=  4.8D-03, -2.7D-02,  1.4D-01, r^2= 6.4D+00
   Bfn.  Coefficient  Atom+Function         Bfn.  Coefficient  Atom+Function  
  ----- ------------  ---------------      ----- ------------  ---------------
    16     16.418146  1 Si px                56     -8.095204  2 H  s          
    75      7.628246  3 H  s                113      5.720242  5 H  s          
    42     -5.449140  1 Si dyz               19      5.241092  1 Si px         
    94     -5.253284  4 H  s                 44     -4.979012  1 Si fxxx       
    47     -4.456933  1 Si fxyy              49     -4.456933  1 Si fxzz       
 
 Vector   46  Occ=0.000000D+00  E= 7.444912D-01  Symmetry=a1
              MO Center=  2.7D-13,  1.6D-14, -8.5D-15, r^2= 7.1D+00
   Bfn.  Coefficient  Atom+Function         Bfn.  Coefficient  Atom+Function  
  ----- ------------  ---------------      ----- ------------  ---------------
     6     28.818945  1 Si s                 56     -5.231261  2 H  s          
    75     -5.231261  3 H  s                 94     -5.231261  4 H  s          
   113     -5.231261  5 H  s                  5     -3.660461  1 Si s          
    38     -2.981014  1 Si dxx               41     -2.981014  1 Si dyy        
    43     -2.981014  1 Si dzz               22      2.573370  1 Si s          
 
 Vector   47  Occ=0.000000D+00  E= 7.494222D-01  Symmetry=t2
              MO Center= -3.2D-02,  1.5D-02, -5.4D-02, r^2= 6.0D+00
   Bfn.  Coefficient  Atom+Function         Bfn.  Coefficient  Atom+Function  
  ----- ------------  ---------------      ----- ------------  ---------------
    17      7.345325  1 Si py                56     -5.391454  2 H  s          
    20     -5.279902  1 Si py                45     -3.962518  1 Si fxxy       
    52     -3.962518  1 Si fyzz              50     -3.681511  1 Si fyyy       
    75      3.661756  3 H  s                 16     -3.607477  1 Si px         
    14     -2.939920  1 Si py                19      2.593095  1 Si px         
 
 Vector   48  Occ=0.000000D+00  E= 7.494222D-01  Symmetry=t2
              MO Center= -1.2D-02, -7.2D-02,  1.0D-02, r^2= 6.0D+00
   Bfn.  Coefficient  Atom+Function         Bfn.  Coefficient  Atom+Function  
  ----- ------------  ---------------      ----- ------------  ---------------
    18      6.357069  1 Si pz                16     -5.490911  1 Si px         
    94     -5.262588  4 H  s                 21     -4.569533  1 Si pz         
    75      4.530546  3 H  s                 19      3.946929  1 Si px         
    46     -3.429392  1 Si fxxz              51     -3.429392  1 Si fyyz       
    53     -3.186192  1 Si fzzz              47      2.962134  1 Si fxyy       
 
 Vector   49  Occ=0.000000D+00  E= 7.494222D-01  Symmetry=t2
              MO Center=  4.3D-02,  5.6D-02,  4.4D-02, r^2= 6.0D+00
   Bfn.  Coefficient  Atom+Function         Bfn.  Coefficient  Atom+Function  
  ----- ------------  ---------------      ----- ------------  ---------------
   113      6.008019  5 H  s                 16     -5.308747  1 Si px         
    18     -5.153189  1 Si pz                17     -4.075370  1 Si py         
    19      3.815987  1 Si px                21      3.704171  1 Si pz         
    20      2.929422  1 Si py                47      2.863863  1 Si fxyy       
    49      2.863863  1 Si fxzz              46      2.779946  1 Si fxxz       
 
 Vector   50  Occ=0.000000D+00  E= 7.815530D-01  Symmetry=e
              MO Center= -1.4D-14, -2.8D-15, -7.2D-16, r^2= 2.8D+00
   Bfn.  Coefficient  Atom+Function         Bfn.  Coefficient  Atom+Function  
  ----- ------------  ---------------      ----- ------------  ---------------
    38      1.119778  1 Si dxx               41     -1.089980  1 Si dyy        
    32      0.814369  1 Si dxx               35     -0.792698  1 Si dyy        
    64     -0.674785  2 H  px                83      0.674785  3 H  px         
   102     -0.674785  4 H  px               121      0.674785  5 H  px         
    65     -0.656828  2 H  py                84      0.656828  3 H  py         
 
 Vector   51  Occ=0.000000D+00  E= 7.815530D-01  Symmetry=e
              MO Center=  3.2D-15, -7.3D-15,  2.9D-15, r^2= 2.8D+00
   Bfn.  Coefficient  Atom+Function         Bfn.  Coefficient  Atom+Function  
  ----- ------------  ---------------      ----- ------------  ---------------
    43      1.275804  1 Si dzz               37      0.927840  1 Si dzz        
    66     -0.768807  2 H  pz                85     -0.768807  3 H  pz         
   104      0.768807  4 H  pz               123      0.768807  5 H  pz         
    41     -0.663708  1 Si dyy               38     -0.612096  1 Si dxx        
    35     -0.482688  1 Si dyy               32     -0.445152  1 Si dxx        
 
 Vector   52  Occ=0.000000D+00  E= 9.886352D-01  Symmetry=a1
              MO Center= -7.6D-15,  6.7D-14,  2.4D-16, r^2= 5.3D+00
   Bfn.  Coefficient  Atom+Function         Bfn.  Coefficient  Atom+Function  
  ----- ------------  ---------------      ----- ------------  ---------------
    22     14.130141  1 Si s                  6      9.428304  1 Si s          
     5     -7.496506  1 Si s                 38     -5.686794  1 Si dxx        
    41     -5.686794  1 Si dyy               43     -5.686794  1 Si dzz        
    57     -3.425903  2 H  s                 76     -3.425903  3 H  s          
    95     -3.425903  4 H  s                114     -3.425903  5 H  s          
 
 Vector   53  Occ=0.000000D+00  E= 1.058991D+00  Symmetry=t2
              MO Center=  1.5D-01, -1.4D-02,  5.4D-02, r^2= 3.9D+00
   Bfn.  Coefficient  Atom+Function         Bfn.  Coefficient  Atom+Function  
  ----- ------------  ---------------      ----- ------------  ---------------
    17      9.217891  1 Si py                56      4.708758  2 H  s          
    94     -4.072703  4 H  s                 45     -3.677201  1 Si fxxy       
    52     -3.677201  1 Si fyzz              75     -2.916744  3 H  s          
    18     -2.363360  1 Si pz               113      2.280690  5 H  s          
    20      2.137674  1 Si py                14     -1.784091  1 Si py         
 
 Vector   54  Occ=0.000000D+00  E= 1.058991D+00  Symmetry=t2
              MO Center= -8.5D-02, -2.9D-01, -1.1D-01, r^2= 3.9D+00
   Bfn.  Coefficient  Atom+Function         Bfn.  Coefficient  Atom+Function  
  ----- ------------  ---------------      ----- ------------  ---------------
    16      7.360193  1 Si px               113      5.761489  5 H  s          
    18      5.704333  1 Si pz                56     -4.144663  2 H  s          
    47     -2.936129  1 Si fxyy              49     -2.936129  1 Si fxzz       
    46     -2.275573  1 Si fxxz              51     -2.275573  1 Si fyyz       
    17      2.132318  1 Si py                19      1.706865  1 Si px         
 
 Vector   55  Occ=0.000000D+00  E= 1.058991D+00  Symmetry=t2
              MO Center= -6.7D-02,  3.1D-01,  5.6D-02, r^2= 3.9D+00
   Bfn.  Coefficient  Atom+Function         Bfn.  Coefficient  Atom+Function  
  ----- ------------  ---------------      ----- ------------  ---------------
    18      7.289291  1 Si pz                16     -6.031794  1 Si px         
    75     -5.550780  3 H  s                 94      4.549905  4 H  s          
    46     -2.907844  1 Si fxxz              51     -2.907844  1 Si fyyz       
    47      2.406203  1 Si fxyy              49      2.406203  1 Si fxzz       
    84      1.704476  3 H  py                21      1.690422  1 Si pz         
 
 Vector   56  Occ=0.000000D+00  E= 1.111743D+00  Symmetry=t1
              MO Center= -3.9D-03, -3.4D-02,  2.2D-02, r^2= 2.8D+00
   Bfn.  Coefficient  Atom+Function         Bfn.  Coefficient  Atom+Function  
  ----- ------------  ---------------      ----- ------------  ---------------
    47      2.315304  1 Si fxyy              49     -2.315304  1 Si fxzz       
    65      0.443648  2 H  py               122     -0.443648  5 H  py         
    46     -0.421152  1 Si fxxz              51      0.421152  1 Si fyyz       
    66      0.419345  2 H  pz                85     -0.419345  3 H  pz         
   104     -0.331392  4 H  pz               123      0.331392  5 H  pz         
 
 Vector   57  Occ=0.000000D+00  E= 1.111743D+00  Symmetry=t1
              MO Center=  8.5D-02,  1.5D-02,  9.4D-03, r^2= 2.8D+00
   Bfn.  Coefficient  Atom+Function         Bfn.  Coefficient  Atom+Function  
  ----- ------------  ---------------      ----- ------------  ---------------
    46      2.012689  1 Si fxxz              51     -2.012689  1 Si fyyz       
    45     -1.229367  1 Si fxxy              52      1.229367  1 Si fyzz       
    64     -0.525618  2 H  px               102      0.525618  4 H  px         
    84      0.362312  3 H  py               103     -0.362312  4 H  py         
    65     -0.290302  2 H  py               122      0.290302  5 H  py         
 
 Vector   58  Occ=0.000000D+00  E= 1.111743D+00  Symmetry=t1
              MO Center= -8.1D-02,  1.8D-02, -3.1D-02, r^2= 2.8D+00
   Bfn.  Coefficient  Atom+Function         Bfn.  Coefficient  Atom+Function  
  ----- ------------  ---------------      ----- ------------  ---------------
    45      2.006654  1 Si fxxy              52     -2.006654  1 Si fyzz       
    46      1.176135  1 Si fxxz              51     -1.176135  1 Si fyyz       
    83      0.516009  3 H  px               121     -0.516009  5 H  px         
    47      0.449029  1 Si fxyy              49     -0.449029  1 Si fxzz       
   104     -0.398127  4 H  pz               123      0.398127  5 H  pz         
 
 Vector   59  Occ=0.000000D+00  E= 1.309502D+00  Symmetry=t2
              MO Center=  5.6D-02,  5.7D-02, -1.8D-02, r^2= 3.3D+00
   Bfn.  Coefficient  Atom+Function         Bfn.  Coefficient  Atom+Function  
  ----- ------------  ---------------      ----- ------------  ---------------
    18     10.510458  1 Si pz                94      5.929400  4 H  s          
    39     -4.400571  1 Si dxy               53     -3.808188  1 Si fzzz       
    75     -3.621888  3 H  s                 56     -3.586055  2 H  s          
    16     -3.417012  1 Si px                17     -3.364761  1 Si py         
    93      2.258354  4 H  s                 15     -2.124534  1 Si pz         
 
 Vector   60  Occ=0.000000D+00  E= 1.309502D+00  Symmetry=t2
              MO Center= -2.9D-03, -6.4D-02, -8.6D-03, r^2= 3.3D+00
   Bfn.  Coefficient  Atom+Function         Bfn.  Coefficient  Atom+Function  
  ----- ------------  ---------------      ----- ------------  ---------------
    16     10.928330  1 Si px               113      5.192257  5 H  s          
    56     -4.848740  2 H  s                 42     -4.575528  1 Si dyz        
    44     -3.959593  1 Si fxxx              18      3.713222  1 Si pz         
    94     -2.645774  4 H  s                 75      2.302258  3 H  s          
    13     -2.209000  1 Si px                19      2.076055  1 Si px         
 
 Vector   61  Occ=0.000000D+00  E= 1.309502D+00  Symmetry=t2
              MO Center= -5.3D-02,  7.3D-03,  2.7D-02, r^2= 3.3D+00
   Bfn.  Coefficient  Atom+Function         Bfn.  Coefficient  Atom+Function  
  ----- ------------  ---------------      ----- ------------  ---------------
    17     11.040597  1 Si py                75     -5.353436  3 H  s          
    40     -4.622533  1 Si dxz              113      4.299249  5 H  s          
    50     -4.000270  1 Si fyyy              56      3.272258  2 H  s          
    18      3.034727  1 Si pz                14     -2.231693  1 Si py         
    94     -2.218070  4 H  s                 20      2.097382  1 Si py         
 
 Vector   62  Occ=0.000000D+00  E= 1.524007D+00  Symmetry=a1
              MO Center= -8.2D-14,  9.3D-14, -3.9D-15, r^2= 3.3D+00
   Bfn.  Coefficient  Atom+Function         Bfn.  Coefficient  Atom+Function  
  ----- ------------  ---------------      ----- ------------  ---------------
     6     28.527032  1 Si s                 48    -10.105479  1 Si fxyz       
     5     -7.305824  1 Si s                 38     -3.761222  1 Si dxx        
    41     -3.761222  1 Si dyy               43     -3.761222  1 Si dzz        
    56     -3.284587  2 H  s                 75     -3.284587  3 H  s          
    94     -3.284587  4 H  s                113     -3.284587  5 H  s          
 
 Vector   63  Occ=0.000000D+00  E= 1.739488D+00  Symmetry=t2
              MO Center= -6.6D-03,  3.5D-03, -2.4D-02, r^2= 3.3D+00
   Bfn.  Coefficient  Atom+Function         Bfn.  Coefficient  Atom+Function  
  ----- ------------  ---------------      ----- ------------  ---------------
    45     -3.782132  1 Si fxxy              52     -3.782132  1 Si fyzz       
    17      3.466001  1 Si py                50     -3.289370  1 Si fyyy       
    20     -3.020711  1 Si py                56     -2.849008  2 H  s          
    55     -2.605145  2 H  s                 75      2.347328  3 H  s          
    74      2.146407  3 H  s                 47      2.017170  1 Si fxyy       
 
 Vector   64  Occ=0.000000D+00  E= 1.739488D+00  Symmetry=t2
              MO Center=  1.6D-02,  2.4D-02,  1.6D-02, r^2= 3.3D+00
   Bfn.  Coefficient  Atom+Function         Bfn.  Coefficient  Atom+Function  
  ----- ------------  ---------------      ----- ------------  ---------------
   113      3.308170  5 H  s                112      3.025004  5 H  s          
    46      2.751199  1 Si fxxz              47      2.755811  1 Si fxyy       
    49      2.755811  1 Si fxzz              51      2.751199  1 Si fyyz       
    16     -2.525466  1 Si px                18     -2.521240  1 Si pz         
    44      2.396766  1 Si fxxx              53      2.392755  1 Si fzzz       
 
 Vector   65  Occ=0.000000D+00  E= 1.739488D+00  Symmetry=t2
              MO Center= -9.5D-03, -2.7D-02,  7.7D-03, r^2= 3.3D+00
   Bfn.  Coefficient  Atom+Function         Bfn.  Coefficient  Atom+Function  
  ----- ------------  ---------------      ----- ------------  ---------------
    46     -3.287004  1 Si fxxz              51     -3.287004  1 Si fyyz       
    94     -3.075193  4 H  s                 18      3.012259  1 Si pz         
    53     -2.858751  1 Si fzzz              93     -2.811969  4 H  s          
    47      2.650190  1 Si fxyy              49      2.650190  1 Si fxzz       
    21     -2.625263  1 Si pz                16     -2.428673  1 Si px         
 
 Vector   66  Occ=0.000000D+00  E= 1.943569D+00  Symmetry=a1
              MO Center= -6.5D-14, -1.7D-14,  5.5D-14, r^2= 3.6D+00
   Bfn.  Coefficient  Atom+Function         Bfn.  Coefficient  Atom+Function  
  ----- ------------  ---------------      ----- ------------  ---------------
     6     13.233210  1 Si s                 55     -2.471561  2 H  s          
    74     -2.471561  3 H  s                 93     -2.471561  4 H  s          
   112     -2.471561  5 H  s                  5     -1.867631  1 Si s          
    56     -1.664717  2 H  s                 75     -1.664717  3 H  s          
    94     -1.664717  4 H  s                113     -1.664717  5 H  s          
 
 Vector   67  Occ=0.000000D+00  E= 1.969415D+00  Symmetry=t2
              MO Center= -1.2D-01,  1.7D-01, -4.6D-02, r^2= 3.2D+00
   Bfn.  Coefficient  Atom+Function         Bfn.  Coefficient  Atom+Function  
  ----- ------------  ---------------      ----- ------------  ---------------
    18      9.216559  1 Si pz                53     -4.184763  1 Si fzzz       
    46     -3.625650  1 Si fxxz              51     -3.625650  1 Si fyyz       
    16      3.516216  1 Si px                17     -2.506733  1 Si py         
    56     -2.368380  2 H  s                 15     -1.921268  1 Si pz         
    44     -1.596532  1 Si fxxx             113      1.589235  5 H  s          
 
 Vector   68  Occ=0.000000D+00  E= 1.969415D+00  Symmetry=t2
              MO Center=  7.5D-02, -1.9D-01, -1.5D-01, r^2= 3.1D+00
   Bfn.  Coefficient  Atom+Function         Bfn.  Coefficient  Atom+Function  
  ----- ------------  ---------------      ----- ------------  ---------------
    16      8.633763  1 Si px                18     -4.209419  1 Si pz         
    44     -3.920146  1 Si fxxx              47     -3.396387  1 Si fxyy       
    49     -3.396387  1 Si fxzz              17     -3.366209  1 Si py         
    75      2.519111  3 H  s                 53      1.911280  1 Si fzzz       
    13     -1.799779  1 Si px                46      1.655920  1 Si fxxz       
 
 Vector   69  Occ=0.000000D+00  E= 1.969415D+00  Symmetry=t2
              MO Center=  4.7D-02,  2.1D-02,  2.0D-01, r^2= 3.2D+00
   Bfn.  Coefficient  Atom+Function         Bfn.  Coefficient  Atom+Function  
  ----- ------------  ---------------      ----- ------------  ---------------
    17      9.272398  1 Si py                50     -4.210117  1 Si fyyy       
    16      4.084948  1 Si px                45     -3.647616  1 Si fxxy       
    52     -3.647616  1 Si fyzz             113      2.225606  5 H  s          
    14     -1.932908  1 Si py                94     -1.926140  4 H  s          
    44     -1.854764  1 Si fxxx              47     -1.606955  1 Si fxyy       
 
 Vector   70  Occ=0.000000D+00  E= 1.990213D+00  Symmetry=t1
              MO Center= -1.9D-01, -2.0D-01,  8.3D-02, r^2= 2.9D+00
   Bfn.  Coefficient  Atom+Function         Bfn.  Coefficient  Atom+Function  
  ----- ------------  ---------------      ----- ------------  ---------------
    46      1.193846  1 Si fxxz              51     -1.193846  1 Si fyyz       
    62     -0.626677  2 H  py               119      0.626677  5 H  py         
    80      0.612321  3 H  px               118     -0.612321  5 H  px         
    47     -0.529208  1 Si fxyy              49      0.529208  1 Si fxzz       
    45      0.489738  1 Si fxxy              52     -0.489738  1 Si fyzz       
 
 Vector   71  Occ=0.000000D+00  E= 1.990213D+00  Symmetry=t1
              MO Center=  2.3D-01,  1.3D-02,  3.1D-02, r^2= 2.9D+00
   Bfn.  Coefficient  Atom+Function         Bfn.  Coefficient  Atom+Function  
  ----- ------------  ---------------      ----- ------------  ---------------
    45      1.276430  1 Si fxxy              52     -1.276430  1 Si fyzz       
    61      0.666815  2 H  px                99     -0.666815  4 H  px         
    46     -0.556985  1 Si fxxz              51      0.556985  1 Si fyyz       
    63     -0.491618  2 H  pz                82      0.491618  3 H  pz         
   101     -0.436860  4 H  pz               120      0.436860  5 H  pz         
 
 Vector   72  Occ=0.000000D+00  E= 1.990213D+00  Symmetry=t1
              MO Center= -4.1D-02,  1.9D-01, -1.1D-01, r^2= 2.9D+00
   Bfn.  Coefficient  Atom+Function         Bfn.  Coefficient  Atom+Function  
  ----- ------------  ---------------      ----- ------------  ---------------
    47      1.288194  1 Si fxyy              49     -1.288194  1 Si fxzz       
    81      0.635056  3 H  py               100     -0.635056  4 H  py         
   101     -0.568820  4 H  pz               120      0.568820  5 H  pz         
    46      0.457900  1 Si fxxz              51     -0.457900  1 Si fyyz       
    63      0.368215  2 H  pz                82     -0.368215  3 H  pz         
 
 Vector   73  Occ=0.000000D+00  E= 1.999062D+00  Symmetry=e
              MO Center= -1.1D-13, -1.8D-13,  1.9D-13, r^2= 3.3D+00
   Bfn.  Coefficient  Atom+Function         Bfn.  Coefficient  Atom+Function  
  ----- ------------  ---------------      ----- ------------  ---------------
    38      1.401506  1 Si dxx               41     -0.919282  1 Si dyy        
    64     -0.781818  2 H  px                83      0.781818  3 H  px         
   102     -0.781818  4 H  px               121      0.781818  5 H  px         
    61      0.568510  2 H  px                80     -0.568510  3 H  px         
    99      0.568510  4 H  px               118     -0.568510  5 H  px         
 
 Vector   74  Occ=0.000000D+00  E= 1.999062D+00  Symmetry=e
              MO Center= -8.4D-14, -7.9D-14, -1.3D-13, r^2= 3.3D+00
   Bfn.  Coefficient  Atom+Function         Bfn.  Coefficient  Atom+Function  
  ----- ------------  ---------------      ----- ------------  ---------------
    43      1.339908  1 Si dzz               41     -1.087572  1 Si dyy        
    66     -0.747456  2 H  pz                85     -0.747456  3 H  pz         
   104      0.747456  4 H  pz               123      0.747456  5 H  pz         
    65     -0.606693  2 H  py                84      0.606693  3 H  py         
   103      0.606693  4 H  py               122     -0.606693  5 H  py         
 
 Vector   75  Occ=0.000000D+00  E= 2.158375D+00  Symmetry=t2
              MO Center= -2.8D-01,  3.0D-01,  1.5D-01, r^2= 3.5D+00
   Bfn.  Coefficient  Atom+Function         Bfn.  Coefficient  Atom+Function  
  ----- ------------  ---------------      ----- ------------  ---------------
    18     10.646739  1 Si pz                16     -5.573125  1 Si px         
    17      5.177147  1 Si py                74     -4.798163  3 H  s          
    46     -4.223873  1 Si fxxz              51     -4.223873  1 Si fyyz       
    53     -3.998927  1 Si fzzz              93      2.476269  4 H  s          
   112      2.298677  5 H  s                 47      2.211021  1 Si fxyy       
 
 Vector   76  Occ=0.000000D+00  E= 2.158375D+00  Symmetry=t2
              MO Center=  3.7D-01, -1.4D-01,  2.1D-01, r^2= 3.5D+00
   Bfn.  Coefficient  Atom+Function         Bfn.  Coefficient  Atom+Function  
  ----- ------------  ---------------      ----- ------------  ---------------
    17     10.315444  1 Si py                18     -7.050236  1 Si pz         
    55      4.765585  2 H  s                 45     -4.092438  1 Si fxxy       
    52     -4.092438  1 Si fyzz              16     -3.886052  1 Si px         
    50     -3.874492  1 Si fyyy              93     -3.022733  4 H  s          
    46      2.797035  1 Si fxxz              51      2.797035  1 Si fyyz       
 
 Vector   77  Occ=0.000000D+00  E= 2.158375D+00  Symmetry=t2
              MO Center= -9.0D-02, -1.6D-01, -3.5D-01, r^2= 3.5D+00
   Bfn.  Coefficient  Atom+Function         Bfn.  Coefficient  Atom+Function  
  ----- ------------  ---------------      ----- ------------  ---------------
    16     11.182777  1 Si px                17      6.164769  1 Si py         
   112      4.530535  5 H  s                 47     -4.436534  1 Si fxyy       
    49     -4.436534  1 Si fxzz              44     -4.200263  1 Si fxxx       
    93     -3.249650  4 H  s                 18      2.856000  1 Si pz         
    45     -2.445744  1 Si fxxy              52     -2.445744  1 Si fyzz       
 
 Vector   78  Occ=0.000000D+00  E= 2.508433D+00  Symmetry=t2
              MO Center=  4.5D-01,  5.3D-01, -2.3D-01, r^2= 2.8D+00
   Bfn.  Coefficient  Atom+Function         Bfn.  Coefficient  Atom+Function  
  ----- ------------  ---------------      ----- ------------  ---------------
    18      7.199005  1 Si pz                94      4.093860  4 H  s          
    16     -3.644737  1 Si px                46     -3.478835  1 Si fxxz       
    51     -3.478835  1 Si fyyz              17     -3.107152  1 Si py         
    53     -2.528056  1 Si fzzz              75     -2.270286  3 H  s          
    56     -1.954780  2 H  s                 15     -1.917677  1 Si pz         
 
 Vector   79  Occ=0.000000D+00  E= 2.508433D+00  Symmetry=t2
              MO Center=  1.6D-01, -3.1D-01,  5.9D-01, r^2= 2.8D+00
   Bfn.  Coefficient  Atom+Function         Bfn.  Coefficient  Atom+Function  
  ----- ------------  ---------------      ----- ------------  ---------------
    16      7.418934  1 Si px                17     -3.935857  1 Si py         
    56     -3.935760  2 H  s                 47     -3.585113  1 Si fxyy       
    49     -3.585113  1 Si fxzz              75      2.728319  3 H  s          
    44     -2.605288  1 Si fxxx              18      2.057334  1 Si pz         
    13     -1.976262  1 Si px                45      1.901957  1 Si fxxy       
 
 Vector   80  Occ=0.000000D+00  E= 2.508433D+00  Symmetry=t2
              MO Center= -6.1D-01, -2.2D-01, -3.6D-01, r^2= 2.8D+00
   Bfn.  Coefficient  Atom+Function         Bfn.  Coefficient  Atom+Function  
  ----- ------------  ---------------      ----- ------------  ---------------
    17      7.044062  1 Si py                18      4.325029  1 Si pz         
   113      4.080893  5 H  s                 45     -3.403961  1 Si fxxy       
    52     -3.403961  1 Si fyzz              75     -2.591578  3 H  s          
    16      2.537614  1 Si px                50     -2.473645  1 Si fyyy       
    46     -2.090020  1 Si fxxz              51     -2.090020  1 Si fyyz       
 
 Vector   81  Occ=0.000000D+00  E= 2.606956D+00  Symmetry=a1
              MO Center= -9.0D-14, -1.2D-13, -3.4D-14, r^2= 3.7D+00
   Bfn.  Coefficient  Atom+Function         Bfn.  Coefficient  Atom+Function  
  ----- ------------  ---------------      ----- ------------  ---------------
     6     19.445118  1 Si s                 48     -5.481957  1 Si fxyz       
    22      4.448679  1 Si s                 38     -4.357910  1 Si dxx        
    41     -4.357910  1 Si dyy               43     -4.357910  1 Si dzz        
    55     -3.725495  2 H  s                 74     -3.725495  3 H  s          
    93     -3.725495  4 H  s                112     -3.725495  5 H  s          
 
 Vector   82  Occ=0.000000D+00  E= 2.884369D+00  Symmetry=a1
              MO Center=  2.9D-15, -3.9D-15, -1.7D-14, r^2= 2.1D+00
   Bfn.  Coefficient  Atom+Function         Bfn.  Coefficient  Atom+Function  
  ----- ------------  ---------------      ----- ------------  ---------------
     5     14.918001  1 Si s                  6     -7.835408  1 Si s          
    32     -5.874094  1 Si dxx               35     -5.874094  1 Si dyy        
    37     -5.874094  1 Si dzz               48      5.149718  1 Si fxyz       
    22      4.662964  1 Si s                  4     -2.625309  1 Si s          
    55      1.678294  2 H  s                 74      1.678294  3 H  s          
 
 Vector   83  Occ=0.000000D+00  E= 3.046786D+00  Symmetry=t1
              MO Center= -2.5D-01, -1.9D-01,  3.3D-01, r^2= 2.6D+00
   Bfn.  Coefficient  Atom+Function         Bfn.  Coefficient  Atom+Function  
  ----- ------------  ---------------      ----- ------------  ---------------
    68      0.773916  2 H  dxy               87     -0.773916  3 H  dxy        
    90     -0.684511  3 H  dyz              128      0.684511  5 H  dyz        
    69      0.586089  2 H  dxz              126     -0.586089  5 H  dxz        
    71     -0.187827  2 H  dyz              109      0.187827  4 H  dyz        
   106      0.098422  4 H  dxy              125     -0.098422  5 H  dxy        
 
 Vector   84  Occ=0.000000D+00  E= 3.046786D+00  Symmetry=t1
              MO Center= -1.3D-01,  3.6D-01, -1.8D-01, r^2= 2.6D+00
   Bfn.  Coefficient  Atom+Function         Bfn.  Coefficient  Atom+Function  
  ----- ------------  ---------------      ----- ------------  ---------------
    88      0.809057  3 H  dxz              107     -0.809057  4 H  dxz        
   106     -0.643882  4 H  dxy              125      0.643882  5 H  dxy        
    90      0.510390  3 H  dyz              128     -0.510390  5 H  dyz        
    68      0.298667  2 H  dxy               87     -0.298667  3 H  dxy        
    71     -0.165175  2 H  dyz              109      0.165175  4 H  dyz        
 
 Vector   85  Occ=0.000000D+00  E= 3.046786D+00  Symmetry=t1
              MO Center=  3.8D-01, -1.7D-01, -1.5D-01, r^2= 2.6D+00
   Bfn.  Coefficient  Atom+Function         Bfn.  Coefficient  Atom+Function  
  ----- ------------  ---------------      ----- ------------  ---------------
    71      0.818180  2 H  dyz              109     -0.818180  4 H  dyz        
    69      0.608818  2 H  dxz              126     -0.608818  5 H  dxz        
   106     -0.554715  4 H  dxy              125      0.554715  5 H  dxy        
    88     -0.263464  3 H  dxz              107      0.263464  4 H  dxz        
    68     -0.209362  2 H  dxy               87      0.209362  3 H  dxy        
 
 Vector   86  Occ=0.000000D+00  E= 3.049206D+00  Symmetry=e
              MO Center=  8.2D-14,  1.5D-13,  1.3D-15, r^2= 2.7D+00
   Bfn.  Coefficient  Atom+Function         Bfn.  Coefficient  Atom+Function  
  ----- ------------  ---------------      ----- ------------  ---------------
    68      0.451515  2 H  dxy               87      0.451515  3 H  dxy        
   106     -0.451515  4 H  dxy              125     -0.451515  5 H  dxy        
    43      0.430867  1 Si dzz               72     -0.382985  2 H  dzz        
    91     -0.382985  3 H  dzz              110     -0.382985  4 H  dzz        
   129     -0.382985  5 H  dzz               71     -0.283897  2 H  dyz        
 
 Vector   87  Occ=0.000000D+00  E= 3.049206D+00  Symmetry=e
              MO Center= -8.5D-14,  3.6D-14,  1.1D-13, r^2= 2.7D+00
   Bfn.  Coefficient  Atom+Function         Bfn.  Coefficient  Atom+Function  
  ----- ------------  ---------------      ----- ------------  ---------------
    69     -0.424591  2 H  dxz               88      0.424591  3 H  dxz        
   107      0.424591  4 H  dxz              126     -0.424591  5 H  dxz        
    41      0.405173  1 Si dyy               70     -0.360147  2 H  dyy        
    89     -0.360147  3 H  dyy              108     -0.360147  4 H  dyy        
   127     -0.360147  5 H  dyy               71     -0.357457  2 H  dyz        
 
 Vector   88  Occ=0.000000D+00  E= 3.253963D+00  Symmetry=e
              MO Center= -1.1D-15,  2.0D-15,  3.6D-15, r^2= 1.5D+00
   Bfn.  Coefficient  Atom+Function         Bfn.  Coefficient  Atom+Function  
  ----- ------------  ---------------      ----- ------------  ---------------
    29      0.765203  1 Si dyy               31     -0.661884  1 Si dzz        
    41      0.576215  1 Si dyy               43     -0.498413  1 Si dzz        
    69     -0.317756  2 H  dxz               88      0.317756  3 H  dxz        
   107      0.317756  4 H  dxz              126     -0.317756  5 H  dxz        
    68     -0.274852  2 H  dxy               87     -0.274852  3 H  dxy        
 
 Vector   89  Occ=0.000000D+00  E= 3.253963D+00  Symmetry=e
              MO Center= -9.2D-16, -6.2D-16,  9.2D-16, r^2= 1.5D+00
   Bfn.  Coefficient  Atom+Function         Bfn.  Coefficient  Atom+Function  
  ----- ------------  ---------------      ----- ------------  ---------------
    26      0.823929  1 Si dxx               38      0.620437  1 Si dxx        
    31     -0.501442  1 Si dzz               43     -0.377597  1 Si dzz        
    71      0.342142  2 H  dyz               90     -0.342142  3 H  dyz        
   109      0.342142  4 H  dyz              128     -0.342142  5 H  dyz        
    29     -0.322487  1 Si dyy               64     -0.248988  2 H  px         
 
 Vector   90  Occ=0.000000D+00  E= 3.300600D+00  Symmetry=t2
              MO Center= -5.2D-02,  1.9D-01, -1.3D-02, r^2= 2.7D+00
   Bfn.  Coefficient  Atom+Function         Bfn.  Coefficient  Atom+Function  
  ----- ------------  ---------------      ----- ------------  ---------------
    46      1.157167  1 Si fxxz              51      1.157167  1 Si fyyz       
    18     -0.788472  1 Si pz                91      0.535783  3 H  dzz        
   110     -0.503424  4 H  dzz              129     -0.416195  5 H  dzz        
    53      0.409658  1 Si fzzz              72      0.383835  2 H  dzz        
    15      0.378139  1 Si pz               105      0.369146  4 H  dxx        
 
 Vector   91  Occ=0.000000D+00  E= 3.300600D+00  Symmetry=t2
              MO Center= -7.6D-02, -1.1D-01,  3.7D-01, r^2= 2.6D+00
   Bfn.  Coefficient  Atom+Function         Bfn.  Coefficient  Atom+Function  
  ----- ------------  ---------------      ----- ------------  ---------------
    47      0.983620  1 Si fxyy              49      0.983620  1 Si fxzz       
    16     -0.670221  1 Si px                45      0.649219  1 Si fxxy       
    52      0.649219  1 Si fyzz              67      0.565519  2 H  dxx        
    89      0.501107  3 H  dyy               86     -0.482021  3 H  dxx        
    17     -0.442366  1 Si py                70     -0.417609  2 H  dyy        
 
 Vector   92  Occ=0.000000D+00  E= 3.300600D+00  Symmetry=t2
              MO Center=  1.3D-01, -7.9D-02, -3.5D-01, r^2= 2.6D+00
   Bfn.  Coefficient  Atom+Function         Bfn.  Coefficient  Atom+Function  
  ----- ------------  ---------------      ----- ------------  ---------------
    45      1.001421  1 Si fxxy              52      1.001421  1 Si fyzz       
    17     -0.682350  1 Si py                47     -0.614632  1 Si fxyy       
    49     -0.614632  1 Si fxzz             108      0.569524  4 H  dyy        
   124      0.495021  5 H  dxx              127     -0.478000  5 H  dyy        
    16      0.418799  1 Si px                72      0.419684  2 H  dzz        
 
 Vector   93  Occ=0.000000D+00  E= 3.572842D+00  Symmetry=t2
              MO Center= -1.7D-01,  1.6D-01, -7.4D-02, r^2= 2.3D+00
   Bfn.  Coefficient  Atom+Function         Bfn.  Coefficient  Atom+Function  
  ----- ------------  ---------------      ----- ------------  ---------------
    18      2.216759  1 Si pz                56     -1.964280  2 H  s          
    55     -1.073042  2 H  s                 21      1.037724  1 Si pz         
[...]
 
 Vector  109  Occ=0.000000D+00  E= 4.911507D+00  Symmetry=t2
              MO Center=  2.1D-01,  1.5D-01, -4.4D-02, r^2= 2.2D+00
   Bfn.  Coefficient  Atom+Function         Bfn.  Coefficient  Atom+Function  
  ----- ------------  ---------------      ----- ------------  ---------------
    18      3.356148  1 Si pz                46     -3.080178  1 Si fxxz       
    51     -3.080178  1 Si fyyz              33      2.725136  1 Si dxy        
    93      1.546653  4 H  s                 15     -1.220512  1 Si pz         
    55     -1.113174  2 H  s                110     -1.098108  4 H  dzz        
    27     -1.090103  1 Si dxy               17     -0.984035  1 Si py         
 
 Vector  110  Occ=0.000000D+00  E= 4.911507D+00  Symmetry=t2
              MO Center= -8.0D-02, -2.1D-01, -2.5D-01, r^2= 2.1D+00
   Bfn.  Coefficient  Atom+Function         Bfn.  Coefficient  Atom+Function  
  ----- ------------  ---------------      ----- ------------  ---------------
    16      3.185003  1 Si px                47     -2.923106  1 Si fxyy       
    49     -2.923106  1 Si fxzz              36      2.586170  1 Si dyz        
   112      1.670378  5 H  s                 17      1.233390  1 Si py         
    13     -1.158272  1 Si px               124     -1.154818  5 H  dxx        
    45     -1.131971  1 Si fxxy              52     -1.131971  1 Si fyzz       
 
 Vector  111  Occ=0.000000D+00  E= 4.911507D+00  Symmetry=t2
              MO Center= -1.3D-01,  5.7D-02,  2.9D-01, r^2= 2.1D+00
   Bfn.  Coefficient  Atom+Function         Bfn.  Coefficient  Atom+Function  
  ----- ------------  ---------------      ----- ------------  ---------------
    17      3.200437  1 Si py                45     -2.937271  1 Si fxxy       
    52     -2.937271  1 Si fyzz              34      2.598701  1 Si dxz        
    74     -1.617650  3 H  s                 16     -1.444925  1 Si px         
    47      1.326112  1 Si fxyy              49      1.326112  1 Si fxzz       
    55      1.229202  2 H  s                 36     -1.173255  1 Si dyz        
 
 Vector  112  Occ=0.000000D+00  E= 7.448437D+00  Symmetry=a1
              MO Center= -5.9D-15, -3.6D-15,  4.3D-15, r^2= 8.3D-01
   Bfn.  Coefficient  Atom+Function         Bfn.  Coefficient  Atom+Function  
  ----- ------------  ---------------      ----- ------------  ---------------
     5     26.912035  1 Si s                 32     -7.448399  1 Si dxx        
    35     -7.448399  1 Si dyy               37     -7.448399  1 Si dzz        
     6     -6.068845  1 Si s                 26     -3.365902  1 Si dxx        
    29     -3.365902  1 Si dyy               31     -3.365902  1 Si dzz        
     3     -1.717769  1 Si s                  4     -1.641344  1 Si s          
 
 Vector  113  Occ=0.000000D+00  E= 8.816701D+00  Symmetry=t1
              MO Center=  4.0D-01, -5.6D-02, -5.0D-02, r^2= 2.3D+00
   Bfn.  Coefficient  Atom+Function         Bfn.  Coefficient  Atom+Function  
  ----- ------------  ---------------      ----- ------------  ---------------
    58      0.640753  2 H  px                96     -0.640753  4 H  px         
    61     -0.494514  2 H  px                99      0.494514  4 H  px         
    46      0.383922  1 Si fxxz              51     -0.383922  1 Si fyyz       
    59      0.379521  2 H  py               116     -0.379521  5 H  py         
    45     -0.344318  1 Si fxxy              52      0.344318  1 Si fyzz       
 
 Vector  114  Occ=0.000000D+00  E= 8.816701D+00  Symmetry=t1
              MO Center= -4.7D-02, -1.3D-01,  2.5D-01, r^2= 2.4D+00
   Bfn.  Coefficient  Atom+Function         Bfn.  Coefficient  Atom+Function  
  ----- ------------  ---------------      ----- ------------  ---------------
    60      0.571449  2 H  pz                79     -0.571449  3 H  pz         
    59      0.503884  2 H  py               116     -0.503884  5 H  py         
    47     -0.481112  1 Si fxyy              49      0.481112  1 Si fxzz       
    63     -0.441027  2 H  pz                82      0.441027  3 H  pz         
    62     -0.388882  2 H  py               119      0.388882  5 H  py         
 
 Vector  115  Occ=0.000000D+00  E= 8.816701D+00  Symmetry=t1
              MO Center= -3.6D-01,  1.9D-01, -2.0D-01, r^2= 2.2D+00
   Bfn.  Coefficient  Atom+Function         Bfn.  Coefficient  Atom+Function  
  ----- ------------  ---------------      ----- ------------  ---------------
    77      0.601448  3 H  px               115     -0.601448  5 H  px         
    98     -0.469825  4 H  pz               117      0.469825  5 H  pz         
    80     -0.464179  3 H  px               118      0.464179  5 H  px         
    78      0.458394  3 H  py                97     -0.458394  4 H  py         
   101      0.362597  4 H  pz               120     -0.362597  5 H  pz         
 
 Vector  116  Occ=0.000000D+00  E= 8.866025D+00  Symmetry=t2
              MO Center= -6.5D-02, -6.3D-02,  4.0D-01, r^2= 2.3D+00
   Bfn.  Coefficient  Atom+Function         Bfn.  Coefficient  Atom+Function  
  ----- ------------  ---------------      ----- ------------  ---------------
    94      0.869998  4 H  s                113     -0.740414  5 H  s          
    17     -0.646553  1 Si py                16     -0.626185  1 Si px         
    20     -0.623405  1 Si py                19     -0.603765  1 Si px         
    78      0.587184  3 H  py                58      0.583110  2 H  px         
    59      0.518986  2 H  py                77      0.514912  3 H  px         
 
 Vector  117  Occ=0.000000D+00  E= 8.866025D+00  Symmetry=t2
              MO Center=  1.7D-01, -5.0D-02, -1.1D-02, r^2= 2.5D+00
   Bfn.  Coefficient  Atom+Function         Bfn.  Coefficient  Atom+Function  
  ----- ------------  ---------------      ----- ------------  ---------------
    18      0.882665  1 Si pz                21      0.851062  1 Si pz         
    75     -0.718494  3 H  s                113      0.645730  5 H  s          
    60     -0.554674  2 H  pz                98     -0.516380  4 H  pz         
    94      0.471117  4 H  s                 63      0.443064  2 H  pz         
    53     -0.424058  1 Si fzzz             117     -0.424484  5 H  pz         
 
 Vector  118  Occ=0.000000D+00  E= 8.866025D+00  Symmetry=t2
              MO Center= -1.0D-01,  1.1D-01, -3.9D-01, r^2= 2.3D+00
   Bfn.  Coefficient  Atom+Function         Bfn.  Coefficient  Atom+Function  
  ----- ------------  ---------------      ----- ------------  ---------------
    56      0.905903  2 H  s                 75     -0.682972  3 H  s          
    16     -0.652083  1 Si px                19     -0.628736  1 Si px         
    96      0.607186  4 H  px                17      0.603633  1 Si py         
   116     -0.597495  5 H  py                20      0.582021  1 Si py         
    79      0.512001  3 H  pz               115      0.489861  5 H  px         
 
 Vector  119  Occ=0.000000D+00  E= 8.891295D+00  Symmetry=e
              MO Center=  1.1D-14,  3.1D-14,  1.4D-14, r^2= 2.5D+00
   Bfn.  Coefficient  Atom+Function         Bfn.  Coefficient  Atom+Function  
  ----- ------------  ---------------      ----- ------------  ---------------
    41      0.487150  1 Si dyy               59      0.488113  2 H  py         
    78     -0.488113  3 H  py                97     -0.488113  4 H  py         
   116      0.488113  5 H  py                43     -0.417220  1 Si dzz        
    60      0.418045  2 H  pz                79      0.418045  3 H  pz         
    98     -0.418045  4 H  pz               117     -0.418045  5 H  pz         
 
 Vector  120  Occ=0.000000D+00  E= 8.891295D+00  Symmetry=e
              MO Center= -7.1D-14, -2.1D-14, -5.5D-14, r^2= 2.5D+00
   Bfn.  Coefficient  Atom+Function         Bfn.  Coefficient  Atom+Function  
  ----- ------------  ---------------      ----- ------------  ---------------
    38      0.522138  1 Si dxx               58     -0.523171  2 H  px         
    77      0.523171  3 H  px                96     -0.523171  4 H  px         
   115      0.523171  5 H  px                61      0.402156  2 H  px         
    80     -0.402156  3 H  px                99      0.402156  4 H  px         
   118     -0.402156  5 H  px                43     -0.321630  1 Si dzz        
 
 Vector  121  Occ=0.000000D+00  E= 9.468795D+00  Symmetry=a1
              MO Center=  1.6D-15,  2.5D-15,  3.7D-15, r^2= 2.4D+00
   Bfn.  Coefficient  Atom+Function         Bfn.  Coefficient  Atom+Function  
  ----- ------------  ---------------      ----- ------------  ---------------
     6      4.320398  1 Si s                 48     -2.710903  1 Si fxyz       
     5      2.240915  1 Si s                 55     -1.398167  2 H  s          
    74     -1.398167  3 H  s                 93     -1.398167  4 H  s          
   112     -1.398167  5 H  s                 22      1.066129  1 Si s          
    38     -1.001805  1 Si dxx               41     -1.001805  1 Si dyy        
 
 Vector  122  Occ=0.000000D+00  E= 9.515317D+00  Symmetry=t2
              MO Center=  4.0D-01, -1.9D-01,  5.7D-02, r^2= 2.1D+00
   Bfn.  Coefficient  Atom+Function         Bfn.  Coefficient  Atom+Function  
  ----- ------------  ---------------      ----- ------------  ---------------
    18      3.466944  1 Si pz                46     -2.306432  1 Si fxxz       
    51     -2.306432  1 Si fyyz              33      1.395486  1 Si dxy        
    53     -1.366942  1 Si fzzz              15     -1.130146  1 Si pz         
    17     -1.028127  1 Si py                56     -1.018824  2 H  s          
    94      0.819486  4 H  s                 63     -0.696099  2 H  pz         
 
 Vector  123  Occ=0.000000D+00  E= 9.515317D+00  Symmetry=t2
              MO Center= -1.2D-01,  3.2D-01,  4.7D-01, r^2= 2.0D+00
   Bfn.  Coefficient  Atom+Function         Bfn.  Coefficient  Atom+Function  
  ----- ------------  ---------------      ----- ------------  ---------------
    16      3.324324  1 Si px                47     -2.211552  1 Si fxyy       
    49     -2.211552  1 Si fxzz              36      1.338080  1 Si dyz        
    44     -1.310709  1 Si fxxx              17     -1.249450  1 Si py         
    75      1.106583  3 H  s                 13     -1.083654  1 Si px         
    18     -0.837901  1 Si pz                45      0.831213  1 Si fxxy       
 
 Vector  124  Occ=0.000000D+00  E= 9.515317D+00  Symmetry=t2
              MO Center= -2.8D-01, -1.2D-01, -5.3D-01, r^2= 2.0D+00
   Bfn.  Coefficient  Atom+Function         Bfn.  Coefficient  Atom+Function  
  ----- ------------  ---------------      ----- ------------  ---------------
    17      3.270499  1 Si py                45     -2.175744  1 Si fxxy       
    52     -2.175744  1 Si fyzz              16      1.423242  1 Si px         
    34      1.316415  1 Si dxz               50     -1.289487  1 Si fyyy       
   113      1.117183  5 H  s                 14     -1.066109  1 Si py         
    47     -0.946831  1 Si fxyy              49     -0.946831  1 Si fxzz       
 
 Vector  125  Occ=0.000000D+00  E= 1.218440D+01  Symmetry=t2
              MO Center= -7.9D-03, -6.6D-02, -7.7D-03, r^2= 3.6D-01
   Bfn.  Coefficient  Atom+Function         Bfn.  Coefficient  Atom+Function  
  ----- ------------  ---------------      ----- ------------  ---------------
    18      1.610902  1 Si pz                16      1.554467  1 Si px         
    12     -1.079824  1 Si pz                10     -1.041995  1 Si px         
    53     -1.025521  1 Si fzzz              44     -0.989594  1 Si fxxx       
     9      0.842837  1 Si pz                33     -0.829387  1 Si dxy        
     7      0.813310  1 Si px                36     -0.800331  1 Si dyz        
 
 Vector  126  Occ=0.000000D+00  E= 1.218440D+01  Symmetry=t2
              MO Center= -5.7D-03,  6.6D-02,  6.0D-03, r^2= 3.6D-01
   Bfn.  Coefficient  Atom+Function         Bfn.  Coefficient  Atom+Function  
  ----- ------------  ---------------      ----- ------------  ---------------
    16      1.621605  1 Si px                18     -1.548346  1 Si pz         
    10     -1.086999  1 Si px                12      1.037892  1 Si pz         
    44     -1.032335  1 Si fxxx              53      0.985697  1 Si fzzz       
     7      0.848437  1 Si px                36     -0.834898  1 Si dyz        
     9     -0.810107  1 Si pz                33      0.797180  1 Si dxy        
 
 Vector  127  Occ=0.000000D+00  E= 1.218440D+01  Symmetry=t2
              MO Center=  1.4D-02, -1.8D-04,  1.7D-03, r^2= 3.6D-01
   Bfn.  Coefficient  Atom+Function         Bfn.  Coefficient  Atom+Function  
  ----- ------------  ---------------      ----- ------------  ---------------
    17      2.234178  1 Si py                11     -1.497621  1 Si py         
    50     -1.422307  1 Si fyyy               8      1.168940  1 Si py         
    34     -1.150287  1 Si dxz               14      0.774743  1 Si py         
    45     -0.724421  1 Si fxxy              52     -0.724421  1 Si fyzz       
    55      0.451814  2 H  s                 93     -0.441398  4 H  s          
 
 Vector  128  Occ=0.000000D+00  E= 1.780409D+01  Symmetry=a1
              MO Center=  1.9D-16, -3.3D-16,  1.3D-16, r^2= 3.5D-01
   Bfn.  Coefficient  Atom+Function         Bfn.  Coefficient  Atom+Function  
  ----- ------------  ---------------      ----- ------------  ---------------
     5     23.662697  1 Si s                  4     14.763552  1 Si s          
     3    -11.615361  1 Si s                 26     -7.035526  1 Si dxx        
    29     -7.035526  1 Si dyy               31     -7.035526  1 Si dzz        
     6     -6.695870  1 Si s                 32     -6.019879  1 Si dxx        
    35     -6.019879  1 Si dyy               37     -6.019879  1 Si dzz        
 
 Vector  129  Occ=0.000000D+00  E= 1.631152D+02  Symmetry=a1
              MO Center= -5.9D-17, -2.3D-17, -1.0D-17, r^2= 4.2D-02
   Bfn.  Coefficient  Atom+Function         Bfn.  Coefficient  Atom+Function  
  ----- ------------  ---------------      ----- ------------  ---------------
     5      7.679726  1 Si s                  4      7.143260  1 Si s          
     3     -5.977131  1 Si s                 26     -2.789270  1 Si dxx        
    29     -2.789270  1 Si dyy               31     -2.789270  1 Si dzz        
     2      2.248019  1 Si s                  6     -2.210503  1 Si s          
    32     -1.966695  1 Si dxx               35     -1.966695  1 Si dyy        
 

 center of mass
 --------------
 x =   0.00000000 y =   0.00000000 z =   0.00000000

 moments of inertia (a.u.)
 ------------------
          21.103389611361           0.000000000000           0.000000000000
           0.000000000000          21.103389611361           0.000000000000
           0.000000000000           0.000000000000          21.103389611361
 
     Multipole analysis of the density
     ---------------------------------
 
     L   x y z        total         alpha         beta         nuclear
     -   - - -        -----         -----         ----         -------
     0   0 0 0     -0.000000     -9.000000     -9.000000     18.000000
 
     1   1 0 0      0.000000      0.000000      0.000000      0.000000
     1   0 1 0     -0.000000     -0.000000     -0.000000      0.000000
     1   0 0 1      0.000000      0.000000      0.000000      0.000000
 
     2   2 0 0    -12.248994    -11.359382    -11.359382     10.469769
     2   1 1 0     -0.000000     -0.000000     -0.000000      0.000000
     2   1 0 1      0.000000      0.000000      0.000000      0.000000
     2   0 2 0    -12.248994    -11.359382    -11.359382     10.469769
     2   0 1 1     -0.000000     -0.000000     -0.000000      0.000000
     2   0 0 2    -12.248994    -11.359382    -11.359382     10.469769
 

------------------------------------------------------------
EAF file 0: "./SiH4.xyz.aoints.00" size=2621440 bytes
------------------------------------------------------------
               write      read    awrite     aread      wait
               -----      ----    ------     -----      ----
     calls:        9         6         0        23        23
   data(b): 4.72e+06  3.15e+06  0.00e+00  1.21e+07
   time(s): 0.00e+00  0.00e+00  0.00e+00  0.00e+00  0.00e+00
rate(mb/s): 0.00e+00  0.00e+00
------------------------------------------------------------


 Parallel integral file used     133 records with       0 large values


 Task  times  cpu:        1.7s     wall:        2.4s
 
 
                                NWChem Input Module
                                -------------------
 
 
 Summary of allocated global arrays
-----------------------------------
  No active global arrays



                         GA Statistics for process    0
                         ------------------------------

       create   destroy   get      put      acc     scatter   gather  read&inc
calls:  200      200     2358     1210     1181        0        0      196     
number of processes/call 2.28e+00 1.47e+00 2.08e+00 0.00e+00 0.00e+00
bytes total:             3.56e+07 4.83e+06 2.70e+07 0.00e+00 0.00e+00 1.57e+03
bytes remote:            2.61e+07 2.16e+06 1.32e+07 0.00e+00 0.00e+00 0.00e+00
Max memory consumed for GA by this process: 1007832 bytes
 
MA_summarize_allocated_blocks: starting scan ...
MA_summarize_allocated_blocks: scan completed: 0 heap blocks, 0 stack blocks
MA usage statistics:

	allocation statistics:
					      heap	     stack
					      ----	     -----
	current number of blocks	         0	         0
	maximum number of blocks	        22	        57
	current total bytes		         0	         0
	maximum total bytes		   2951144	  24114328
	maximum total K-bytes		      2952	     24115
	maximum total M-bytes		         3	        25
 
 
                                     CITATION
                                     --------
                Please cite the following reference when publishing
                           results obtained with NWChem:
 
                 M. Valiev, E.J. Bylaska, N. Govind, K. Kowalski,
              T.P. Straatsma, H.J.J. van Dam, D. Wang, J. Nieplocha,
                        E. Apra, T.L. Windus, W.A. de Jong
                 "NWChem: a comprehensive and scalable open-source
                  solution for large scale molecular simulations"
                      Comput. Phys. Commun. 181, 1477 (2010)
                           doi:10.1016/j.cpc.2010.04.018
 
                                      AUTHORS
                                      -------
          E. Apra, E. J. Bylaska, W. A. de Jong, N. Govind, K. Kowalski,
       T. P. Straatsma, M. Valiev, H. J. J. van Dam, D. Wang, T. L. Windus,
        J. Hammond, J. Autschbach, K. Bhaskaran-Nair, J. Brabec, K. Lopata,
    S. A. Fischer, S. Krishnamoorthy, M. Jacquelin, W. Ma, M. Klemm, O. Villa,
      Y. Chen, V. Anisimov, F. Aquino, S. Hirata, M. T. Hackler, V. Konjkov,
            D. Mejia-Rodriguez, T. Risthaus, M. Malagoli, A. Marenich,
   A. Otero-de-la-Roza, J. Mullin, P. Nichols, R. Peverati, J. Pittner, Y. Zhao,
        P.-D. Fan, A. Fonari, M. J. Williamson, R. J. Harrison, J. R. Rehr,
      M. Dupuis, D. Silverstein, D. M. A. Smith, J. Nieplocha, V. Tipparaju,
    M. Krishnan, B. E. Van Kuiken, A. Vazquez-Mayagoitia, L. Jensen, M. Swart,
      Q. Wu, T. Van Voorhis, A. A. Auer, M. Nooijen, L. D. Crosby, E. Brown,
      G. Cisneros, G. I. Fann, H. Fruchtl, J. Garza, K. Hirao, R. A. Kendall,
      J. A. Nichols, K. Tsemekhman, K. Wolinski, J. Anchell, D. E. Bernholdt,
      P. Borowski, T. Clark, D. Clerc, H. Dachsel, M. J. O. Deegan, K. Dyall,
    D. Elwood, E. Glendening, M. Gutowski, A. C. Hess, J. Jaffe, B. G. Johnson,
     J. Ju, R. Kobayashi, R. Kutteh, Z. Lin, R. Littlefield, X. Long, B. Meng,
      T. Nakajima, S. Niu, L. Pollack, M. Rosing, K. Glaesemann, G. Sandrone,
      M. Stave, H. Taylor, G. Thomas, J. H. van Lenthe, A. T. Wong, Z. Zhang.

 Total times  cpu:        1.7s     wall:        2.9s
