 argument  1 = /storage/home/rabeet/work/nwc/pa8/nwtpss/SiH4+.xyz.nw
  NWChem w/ OpenMP: maximum threads =  1
                                         
                                         
 
 
              Northwest Computational Chemistry Package (NWChem) 6.8
              ------------------------------------------------------
 
 
                    Environmental Molecular Sciences Laboratory
                       Pacific Northwest National Laboratory
                                Richland, WA 99352
 
                              Copyright (c) 1994-2018
                       Pacific Northwest National Laboratory
                            Battelle Memorial Institute
 
             NWChem is an open-source computational chemistry package
                        distributed under the terms of the
                      Educational Community License (ECL) 2.0
             A copy of the license is included with this distribution
                              in the LICENSE.TXT file
 
                                  ACKNOWLEDGMENT
                                  --------------

            This software and its documentation were developed at the
            EMSL at Pacific Northwest National Laboratory, a multiprogram
            national laboratory, operated for the U.S. Department of Energy
            by Battelle under Contract Number DE-AC05-76RL01830. Support
            for this work was provided by the Department of Energy Office
            of Biological and Environmental Research, Office of Basic
            Energy Sciences, and the Office of Advanced Scientific Computing.


           Job information
           ---------------

    hostname        = r8n4.niserhpc.org
    program         = /home/rabeet/nwchem-6.8/bin/LINUX64/nwchem
    date            = Sun Oct 27 10:45:59 2019

    compiled        = Fri_Jun_28_18:24:12_2019
    source          = /home/rabeet/nwchem-6.8
    nwchem branch   = Development
    nwchem revision = N/A
    ga revision     = 5.6.5
    use scalapack   = T
    input           = /storage/home/rabeet/work/nwc/pa8/nwtpss/SiH4+.xyz.nw
    prefix          = SiH4+.xyz.
    data base       = ./SiH4+.xyz.db
    status          = startup
    nproc           =       16
    time left       =     -1s



           Memory information
           ------------------

    heap     =   13107194 doubles =    100.0 Mbytes
    stack    =   13107199 doubles =    100.0 Mbytes
    global   =   26214400 doubles =    200.0 Mbytes (distinct from heap & stack)
    total    =   52428793 doubles =    400.0 Mbytes
    verify   = yes
    hardfail = no 


           Directory information
           ---------------------
 
  0 permanent = .
  0 scratch   = .
 
 
 
 
                                NWChem Input Module
                                -------------------
 
 

 Scaling coordinates for geometry "geometry" by  1.889725989
 (inverse scale =  0.529177249)

 C1  symmetry detected

          ------
          auto-z
          ------
  autoz: The atoms group into disjoint clusters
 cluster   1:    1    4    5    6 
 cluster   2:    2    3 
 Connecting clusters   1   2 via atoms    1    3 r = 1.87
  autoz: regenerating connections with new bonds
  no constraints, skipping   0.000000000000000E+000
  no constraints, skipping   0.000000000000000E+000
 
 
                             Geometry "geometry" -> ""
                             -------------------------
 
 Output coordinates in angstroms (scale by  1.889725989 to convert to a.u.)
 
  No.       Tag          Charge          X              Y              Z
 ---- ---------------- ---------- -------------- -------------- --------------
    1 Si                  14.0000    -0.00016878     0.17274319     0.00297868
    2 H                    1.0000     0.38227361    -1.65776771    -0.03773774
    3 H                    1.0000    -0.37864450    -1.65763525    -0.03964646
    4 H                    1.0000     0.02908427     0.36771692    -1.44663999
    5 H                    1.0000    -1.27612897     0.26303700     0.71578599
    6 H                    1.0000     1.24577855     0.26624442     0.76653671
 
      Atomic Mass 
      ----------- 
 
      Si                27.976930
      H                  1.007825
 

 Effective nuclear repulsion energy (a.u.)      25.7236340518

            Nuclear Dipole moment (a.u.) 
            ----------------------------
        X                 Y               Z
 ---------------- ---------------- ----------------
     0.0000000000     0.0000000000    -0.0000000000
 


                                Z-matrix (autoz)
                                -------- 

 Units are Angstrom for bonds and degrees for angles
 
      Type          Name      I     J     K     L     M      Value
      ----------- --------  ----- ----- ----- ----- ----- ----------
    1 Stretch                  1     3                       1.86958
    2 Stretch                  1     4                       1.46296
    3 Stretch                  1     5                       1.46435
    4 Stretch                  1     6                       1.46429
    5 Stretch                  2     3                       0.76092
    6 Bend                     1     3     2                78.32708
    7 Bend                     3     1     4                96.42687
    8 Bend                     3     1     5                83.97697
    9 Bend                     3     1     6               104.27974
   10 Bend                     4     1     5               119.44177
   11 Bend                     4     1     6               119.41760
   12 Bend                     5     1     6               118.92430
   13 Torsion                  2     3     1     4          90.30382
   14 Torsion                  2     3     1     5        -150.65042
   15 Torsion                  2     3     1     6         -32.29178
 
 
            XYZ format geometry
            -------------------
     6
 geometry
 Si                   -0.00016878     0.17274319     0.00297868
 H                     0.38227361    -1.65776771    -0.03773774
 H                    -0.37864450    -1.65763525    -0.03964646
 H                     0.02908427     0.36771692    -1.44663999
 H                    -1.27612897     0.26303700     0.71578599
 H                     1.24577855     0.26624442     0.76653671
 
 ==============================================================================
                                internuclear distances
 ------------------------------------------------------------------------------
       center one      |      center two      | atomic units |  angstroms
 ------------------------------------------------------------------------------
    4 H                |   1 Si               |     2.76460  |     1.46296
    5 H                |   1 Si               |     2.76722  |     1.46435
    6 H                |   1 Si               |     2.76711  |     1.46429
 ------------------------------------------------------------------------------
                         number of included internuclear distances:          3
 ==============================================================================



 ==============================================================================
                                 internuclear angles
 ------------------------------------------------------------------------------
        center 1       |       center 2       |       center 3       |  degrees
 ------------------------------------------------------------------------------
    4 H                |   1 Si               |   5 H                |   119.44
    4 H                |   1 Si               |   6 H                |   119.42
    5 H                |   1 Si               |   6 H                |   118.92
 ------------------------------------------------------------------------------
                            number of included internuclear angles:          3
 ==============================================================================





 Summary of "ao basis" -> "" (cartesian)
 ------------------------------------------------------------------------------
       Tag                 Description            Shells   Functions and Types
 ---------------- ------------------------------  ------  ---------------------
 *                     6-311++G(3df,3pd)              on all atoms 


 
                                 NWChem DFT Module
                                 -----------------
 
 
                      Basis "ao basis" -> "ao basis" (cartesian)
                      -----
  Si (Silicon)
  ------------
            Exponent  Coefficients 
       -------------- ---------------------------------------------------------
  1 S  6.93792300E+04  0.000757
  1 S  1.03549400E+04  0.005932
  1 S  2.33387960E+03  0.031088
  1 S  6.57142950E+02  0.124967
  1 S  2.14301130E+02  0.386897
  1 S  7.76291680E+01  0.554888
 
  2 S  7.76291680E+01  0.177881
  2 S  3.06308070E+01  0.627765
  2 S  1.28012950E+01  0.247623
 
  3 S  3.92686600E+00  1.000000
 
  4 S  1.45234300E+00  1.000000
 
  5 S  2.56234000E-01  1.000000
 
  6 S  9.42790000E-02  1.000000
 
  7 P  3.35483190E+02  0.008866
  7 P  7.89003660E+01  0.068299
  7 P  2.49881500E+01  0.290958
  7 P  9.21971100E+00  0.732117
 
  8 P  3.62114000E+00  0.619879
  8 P  1.45131000E+00  0.439148
 
  9 P  5.04977000E-01  1.000000
 
 10 P  1.86317000E-01  1.000000
 
 11 P  6.54320000E-02  1.000000
 
 12 S  3.31000000E-02  1.000000
 
 13 P  3.31000000E-02  1.000000
 
 14 D  1.80000000E+00  1.000000
 
 15 D  4.50000000E-01  1.000000
 
 16 D  1.12500000E-01  1.000000
 
 17 F  3.20000000E-01  1.000000
 
  H (Hydrogen)
  ------------
            Exponent  Coefficients 
       -------------- ---------------------------------------------------------
  1 S  3.38650000E+01  0.025494
  1 S  5.09479000E+00  0.190373
  1 S  1.15879000E+00  0.852161
 
  2 S  3.25840000E-01  1.000000
 
  3 S  1.02741000E-01  1.000000
 
  4 S  3.60000000E-02  1.000000
 
  5 P  3.00000000E+00  1.000000
 
  6 P  7.50000000E-01  1.000000
 
  7 P  1.87500000E-01  1.000000
 
  8 D  1.00000000E+00  1.000000
 


 Summary of "ao basis" -> "ao basis" (cartesian)
 ------------------------------------------------------------------------------
       Tag                 Description            Shells   Functions and Types
 ---------------- ------------------------------  ------  ---------------------
 Si                    6-311++G(3df,3pd)            17       53   7s6p3d1f
 H                     6-311++G(3df,3pd)             8       19   4s3p1d




 Summary of "ao basis" -> "ao basis" (cartesian)
 ------------------------------------------------------------------------------
       Tag                 Description            Shells   Functions and Types
 ---------------- ------------------------------  ------  ---------------------
 Si                    6-311++G(3df,3pd)            17       53   7s6p3d1f
 H                     6-311++G(3df,3pd)             8       19   4s3p1d


  Caching 1-el integrals 
 
            General Information
            -------------------
          SCF calculation type: DFT
          Wavefunction type:  closed shell.
          No. of atoms     :     6
          No. of electrons :    18
           Alpha electrons :     9
            Beta electrons :     9
          Charge           :     1
          Spin multiplicity:     1
          Use of symmetry is: off; symmetry adaption is: off
          Maximum number of iterations: ***
          AO basis - number of functions:   148
                     number of shells:    57
          Convergence on energy requested:  1.00D-06
          Convergence on density requested:  1.00D-05
          Convergence on gradient requested:  5.00D-04
 
              XC Information
              --------------
                  TPSS metaGGA Exchange Functional  1.000          
             TPSS03 metaGGA Correlation Functional  1.000          
 
             Grid Information
             ----------------
          Grid used for XC integration:  medium    
          Radial quadrature: Mura-Knowles        
          Angular quadrature: Lebedev. 
          Tag              B.-S. Rad. Rad. Pts. Rad. Cut. Ang. Pts.
          ---              ---------- --------- --------- ---------
          Si                  1.10       88          12.0       590
          H                   0.35       45          12.0       434
          Grid pruning is: on 
          Number of quadrature shells:   313
          Spatial weights used:  Erf1
 
          Convergence Information
          -----------------------
          Convergence aids based upon iterative change in 
          total energy or number of iterations. 
          Levelshifting, if invoked, occurs when the 
          HOMO/LUMO gap drops below (HL_TOL):  1.00D-02
          DIIS, if invoked, will attempt to extrapolate 
          using up to (NFOCK): 10 stored Fock matrices.

                    Damping( 0%)  Levelshifting(0.5)       DIIS
                  --------------- ------------------- ---------------
          dE  on:    start            ASAP                start   
          dE off:    2 iters        *** iters           *** iters 

 
      Screening Tolerance Information
      -------------------------------
          Density screening/tol_rho:  1.00D-10
          AO Gaussian exp screening on grid/accAOfunc:  14
          CD Gaussian exp screening on grid/accCDfunc:  20
          XC Gaussian exp screening on grid/accXCfunc:  20
          Schwarz screening/accCoul:  1.00D-08

 
      Superposition of Atomic Density Guess
      -------------------------------------
 
 Sum of atomic energies:        -291.33584498

 Renormalizing density from      19.00 to     18
 
      Non-variational initial energy
      ------------------------------

 Total energy =    -281.676037
 1-e energy   =    -429.744094
 2-e energy   =     122.344423
 HOMO         =      -0.811349
 LUMO         =      -0.375757
 
   Time after variat. SCF:      0.6
   Time prior to 1st pass:      0.6

 Integral file          = ./SiH4+.xyz.aoints.00
 Record size in doubles =    65536    No. of integs per rec  =    43688
 Max. records in memory =      119    Max. records in file   =  8902848
 No. of bits per label  =        8    No. of bits per value  =       64


 #quartets = 1.310D+06 #integrals = 5.522D+07 #direct =  0.0% #cached =100.0%


File balance: exchanges=    15  moved=   154  time=   0.0


 Grid_pts file          = ./SiH4+.xyz.gridpts.00
 Record size in doubles =  12289        No. of grid_pts per rec  =   3070
 Max. records in memory =      6        Max. recs in file   =  47468635


           Memory utilization after 1st SCF pass: 
           Heap Space remaining (MW):        5.23             5229850
          Stack Space remaining (MW):       13.11            13106284

   convergence    iter        energy       DeltaE   RMS-Dens  Diis-err    time
 ---------------- ----- ----------------- --------- --------- ---------  ------
 d= 0,ls=0.0,diis     1   -292.0318586298 -3.18D+02  1.26D-02  4.34D+00     2.7
 d= 0,ls=0.0,diis     2   -292.1127707605 -8.09D-02  3.49D-03  1.62D+00     3.0
 d= 0,ls=0.0,diis     3   -292.1778769551 -6.51D-02  4.91D-04  3.95D-03     3.3
 d= 0,ls=0.0,diis     4   -292.1783825208 -5.06D-04  1.09D-04  4.65D-04     3.7
 d= 0,ls=0.0,diis     5   -292.1784644076 -8.19D-05  6.81D-06  1.24D-06     4.0
 d= 0,ls=0.0,diis     6   -292.1784646127 -2.05D-07  1.75D-06  8.20D-08     4.3


         Total DFT energy =     -292.178464612653
      One electron energy =     -449.614745008634
           Coulomb energy =      154.215741444902
          Exchange energy =      -21.891117195689
       Correlation energy =       -0.611977905024
 Nuclear repulsion energy =       25.723634051793

 Numeric. integr. density =       17.999988825257

     Total iterative time =      3.7s


 
                       DFT Final Molecular Orbital Analysis
                       ------------------------------------
 
 Vector    1  Occ=2.000000D+00  E=-6.596688D+01
              MO Center= -1.7D-04,  1.7D-01,  3.0D-03, r^2= 4.7D-03
   Bfn.  Coefficient  Atom+Function         Bfn.  Coefficient  Atom+Function  
  ----- ------------  ---------------      ----- ------------  ---------------
     2      0.645720  1 Si s                  1      0.418166  1 Si s          
     3      0.026897  1 Si s          
 
 Vector    2  Occ=2.000000D+00  E=-5.410784D+00
              MO Center= -1.7D-04,  1.7D-01,  3.0D-03, r^2= 1.1D-01
   Bfn.  Coefficient  Atom+Function         Bfn.  Coefficient  Atom+Function  
  ----- ------------  ---------------      ----- ------------  ---------------
     3      0.549457  1 Si s                  4      0.549255  1 Si s          
     2     -0.304905  1 Si s                  1     -0.116766  1 Si s          
     5      0.095609  1 Si s                  6     -0.077573  1 Si s          
    22     -0.033935  1 Si s          
 
 Vector    3  Occ=2.000000D+00  E=-3.792991D+00
              MO Center= -1.7D-04,  1.7D-01,  3.0D-03, r^2= 1.0D-01
   Bfn.  Coefficient  Atom+Function         Bfn.  Coefficient  Atom+Function  
  ----- ------------  ---------------      ----- ------------  ---------------
    11      0.688559  1 Si py                 8      0.402432  1 Si py         
    14      0.051692  1 Si py                12      0.030873  1 Si pz         
    17      0.025001  1 Si py         
 
 Vector    4  Occ=2.000000D+00  E=-3.781041D+00
              MO Center= -1.7D-04,  1.7D-01,  3.0D-03, r^2= 1.0D-01
   Bfn.  Coefficient  Atom+Function         Bfn.  Coefficient  Atom+Function  
  ----- ------------  ---------------      ----- ------------  ---------------
    10      0.688942  1 Si px                 7      0.403571  1 Si px         
    13      0.052988  1 Si px         
 
 Vector    5  Occ=2.000000D+00  E=-3.780842D+00
              MO Center= -1.7D-04,  1.7D-01,  2.9D-03, r^2= 1.0D-01
   Bfn.  Coefficient  Atom+Function         Bfn.  Coefficient  Atom+Function  
  ----- ------------  ---------------      ----- ------------  ---------------
    12      0.688265  1 Si pz                 9      0.403181  1 Si pz         
    15      0.052826  1 Si pz                11     -0.030865  1 Si py         
 
 Vector    6  Occ=2.000000D+00  E=-8.186889D-01
              MO Center=  3.3D-04, -8.0D-01, -1.1D-02, r^2= 1.6D+00
   Bfn.  Coefficient  Atom+Function         Bfn.  Coefficient  Atom+Function  
  ----- ------------  ---------------      ----- ------------  ---------------
     6      0.316949  1 Si s                  5      0.292949  1 Si s          
     4     -0.198292  1 Si s                 55      0.172727  2 H  s          
    74      0.172920  3 H  s                 54      0.138387  2 H  s          
    73      0.138463  3 H  s                  3     -0.131362  1 Si s          
    14     -0.057719  1 Si py                 2      0.056943  1 Si s          
 
 Vector    7  Occ=2.000000D+00  E=-6.911140D-01
              MO Center=  8.6D-04, -3.8D-01, -1.7D-02, r^2= 2.4D+00
   Bfn.  Coefficient  Atom+Function         Bfn.  Coefficient  Atom+Function  
  ----- ------------  ---------------      ----- ------------  ---------------
     5      0.356262  1 Si s                 55     -0.197116  2 H  s          
    74     -0.197000  3 H  s                  4     -0.192142  1 Si s          
     6      0.191100  1 Si s                 54     -0.136464  2 H  s          
    73     -0.136456  3 H  s                  3     -0.124101  1 Si s          
    93      0.117840  4 H  s                112      0.116271  5 H  s          
 
 Vector    8  Occ=2.000000D+00  E=-5.925855D-01
              MO Center= -3.4D-02,  1.9D-01,  4.8D-01, r^2= 2.0D+00
   Bfn.  Coefficient  Atom+Function         Bfn.  Coefficient  Atom+Function  
  ----- ------------  ---------------      ----- ------------  ---------------
   112      0.248833  5 H  s                131     -0.241365  6 H  s          
    13     -0.217606  1 Si px               111      0.144906  5 H  s          
   130     -0.140659  6 H  s                 10      0.137312  1 Si px         
    16     -0.124729  1 Si px               113      0.125317  5 H  s          
   132     -0.121409  6 H  s                 34     -0.093415  1 Si dxz        
 
 Vector    9  Occ=2.000000D+00  E=-5.892518D-01
              MO Center=  3.4D-02,  2.6D-01, -4.6D-01, r^2= 2.0D+00
   Bfn.  Coefficient  Atom+Function         Bfn.  Coefficient  Atom+Function  
  ----- ------------  ---------------      ----- ------------  ---------------
    93      0.277459  4 H  s                 15     -0.210348  1 Si pz         
    92      0.166681  4 H  s                 18     -0.158832  1 Si pz         
   131     -0.149044  6 H  s                 12      0.137553  1 Si pz         
   112     -0.136691  5 H  s                 94      0.132913  4 H  s          
   130     -0.087730  6 H  s                111     -0.080401  5 H  s          
 
 Vector   10  Occ=0.000000D+00  E=-3.189473D-01
              MO Center= -2.2D-04,  2.3D-01,  2.7D-03, r^2= 2.7D+00
   Bfn.  Coefficient  Atom+Function         Bfn.  Coefficient  Atom+Function  
  ----- ------------  ---------------      ----- ------------  ---------------
    17      0.549621  1 Si py                20      0.361718  1 Si py         
    14      0.242028  1 Si py                11     -0.170522  1 Si py         
    56      0.160237  2 H  s                 75      0.159741  3 H  s          
    55      0.134183  2 H  s                 74      0.134029  3 H  s          
     8     -0.099233  1 Si py                 5     -0.094638  1 Si s          
 
 Vector   11  Occ=0.000000D+00  E=-2.464347D-01
              MO Center=  6.8D-03, -8.8D-01, -1.1D-01, r^2= 3.3D+00
   Bfn.  Coefficient  Atom+Function         Bfn.  Coefficient  Atom+Function  
  ----- ------------  ---------------      ----- ------------  ---------------
    56      0.549897  2 H  s                 75     -0.551405  3 H  s          
    57      0.453263  2 H  s                 76     -0.453854  3 H  s          
   113      0.330313  5 H  s                 16      0.325308  1 Si px         
   132     -0.325220  6 H  s                 39     -0.314117  1 Si dxy        
    19      0.295141  1 Si px                55      0.270394  2 H  s          
 
 Vector   12  Occ=0.000000D+00  E=-2.220060D-01
              MO Center= -1.5D-03, -2.1D-01,  8.7D-03, r^2= 5.0D+00
   Bfn.  Coefficient  Atom+Function         Bfn.  Coefficient  Atom+Function  
  ----- ------------  ---------------      ----- ------------  ---------------
     6      1.301497  1 Si s                 22      0.652535  1 Si s          
    94     -0.424426  4 H  s                113     -0.393852  5 H  s          
   132     -0.390950  6 H  s                  5      0.369492  1 Si s          
    95     -0.306492  4 H  s                114     -0.294591  5 H  s          
   133     -0.292100  6 H  s                 93     -0.226462  4 H  s          
 
 Vector   13  Occ=0.000000D+00  E=-2.092725D-01
              MO Center= -2.1D-02, -1.2D-01,  3.5D-01, r^2= 3.7D+00
   Bfn.  Coefficient  Atom+Function         Bfn.  Coefficient  Atom+Function  
  ----- ------------  ---------------      ----- ------------  ---------------
    18      0.692935  1 Si pz                95      0.677360  4 H  s          
    94      0.623620  4 H  s                 21      0.565264  1 Si pz         
    25      0.511378  1 Si pz               133     -0.335170  6 H  s          
   132     -0.330635  6 H  s                114     -0.314834  5 H  s          
   113     -0.310653  5 H  s                 42     -0.277610  1 Si dyz        
 
 Vector   14  Occ=0.000000D+00  E=-1.795075D-01
              MO Center=  1.3D-02,  1.3D-02, -2.0D-01, r^2= 4.6D+00
   Bfn.  Coefficient  Atom+Function         Bfn.  Coefficient  Atom+Function  
  ----- ------------  ---------------      ----- ------------  ---------------
    57      1.023486  2 H  s                 76     -1.024027  3 H  s          
    23     -0.828690  1 Si px               114     -0.801947  5 H  s          
   133      0.786339  6 H  s                 16     -0.664796  1 Si px         
    56      0.558929  2 H  s                 75     -0.557330  3 H  s          
    19     -0.435960  1 Si px               113     -0.385347  5 H  s          
 
 Vector   15  Occ=0.000000D+00  E=-1.357705D-01
              MO Center=  8.6D-03, -2.2D-01, -2.2D-01, r^2= 4.1D+00
   Bfn.  Coefficient  Atom+Function         Bfn.  Coefficient  Atom+Function  
  ----- ------------  ---------------      ----- ------------  ---------------
    42      0.967207  1 Si dyz               22      0.545630  1 Si s          
    95      0.486984  4 H  s                133     -0.411315  6 H  s          
   114     -0.393141  5 H  s                 43      0.324627  1 Si dzz        
    94     -0.322501  4 H  s                 38     -0.315778  1 Si dxx        
    36      0.284546  1 Si dyz               25      0.195331  1 Si pz         
 
 Vector   16  Occ=0.000000D+00  E=-1.199824D-01
              MO Center= -1.9D-04,  5.6D-01, -4.6D-04, r^2= 1.2D+01
   Bfn.  Coefficient  Atom+Function         Bfn.  Coefficient  Atom+Function  
  ----- ------------  ---------------      ----- ------------  ---------------
    24      0.586547  1 Si py               114      0.419320  5 H  s          
   133      0.419435  6 H  s                 20     -0.390953  1 Si py         
    95      0.391752  4 H  s                 57     -0.352978  2 H  s          
    76     -0.354481  3 H  s                 22      0.257902  1 Si s          
    41      0.176633  1 Si dyy                5     -0.152830  1 Si s          
 
 Vector   17  Occ=0.000000D+00  E=-1.116722D-01
              MO Center= -3.6D-02,  3.1D-01,  3.4D-01, r^2= 1.2D+01
   Bfn.  Coefficient  Atom+Function         Bfn.  Coefficient  Atom+Function  
  ----- ------------  ---------------      ----- ------------  ---------------
    23      0.933391  1 Si px                19     -0.532840  1 Si px         
   114     -0.370540  5 H  s                133      0.357529  6 H  s          
    39      0.242165  1 Si dxy              132      0.215794  6 H  s          
   113     -0.212120  5 H  s                 16     -0.196427  1 Si px         
    13     -0.143566  1 Si px                40     -0.138348  1 Si dxz        
 
 Vector   18  Occ=0.000000D+00  E=-1.098687D-01
              MO Center=  2.2D-02,  2.8D-01,  2.7D-01, r^2= 1.2D+01
   Bfn.  Coefficient  Atom+Function         Bfn.  Coefficient  Atom+Function  
  ----- ------------  ---------------      ----- ------------  ---------------
    25      0.901517  1 Si pz                21     -0.511896  1 Si pz         
    94     -0.431818  4 H  s                 95     -0.363596  4 H  s          
     6      0.340529  1 Si s                 42      0.288811  1 Si dyz        
   133      0.261641  6 H  s                114      0.245213  5 H  s          
    18     -0.197186  1 Si pz                57      0.184937  2 H  s          
 
 Vector   19  Occ=0.000000D+00  E=-1.073115D-01
              MO Center=  1.2D-02, -1.1D+00, -5.1D-01, r^2= 9.5D+00
   Bfn.  Coefficient  Atom+Function         Bfn.  Coefficient  Atom+Function  
  ----- ------------  ---------------      ----- ------------  ---------------
     6      1.182226  1 Si s                113     -0.740152  5 H  s          
   132     -0.742415  6 H  s                 76      0.703668  3 H  s          
    57      0.699737  2 H  s                 94     -0.578372  4 H  s          
    56     -0.463356  2 H  s                 75     -0.458910  3 H  s          
    20     -0.276271  1 Si py                25     -0.270239  1 Si pz         
 
 Vector   20  Occ=0.000000D+00  E=-5.097351D-02
              MO Center=  7.2D-04,  6.6D-02, -1.4D-03, r^2= 1.6D+01
   Bfn.  Coefficient  Atom+Function         Bfn.  Coefficient  Atom+Function  
  ----- ------------  ---------------      ----- ------------  ---------------
    24      3.181838  1 Si py                22     -2.659850  1 Si s          
    57      2.261678  2 H  s                 76      2.258445  3 H  s          
   114     -0.846856  5 H  s                  6     -0.832439  1 Si s          
   133     -0.828178  6 H  s                 20     -0.741841  1 Si py         
   113      0.744321  5 H  s                132      0.741699  6 H  s          
 
 Vector   21  Occ=0.000000D+00  E=-3.819989D-02
              MO Center=  3.4D-03, -7.9D-01, -6.1D-02, r^2= 1.7D+01
   Bfn.  Coefficient  Atom+Function         Bfn.  Coefficient  Atom+Function  
  ----- ------------  ---------------      ----- ------------  ---------------
   114      4.501346  5 H  s                133     -4.418746  6 H  s          
    57      4.259040  2 H  s                 76     -4.258173  3 H  s          
    23      3.040859  1 Si px               113     -1.410577  5 H  s          
    19     -1.389336  1 Si px               132      1.390701  6 H  s          
    56     -1.100345  2 H  s                 75      1.101016  3 H  s          
 
 Vector   22  Occ=0.000000D+00  E=-3.406177D-02
              MO Center= -1.3D-02,  1.2D-01,  2.3D-01, r^2= 1.7D+01
   Bfn.  Coefficient  Atom+Function         Bfn.  Coefficient  Atom+Function  
  ----- ------------  ---------------      ----- ------------  ---------------
    95      6.861138  4 H  s                 25      5.294609  1 Si pz         
   133     -3.521721  6 H  s                114     -3.316093  5 H  s          
    94     -2.106458  4 H  s                 21     -2.072091  1 Si pz         
   132      1.049396  6 H  s                 18     -1.039893  1 Si pz         
   113      0.986480  5 H  s                 24     -0.322128  1 Si py         
 
 Vector   23  Occ=0.000000D+00  E=-2.589169D-02
              MO Center=  1.0D-02, -5.0D-01, -2.1D-01, r^2= 1.7D+01
   Bfn.  Coefficient  Atom+Function         Bfn.  Coefficient  Atom+Function  
  ----- ------------  ---------------      ----- ------------  ---------------
    57      7.245547  2 H  s                 76     -7.265637  3 H  s          
    23     -5.309106  1 Si px               114     -4.215466  5 H  s          
   133      4.094773  6 H  s                 56     -2.192954  2 H  s          
    75      2.194580  3 H  s                 19      2.102560  1 Si px         
   113      1.557218  5 H  s                132     -1.520243  6 H  s          
 
 Vector   24  Occ=0.000000D+00  E=-1.839367D-02
              MO Center=  1.5D-03,  4.2D-03, -1.1D-02, r^2= 1.9D+01
   Bfn.  Coefficient  Atom+Function         Bfn.  Coefficient  Atom+Function  
  ----- ------------  ---------------      ----- ------------  ---------------
    22     22.496598  1 Si s                 95     -6.422526  4 H  s          
   133     -6.244076  6 H  s                114     -6.207594  5 H  s          
    57     -2.358163  2 H  s                 76     -2.299516  3 H  s          
    24     -1.787106  1 Si py                 6     -1.514146  1 Si s          
     5     -0.383167  1 Si s                 43     -0.366802  1 Si dzz        
 
 Vector   25  Occ=0.000000D+00  E= 5.950015D-03
              MO Center= -3.7D-03, -3.0D-01,  7.4D-02, r^2= 5.7D+00
   Bfn.  Coefficient  Atom+Function         Bfn.  Coefficient  Atom+Function  
  ----- ------------  ---------------      ----- ------------  ---------------
    56      3.127309  2 H  s                 75     -3.131209  3 H  s          
    39      1.851154  1 Si dxy               57     -1.347492  2 H  s          
    76      1.336163  3 H  s                 40      0.818911  1 Si dxz        
   113      0.783920  5 H  s                132     -0.773909  6 H  s          
    19      0.524622  1 Si px                55      0.437525  2 H  s          
 
 Vector   26  Occ=0.000000D+00  E= 4.516651D-02
              MO Center= -2.0D-03,  6.0D-01,  1.3D-02, r^2= 1.2D+01
   Bfn.  Coefficient  Atom+Function         Bfn.  Coefficient  Atom+Function  
  ----- ------------  ---------------      ----- ------------  ---------------
     6      3.492471  1 Si s                 17      3.021713  1 Si py         
   113     -2.215498  5 H  s                132     -2.211654  6 H  s          
    94     -1.802887  4 H  s                 20     -1.777389  1 Si py         
    41     -1.301586  1 Si dyy               24      1.076245  1 Si py         
    22      1.046773  1 Si s                 45     -0.976392  1 Si fxxy       
 
 Vector   27  Occ=0.000000D+00  E= 5.802987D-02
              MO Center=  1.1D-03,  1.7D-01, -4.0D-03, r^2= 1.4D+01
   Bfn.  Coefficient  Atom+Function         Bfn.  Coefficient  Atom+Function  
  ----- ------------  ---------------      ----- ------------  ---------------
    21      4.652811  1 Si pz                18     -3.417575  1 Si pz         
    25     -2.578625  1 Si pz                94      1.449651  4 H  s          
    53      1.119970  1 Si fzzz              46      1.103169  1 Si fxxz       
    51      1.071544  1 Si fyyz             132     -0.621145  6 H  s          
    15      0.600925  1 Si pz               113     -0.578210  5 H  s          
 
 Vector   28  Occ=0.000000D+00  E= 5.959505D-02
              MO Center= -3.0D-03,  4.0D-01,  4.4D-02, r^2= 1.3D+01
   Bfn.  Coefficient  Atom+Function         Bfn.  Coefficient  Atom+Function  
  ----- ------------  ---------------      ----- ------------  ---------------
    16      3.950580  1 Si px                19     -3.862445  1 Si px         
    23      2.533904  1 Si px                44     -1.219723  1 Si fxxx       
    49     -1.218309  1 Si fxzz              47     -1.197600  1 Si fxyy       
    57     -1.195013  2 H  s                 76      1.196876  3 H  s          
    56      0.752380  2 H  s                 75     -0.750211  3 H  s          
 
 Vector   29  Occ=0.000000D+00  E= 7.312854D-02
              MO Center=  1.4D-02, -1.6D-01, -2.7D-01, r^2= 6.3D+00
   Bfn.  Coefficient  Atom+Function         Bfn.  Coefficient  Atom+Function  
  ----- ------------  ---------------      ----- ------------  ---------------
    94      5.684308  4 H  s                 18      3.809098  1 Si pz         
    21      3.581765  1 Si pz               132     -2.875024  6 H  s          
   113     -2.703736  5 H  s                 95     -2.361410  4 H  s          
    38      1.828760  1 Si dxx               43     -1.718759  1 Si dzz        
    25     -1.593022  1 Si pz                42      1.417278  1 Si dyz        
 
 Vector   30  Occ=0.000000D+00  E= 8.867443D-02
              MO Center=  2.0D-04,  4.0D-01, -6.4D-03, r^2= 9.4D+00
   Bfn.  Coefficient  Atom+Function         Bfn.  Coefficient  Atom+Function  
  ----- ------------  ---------------      ----- ------------  ---------------
    20      4.762324  1 Si py                22      4.450870  1 Si s          
    24     -3.219312  1 Si py                 6      3.181013  1 Si s          
    41     -2.302766  1 Si dyy               17     -2.198447  1 Si py         
   113     -2.196095  5 H  s                132     -2.189810  6 H  s          
    94     -2.149889  4 H  s                 57     -1.496943  2 H  s          
 
 Vector   31  Occ=0.000000D+00  E= 1.274796D-01
              MO Center=  1.1D-04, -1.3D+00, -5.3D-02, r^2= 1.1D+01
   Bfn.  Coefficient  Atom+Function         Bfn.  Coefficient  Atom+Function  
  ----- ------------  ---------------      ----- ------------  ---------------
    22      6.764586  1 Si s                  6      5.161121  1 Si s          
    75     -3.319597  3 H  s                 56     -3.281855  2 H  s          
    20     -2.844047  1 Si py                95     -2.065922  4 H  s          
   114     -2.064350  5 H  s                133     -2.059633  6 H  s          
    17     -1.918013  1 Si py                94     -1.759431  4 H  s          
 
 Vector   32  Occ=0.000000D+00  E= 1.483673D-01
              MO Center=  1.9D-03,  2.6D-01, -7.7D-03, r^2= 4.8D+00
   Bfn.  Coefficient  Atom+Function         Bfn.  Coefficient  Atom+Function  
  ----- ------------  ---------------      ----- ------------  ---------------
    56      1.512199  2 H  s                 75     -1.511205  3 H  s          
    57     -0.852091  2 H  s                 76      0.844716  3 H  s          
   102      0.734205  4 H  px               123     -0.650301  5 H  pz         
   142      0.641483  6 H  pz                83     -0.399834  3 H  px         
    55      0.393893  2 H  s                 64     -0.394695  2 H  px         
 
 Vector   33  Occ=0.000000D+00  E= 1.493719D-01
              MO Center= -5.6D-03,  2.4D-01,  5.3D-02, r^2= 8.5D+00
   Bfn.  Coefficient  Atom+Function         Bfn.  Coefficient  Atom+Function  
  ----- ------------  ---------------      ----- ------------  ---------------
    19      8.378635  1 Si px               113      7.625368  5 H  s          
   132     -7.434862  6 H  s                 40      4.815277  1 Si dxz        
    23     -4.340891  1 Si px               114     -3.606773  5 H  s          
   133      3.514739  6 H  s                 16      2.805866  1 Si px         
    75      2.657133  3 H  s                 56     -2.616635  2 H  s          
 
 Vector   34  Occ=0.000000D+00  E= 1.630269D-01
              MO Center= -1.5D-03, -2.8D-01, -8.6D-02, r^2= 6.1D+00
   Bfn.  Coefficient  Atom+Function         Bfn.  Coefficient  Atom+Function  
  ----- ------------  ---------------      ----- ------------  ---------------
    21      4.047693  1 Si pz                94      3.759158  4 H  s          
   113     -2.674222  5 H  s                132     -2.632679  6 H  s          
    22     -2.442962  1 Si s                 25     -1.859923  1 Si pz         
     6      1.752876  1 Si s                114      1.542042  5 H  s          
   133      1.507334  6 H  s                 42      1.403768  1 Si dyz        
 
 Vector   35  Occ=0.000000D+00  E= 1.743322D-01
              MO Center=  1.3D-03, -3.9D-01, -1.3D-02, r^2= 1.0D+01
   Bfn.  Coefficient  Atom+Function         Bfn.  Coefficient  Atom+Function  
  ----- ------------  ---------------      ----- ------------  ---------------
    22     16.742157  1 Si s                 95     -3.334097  4 H  s          
    24     -3.249473  1 Si py                 6      3.206200  1 Si s          
   114     -3.140176  5 H  s                133     -3.139251  6 H  s          
    57     -2.954482  2 H  s                 76     -2.845080  3 H  s          
    43     -2.811364  1 Si dzz               38     -2.755577  1 Si dxx        
 
 Vector   36  Occ=0.000000D+00  E= 1.787887D-01
              MO Center=  1.0D-02, -3.6D-01, -6.0D-02, r^2= 9.0D+00
   Bfn.  Coefficient  Atom+Function         Bfn.  Coefficient  Atom+Function  
  ----- ------------  ---------------      ----- ------------  ---------------
    19      8.307461  1 Si px               113      7.771093  5 H  s          
   132     -7.785920  6 H  s                 23     -4.788340  1 Si px         
   133      4.648372  6 H  s                114     -4.597116  5 H  s          
    16      4.319650  1 Si px                40      4.229542  1 Si dxz        
    56     -3.041959  2 H  s                 75      3.010659  3 H  s          
 
 Vector   37  Occ=0.000000D+00  E= 2.036144D-01
              MO Center=  4.8D-04,  7.0D-02, -4.9D-01, r^2= 1.1D+01
   Bfn.  Coefficient  Atom+Function         Bfn.  Coefficient  Atom+Function  
  ----- ------------  ---------------      ----- ------------  ---------------
    22      9.734870  1 Si s                 94      9.122955  4 H  s          
    95     -7.582832  4 H  s                 21      5.848919  1 Si pz         
     6     -3.979929  1 Si s                 25     -3.812864  1 Si pz         
    43     -2.442805  1 Si dzz               18      1.879710  1 Si pz         
    17      1.296081  1 Si py                41     -1.172899  1 Si dyy        
 
 Vector   38  Occ=0.000000D+00  E= 2.094718D-01
              MO Center=  1.9D-03, -1.6D+00,  9.2D-02, r^2= 9.6D+00
   Bfn.  Coefficient  Atom+Function         Bfn.  Coefficient  Atom+Function  
  ----- ------------  ---------------      ----- ------------  ---------------
    56     10.632908  2 H  s                 75    -10.643256  3 H  s          
    76      7.283052  3 H  s                 57     -7.242888  2 H  s          
    19     -2.144082  1 Si px                64     -2.028844  2 H  px         
    83     -1.993700  3 H  px                23      1.311237  1 Si px         
    74     -0.954443  3 H  s                 55      0.925675  2 H  s          
 
 Vector   39  Occ=0.000000D+00  E= 2.136707D-01
              MO Center= -1.1D-02,  2.9D-01,  5.1D-01, r^2= 9.9D+00
   Bfn.  Coefficient  Atom+Function         Bfn.  Coefficient  Atom+Function  
  ----- ------------  ---------------      ----- ------------  ---------------
    22     11.565383  1 Si s                114     -5.368593  5 H  s          
   133     -5.385328  6 H  s                132      5.137661  6 H  s          
   113      5.082557  5 H  s                 21     -4.172338  1 Si pz         
     6     -2.875758  1 Si s                 25      2.875405  1 Si pz         
    38     -2.401142  1 Si dxx               41     -2.271075  1 Si dyy        
 
 Vector   40  Occ=0.000000D+00  E= 2.925072D-01
              MO Center= -1.3D-02, -2.2D-01,  2.1D-01, r^2= 6.3D+00
   Bfn.  Coefficient  Atom+Function         Bfn.  Coefficient  Atom+Function  
  ----- ------------  ---------------      ----- ------------  ---------------
    56      4.586678  2 H  s                 75     -4.564990  3 H  s          
    57     -1.889195  2 H  s                 76      1.879487  3 H  s          
   114      1.774964  5 H  s                133     -1.753375  6 H  s          
    16     -1.427830  1 Si px               113     -1.417365  5 H  s          
   132      1.372821  6 H  s                 23      1.279794  1 Si px         
 
 Vector   41  Occ=0.000000D+00  E= 3.113802D-01
              MO Center=  1.5D-02, -5.3D-02, -2.4D-01, r^2= 5.8D+00
   Bfn.  Coefficient  Atom+Function         Bfn.  Coefficient  Atom+Function  
  ----- ------------  ---------------      ----- ------------  ---------------
    21      1.774538  1 Si pz                95      1.472686  4 H  s          
    93      1.224510  4 H  s                 42     -1.035837  1 Si dyz        
    94     -0.784374  4 H  s                123     -0.696675  5 H  pz         
   142     -0.694072  6 H  pz                18     -0.688073  1 Si pz         
    22     -0.663883  1 Si s                131     -0.602746  6 H  s          
 
 Vector   42  Occ=0.000000D+00  E= 3.172383D-01
              MO Center= -6.4D-03, -3.0D-01,  1.4D-01, r^2= 6.0D+00
   Bfn.  Coefficient  Atom+Function         Bfn.  Coefficient  Atom+Function  
  ----- ------------  ---------------      ----- ------------  ---------------
    17      2.571075  1 Si py                94     -2.091355  4 H  s          
   132     -1.797561  6 H  s                113     -1.781762  5 H  s          
     6      1.688750  1 Si s                 75      1.194859  3 H  s          
    56      1.183092  2 H  s                 22     -1.057437  1 Si s          
    20     -0.993675  1 Si py               122      0.932576  5 H  py         
 
 Vector   43  Occ=0.000000D+00  E= 3.627164D-01
              MO Center= -3.8D-03, -4.0D-01, -1.2D-02, r^2= 5.9D+00
   Bfn.  Coefficient  Atom+Function         Bfn.  Coefficient  Atom+Function  
  ----- ------------  ---------------      ----- ------------  ---------------
    39      4.115116  1 Si dxy               75     -2.520070  3 H  s          
    56      2.400386  2 H  s                 16      1.732004  1 Si px         
   113      1.476973  5 H  s                 66     -1.315348  2 H  pz         
    85      1.308938  3 H  pz                84     -1.225249  3 H  py         
    65      1.183042  2 H  py               132     -1.166023  6 H  s          
 
 Vector   44  Occ=0.000000D+00  E= 3.685806D-01
              MO Center=  5.3D-03, -3.2D-01,  7.3D-02, r^2= 6.0D+00
   Bfn.  Coefficient  Atom+Function         Bfn.  Coefficient  Atom+Function  
  ----- ------------  ---------------      ----- ------------  ---------------
    17      3.736195  1 Si py                 6      3.010826  1 Si s          
    42      2.652613  1 Si dyz               18      2.483853  1 Si pz         
   132     -2.390912  6 H  s                113     -2.271501  5 H  s          
    22     -1.376283  1 Si s                 45     -1.254108  1 Si fxxy       
    52     -1.255719  1 Si fyzz              50     -1.168068  1 Si fyyy       
 
 Vector   45  Occ=0.000000D+00  E= 4.208793D-01
              MO Center= -2.0D-02,  1.0D-01, -2.6D-01, r^2= 6.0D+00
   Bfn.  Coefficient  Atom+Function         Bfn.  Coefficient  Atom+Function  
  ----- ------------  ---------------      ----- ------------  ---------------
     6     14.023915  1 Si s                 17      6.080997  1 Si py         
   132     -5.658045  6 H  s                 41     -4.441150  1 Si dyy        
   113     -4.268227  5 H  s                 94     -3.269926  4 H  s          
     5     -2.299012  1 Si s                 56      2.211990  2 H  s          
    20      2.195703  1 Si py                50     -2.071308  1 Si fyyy       
 
 Vector   46  Occ=0.000000D+00  E= 4.225783D-01
              MO Center=  2.8D-02, -2.9D-02,  1.3D-01, r^2= 6.0D+00
   Bfn.  Coefficient  Atom+Function         Bfn.  Coefficient  Atom+Function  
  ----- ------------  ---------------      ----- ------------  ---------------
   113      6.135300  5 H  s                 40      5.764627  1 Si dxz        
   132     -4.792873  6 H  s                 16      4.613110  1 Si px         
    75     -3.456691  3 H  s                 56      3.090124  2 H  s          
    19      2.321225  1 Si px                 6     -1.749213  1 Si s          
    47     -1.618068  1 Si fxyy             121      1.462293  5 H  px         
 
 Vector   47  Occ=0.000000D+00  E= 4.486332D-01
              MO Center=  3.4D-03, -1.5D-01,  1.4D-01, r^2= 7.6D+00
   Bfn.  Coefficient  Atom+Function         Bfn.  Coefficient  Atom+Function  
  ----- ------------  ---------------      ----- ------------  ---------------
    94      6.682453  4 H  s                 20     -6.332521  1 Si py         
     6      6.270968  1 Si s                 18      5.725636  1 Si pz         
    75     -4.659900  3 H  s                 17     -4.595130  1 Si py         
    56     -4.617813  2 H  s                 43     -3.968748  1 Si dzz        
    21      3.905984  1 Si pz               132     -3.539408  6 H  s          
 
 Vector   48  Occ=0.000000D+00  E= 4.595028D-01
              MO Center=  1.1D-02,  2.4D-01, -4.7D-01, r^2= 5.4D+00
   Bfn.  Coefficient  Atom+Function         Bfn.  Coefficient  Atom+Function  
  ----- ------------  ---------------      ----- ------------  ---------------
    18     10.704814  1 Si pz                94      9.763598  4 H  s          
     6     -5.058775  1 Si s                 21      5.009760  1 Si pz         
   132     -4.269371  6 H  s                113     -4.000269  5 H  s          
    38      3.529356  1 Si dxx               51     -3.163466  1 Si fyyz       
    46     -2.958392  1 Si fxxz              53     -2.935049  1 Si fzzz       
 
 Vector   49  Occ=0.000000D+00  E= 4.863743D-01
              MO Center=  7.2D-03,  2.4D-03, -9.0D-02, r^2= 4.2D+00
   Bfn.  Coefficient  Atom+Function         Bfn.  Coefficient  Atom+Function  
  ----- ------------  ---------------      ----- ------------  ---------------
    18      8.434469  1 Si pz                94      8.473441  4 H  s          
     6     -5.372659  1 Si s                 21      4.699201  1 Si pz         
   132     -2.963931  6 H  s                113     -2.854504  5 H  s          
    38      2.777803  1 Si dxx               51     -2.591221  1 Si fyyz       
    46     -2.274416  1 Si fxxz             104      2.096223  4 H  pz         
 
 Vector   50  Occ=0.000000D+00  E= 4.972248D-01
              MO Center= -7.9D-03,  1.4D-01, -3.0D-02, r^2= 6.3D+00
   Bfn.  Coefficient  Atom+Function         Bfn.  Coefficient  Atom+Function  
  ----- ------------  ---------------      ----- ------------  ---------------
    16     16.208773  1 Si px               113      5.780157  5 H  s          
   132     -5.716206  6 H  s                 47     -5.569972  1 Si fxyy       
    44     -5.160072  1 Si fxxx              49     -5.151886  1 Si fxzz       
    13     -4.217261  1 Si px                19      2.629283  1 Si px         
   114     -1.640808  5 H  s                133      1.648679  6 H  s          
 
 Vector   51  Occ=0.000000D+00  E= 5.071174D-01
              MO Center= -2.1D-02, -8.6D-02,  4.1D-01, r^2= 6.3D+00
   Bfn.  Coefficient  Atom+Function         Bfn.  Coefficient  Atom+Function  
  ----- ------------  ---------------      ----- ------------  ---------------
    18     10.130536  1 Si pz                 6      8.734715  1 Si s          
    53     -4.192746  1 Si fzzz              51     -4.158323  1 Si fyyz       
    46     -3.833467  1 Si fxxz              21     -3.685194  1 Si pz         
    94     -3.409394  4 H  s                 15     -3.271565  1 Si pz         
    38     -3.055442  1 Si dxx               17     -1.463282  1 Si py         
 
 Vector   52  Occ=0.000000D+00  E= 5.229563D-01
              MO Center= -1.1D-03, -2.9D-01, -9.2D-02, r^2= 5.1D+00
   Bfn.  Coefficient  Atom+Function         Bfn.  Coefficient  Atom+Function  
  ----- ------------  ---------------      ----- ------------  ---------------
    19      5.410136  1 Si px               113      4.313443  5 H  s          
   132     -4.212009  6 H  s                 16     -2.706532  1 Si px         
    23     -2.388947  1 Si px                49      2.171517  1 Si fxzz       
    44      2.154742  1 Si fxxx              47      1.654571  1 Si fxyy       
    13      1.595623  1 Si px               114     -1.391924  5 H  s          
 
 Vector   53  Occ=0.000000D+00  E= 5.436288D-01
              MO Center=  3.8D-02,  2.2D-01, -2.1D-01, r^2= 6.1D+00
   Bfn.  Coefficient  Atom+Function         Bfn.  Coefficient  Atom+Function  
  ----- ------------  ---------------      ----- ------------  ---------------
   113     11.457864  5 H  s                 19     11.108417  1 Si px         
   132    -10.831279  6 H  s                 40     10.548418  1 Si dxz        
    75      6.448946  3 H  s                 56     -6.399369  2 H  s          
    16      5.977935  1 Si px                23     -3.453286  1 Si px         
    39     -2.627135  1 Si dxy              114     -2.616375  5 H  s          
 
 Vector   54  Occ=0.000000D+00  E= 5.468915D-01
              MO Center= -2.1D-02, -5.9D-02,  1.6D-01, r^2= 6.3D+00
   Bfn.  Coefficient  Atom+Function         Bfn.  Coefficient  Atom+Function  
  ----- ------------  ---------------      ----- ------------  ---------------
     6      8.867040  1 Si s                 18     -4.784164  1 Si pz         
   132     -4.443097  6 H  s                 21      4.331937  1 Si pz         
    17     -3.876536  1 Si py                46      3.133288  1 Si fxxz       
   113     -2.912089  5 H  s                 53      2.841811  1 Si fzzz       
    51      2.313179  1 Si fyyz              94      2.242906  4 H  s          
 
 Vector   55  Occ=0.000000D+00  E= 5.776888D-01
              MO Center=  2.0D-03,  1.2D-01, -6.6D-02, r^2= 6.3D+00
   Bfn.  Coefficient  Atom+Function         Bfn.  Coefficient  Atom+Function  
  ----- ------------  ---------------      ----- ------------  ---------------
    17     17.760832  1 Si py                 6    -10.830050  1 Si s          
    50     -6.891549  1 Si fyyy              52     -6.537703  1 Si fyzz       
    45     -6.475679  1 Si fxxy              14     -5.308546  1 Si py         
    94      3.840188  4 H  s                113      2.046867  5 H  s          
   132      2.033980  6 H  s                 20     -1.698599  1 Si py         
 
 Vector   56  Occ=0.000000D+00  E= 6.303838D-01
              MO Center= -8.7D-03, -4.0D-01,  1.8D-01, r^2= 5.4D+00
   Bfn.  Coefficient  Atom+Function         Bfn.  Coefficient  Atom+Function  
  ----- ------------  ---------------      ----- ------------  ---------------
    16      8.170587  1 Si px                40      5.466296  1 Si dxz        
    56     -4.488770  2 H  s                 75      4.464578  3 H  s          
    47     -3.632714  1 Si fxyy              44     -3.121279  1 Si fxxx       
    49     -3.110039  1 Si fxzz              13     -2.579074  1 Si px         
    65     -2.469313  2 H  py                84      2.453228  3 H  py         
 
 Vector   57  Occ=0.000000D+00  E= 7.088879D-01
              MO Center= -9.8D-03, -1.7D+00, -2.7D-02, r^2= 4.9D+00
   Bfn.  Coefficient  Atom+Function         Bfn.  Coefficient  Atom+Function  
  ----- ------------  ---------------      ----- ------------  ---------------
    75    -12.918666  3 H  s                 56     12.733814  2 H  s          
    55      6.851267  2 H  s                 74     -6.838481  3 H  s          
    83     -5.161274  3 H  px                64     -5.135360  2 H  px         
    76      4.265744  3 H  s                 57     -4.239040  2 H  s          
    16      2.463818  1 Si px                44     -1.131998  1 Si fxxx       
 
 Vector   58  Occ=0.000000D+00  E= 7.341034D-01
              MO Center=  4.3D-03,  1.1D-03,  9.4D-02, r^2= 5.0D+00
   Bfn.  Coefficient  Atom+Function         Bfn.  Coefficient  Atom+Function  
  ----- ------------  ---------------      ----- ------------  ---------------
     6     14.284609  1 Si s                 22      7.300146  1 Si s          
    17      4.547095  1 Si py                41     -4.537038  1 Si dyy        
     5     -3.783777  1 Si s                 43     -3.657696  1 Si dzz        
    38     -3.205894  1 Si dxx              113     -2.788120  5 H  s          
   132     -2.784808  6 H  s                 56      2.017857  2 H  s          
 
 Vector   59  Occ=0.000000D+00  E= 7.575533D-01
              MO Center=  1.1D-02,  7.6D-02, -1.1D-01, r^2= 4.2D+00
   Bfn.  Coefficient  Atom+Function         Bfn.  Coefficient  Atom+Function  
  ----- ------------  ---------------      ----- ------------  ---------------
    22     -5.713521  1 Si s                 18      5.514914  1 Si pz         
     6     -4.114137  1 Si s                 94      3.622582  4 H  s          
   132     -3.580452  6 H  s                113     -3.451807  5 H  s          
     5      3.029558  1 Si s                 38      2.810436  1 Si dxx        
    21      2.133620  1 Si pz               133      2.113027  6 H  s          
 
 Vector   60  Occ=0.000000D+00  E= 7.752397D-01
              MO Center=  3.1D-03,  7.4D-02, -2.3D-01, r^2= 5.6D+00
   Bfn.  Coefficient  Atom+Function         Bfn.  Coefficient  Atom+Function  
  ----- ------------  ---------------      ----- ------------  ---------------
    22     10.436287  1 Si s                 94      6.336653  4 H  s          
     5     -6.147518  1 Si s                 17     -5.228084  1 Si py         
    43     -4.700538  1 Si dzz               38     -4.424998  1 Si dxx        
    95     -3.615751  4 H  s                  6      3.535630  1 Si s          
   113      3.517895  5 H  s                132      3.428562  6 H  s          
 
 Vector   61  Occ=0.000000D+00  E= 8.769686D-01
              MO Center= -1.2D-02, -3.9D-02,  1.9D-01, r^2= 4.4D+00
   Bfn.  Coefficient  Atom+Function         Bfn.  Coefficient  Atom+Function  
  ----- ------------  ---------------      ----- ------------  ---------------
    16     12.696423  1 Si px               113      6.103646  5 H  s          
   132     -6.006622  6 H  s                 75      4.646932  3 H  s          
    56     -4.619920  2 H  s                 49     -4.503573  1 Si fxzz       
    44     -3.918810  1 Si fxxx              19      3.610479  1 Si px         
    40      3.486660  1 Si dxz               13     -2.727005  1 Si px         
 
 Vector   62  Occ=0.000000D+00  E= 8.797664D-01
              MO Center=  1.9D-02,  1.6D-01,  6.4D-03, r^2= 3.1D+00
   Bfn.  Coefficient  Atom+Function         Bfn.  Coefficient  Atom+Function  
  ----- ------------  ---------------      ----- ------------  ---------------
    18      2.633967  1 Si pz                94      1.999251  4 H  s          
   132     -1.943112  6 H  s                 45     -1.859755  1 Si fxxy       
    16      1.635009  1 Si px                49      1.544456  1 Si fxzz       
    42     -1.383153  1 Si dyz               52      1.350889  1 Si fyzz       
    21      1.228690  1 Si pz                44     -1.208635  1 Si fxxx       
 
 Vector   63  Occ=0.000000D+00  E= 8.798725D-01
              MO Center= -1.9D-02,  1.6D-01,  6.9D-03, r^2= 3.1D+00
   Bfn.  Coefficient  Atom+Function         Bfn.  Coefficient  Atom+Function  
  ----- ------------  ---------------      ----- ------------  ---------------
    18      2.602441  1 Si pz                94      2.020459  4 H  s          
   113     -1.969034  5 H  s                 45     -1.845654  1 Si fxxy       
    16     -1.784603  1 Si px                49     -1.529400  1 Si fxzz       
    42     -1.378755  1 Si dyz               52      1.349452  1 Si fyzz       
    44      1.263331  1 Si fxxx              21      1.222458  1 Si pz         
 
 Vector   64  Occ=0.000000D+00  E= 8.873081D-01
              MO Center= -7.0D-03,  1.4D-01,  1.3D-01, r^2= 3.6D+00
   Bfn.  Coefficient  Atom+Function         Bfn.  Coefficient  Atom+Function  
  ----- ------------  ---------------      ----- ------------  ---------------
    16      8.743638  1 Si px               113      5.610409  5 H  s          
   132     -5.513187  6 H  s                 48     -4.263961  1 Si fxyz       
    19      4.106041  1 Si px                40      3.566263  1 Si dxz        
    39     -3.240542  1 Si dxy               49     -2.902163  1 Si fxzz       
    44     -2.538753  1 Si fxxx              56     -2.519862  2 H  s          
 
 Vector   65  Occ=0.000000D+00  E= 9.755078D-01
              MO Center=  7.9D-04,  6.5D-02, -1.3D-02, r^2= 3.7D+00
   Bfn.  Coefficient  Atom+Function         Bfn.  Coefficient  Atom+Function  
  ----- ------------  ---------------      ----- ------------  ---------------
    17      9.775361  1 Si py                52     -5.014195  1 Si fyzz       
    45     -4.895931  1 Si fxxy              14     -2.635078  1 Si py         
    41     -2.623849  1 Si dyy               56      2.565012  2 H  s          
    75      2.541951  3 H  s                  6     -2.128260  1 Si s          
    50     -2.048482  1 Si fyyy              94     -1.841732  4 H  s          
 
 Vector   66  Occ=0.000000D+00  E= 1.045478D+00
              MO Center=  1.3D-02,  6.8D-02, -2.4D-01, r^2= 3.9D+00
   Bfn.  Coefficient  Atom+Function         Bfn.  Coefficient  Atom+Function  
  ----- ------------  ---------------      ----- ------------  ---------------
    18     14.468067  1 Si pz                94      8.137976  4 H  s          
    51     -5.806549  1 Si fyyz             132     -4.232709  6 H  s          
   113     -3.979139  5 H  s                 53     -3.313125  1 Si fzzz       
    46     -3.136361  1 Si fxxz             104      3.065805  4 H  pz         
    21      3.032068  1 Si pz                15     -2.864065  1 Si pz         
 
 Vector   67  Occ=0.000000D+00  E= 1.102134D+00
              MO Center= -8.7D-03,  1.6D-01,  1.7D-01, r^2= 3.7D+00
   Bfn.  Coefficient  Atom+Function         Bfn.  Coefficient  Atom+Function  
  ----- ------------  ---------------      ----- ------------  ---------------
    16     12.789080  1 Si px               113      7.810387  5 H  s          
   132     -7.650231  6 H  s                 47     -6.226609  1 Si fxyy       
    40      5.655095  1 Si dxz               19      4.150479  1 Si px         
    13     -2.425678  1 Si px                44     -2.431311  1 Si fxxx       
    49     -2.371017  1 Si fxzz             121      2.335023  5 H  px         
 
 Vector   68  Occ=0.000000D+00  E= 1.191737D+00
              MO Center=  5.1D-04, -8.3D-02, -8.4D-04, r^2= 3.5D+00
   Bfn.  Coefficient  Atom+Function         Bfn.  Coefficient  Atom+Function  
  ----- ------------  ---------------      ----- ------------  ---------------
     6     21.541211  1 Si s                  5     -5.237316  1 Si s          
    46      4.284444  1 Si fxxz              41     -4.091933  1 Si dyy        
   132     -3.387573  6 H  s                113     -3.345987  5 H  s          
    94     -3.190250  4 H  s                112     -2.636522  5 H  s          
   131     -2.645231  6 H  s                 93     -2.598449  4 H  s          
 
 Vector   69  Occ=0.000000D+00  E= 1.294833D+00
              MO Center=  4.2D-03, -1.1D+00, -5.8D-02, r^2= 3.4D+00
   Bfn.  Coefficient  Atom+Function         Bfn.  Coefficient  Atom+Function  
  ----- ------------  ---------------      ----- ------------  ---------------
     6      8.449008  1 Si s                 22     -2.453351  1 Si s          
    20     -2.321654  1 Si py                55     -2.065108  2 H  s          
    74     -2.046412  3 H  s                  5     -1.745903  1 Si s          
    17     -1.500376  1 Si py                75     -1.294443  3 H  s          
    65     -1.281952  2 H  py                84     -1.275307  3 H  py         
 
 Vector   70  Occ=0.000000D+00  E= 1.419997D+00
              MO Center=  8.8D-04, -1.3D+00, -1.4D-03, r^2= 2.6D+00
   Bfn.  Coefficient  Atom+Function         Bfn.  Coefficient  Atom+Function  
  ----- ------------  ---------------      ----- ------------  ---------------
    94      6.241693  4 H  s                 18      4.848678  1 Si pz         
    21      4.538912  1 Si pz               132     -2.809896  6 H  s          
   113     -2.628368  5 H  s                  6     -2.517388  1 Si s          
    38      2.379769  1 Si dxx               51     -2.060662  1 Si fyyz       
    43     -1.795315  1 Si dzz               93      1.752614  4 H  s          
 
 Vector   71  Occ=0.000000D+00  E= 1.491563D+00
              MO Center= -3.0D-03,  1.4D-01,  7.2D-02, r^2= 3.4D+00
   Bfn.  Coefficient  Atom+Function         Bfn.  Coefficient  Atom+Function  
  ----- ------------  ---------------      ----- ------------  ---------------
    18      5.291065  1 Si pz                53     -4.418888  1 Si fzzz       
    46     -4.374703  1 Si fxxz              51     -4.131515  1 Si fyyz       
    21     -2.795392  1 Si pz                93     -2.544882  4 H  s          
    94     -2.154782  4 H  s                131      1.382101  6 H  s          
   112      1.303046  5 H  s                104     -1.256483  4 H  pz         
 
 Vector   72  Occ=0.000000D+00  E= 1.510325D+00
              MO Center=  9.4D-03,  1.7D-01, -1.8D-01, r^2= 3.4D+00
   Bfn.  Coefficient  Atom+Function         Bfn.  Coefficient  Atom+Function  
  ----- ------------  ---------------      ----- ------------  ---------------
    19      5.078134  1 Si px                16     -4.504899  1 Si px         
    44      4.488161  1 Si fxxx              49      4.495931  1 Si fxzz       
    47      4.125491  1 Si fxyy             113      3.832839  5 H  s          
   132     -3.779768  6 H  s                 40      2.903901  1 Si dxz        
    56     -2.704780  2 H  s                 75      2.717069  3 H  s          
 
 Vector   73  Occ=0.000000D+00  E= 1.520034D+00
              MO Center=  2.1D-03, -6.7D-01, -4.8D-02, r^2= 3.5D+00
   Bfn.  Coefficient  Atom+Function         Bfn.  Coefficient  Atom+Function  
  ----- ------------  ---------------      ----- ------------  ---------------
     6     10.418902  1 Si s                 17    -10.393324  1 Si py         
    52      5.689056  1 Si fyzz              45      5.192882  1 Si fxxy       
    50      4.278477  1 Si fyyy               5     -2.545855  1 Si s          
    20      2.395580  1 Si py                14      2.265383  1 Si py         
    41     -2.022535  1 Si dyy               43     -1.729533  1 Si dzz        
 
 Vector   74  Occ=0.000000D+00  E= 1.652945D+00
              MO Center= -4.2D-01, -6.3D-02,  4.3D-01, r^2= 3.0D+00
   Bfn.  Coefficient  Atom+Function         Bfn.  Coefficient  Atom+Function  
  ----- ------------  ---------------      ----- ------------  ---------------
    55      3.692751  2 H  s                 17      3.349539  1 Si py         
    74     -3.215525  3 H  s                 50     -1.874450  1 Si fyyy       
    16     -1.655123  1 Si px                52     -1.493939  1 Si fyzz       
    45     -1.339716  1 Si fxxy              75     -1.326415  3 H  s          
    56      1.241635  2 H  s                  6     -1.135670  1 Si s          
 
 Vector   75  Occ=0.000000D+00  E= 1.656612D+00
              MO Center=  4.2D-01,  1.8D-01,  2.9D-01, r^2= 3.1D+00
   Bfn.  Coefficient  Atom+Function         Bfn.  Coefficient  Atom+Function  
  ----- ------------  ---------------      ----- ------------  ---------------
    17      6.940730  1 Si py                50     -3.881545  1 Si fyyy       
    52     -3.022989  1 Si fyzz              45     -2.795068  1 Si fxxy       
     6     -2.480469  1 Si s                 74      1.827291  3 H  s          
   112      1.402189  5 H  s                 93      1.368513  4 H  s          
    14     -1.308061  1 Si py                20     -1.252343  1 Si py         
 
 Vector   76  Occ=0.000000D+00  E= 1.697599D+00
              MO Center= -3.0D-02,  2.3D-01, -2.2D-01, r^2= 3.2D+00
   Bfn.  Coefficient  Atom+Function         Bfn.  Coefficient  Atom+Function  
  ----- ------------  ---------------      ----- ------------  ---------------
    18      4.535476  1 Si pz                53     -2.491051  1 Si fzzz       
    51     -2.289518  1 Si fyyz              46     -1.897031  1 Si fxxz       
     6     -1.495854  1 Si s                 17      1.373217  1 Si py         
    93      1.092607  4 H  s                 15     -0.976277  1 Si pz         
    45     -0.949795  1 Si fxxy              50     -0.905178  1 Si fyyy       
 
 Vector   77  Occ=0.000000D+00  E= 1.703262D+00
              MO Center= -9.1D-03,  2.4D-01,  1.5D-01, r^2= 3.2D+00
   Bfn.  Coefficient  Atom+Function         Bfn.  Coefficient  Atom+Function  
  ----- ------------  ---------------      ----- ------------  ---------------
    18      7.469622  1 Si pz                46     -4.155510  1 Si fxxz       
    53     -3.927628  1 Si fzzz              51     -3.030012  1 Si fyyz       
     6      2.665832  1 Si s                 17     -2.450275  1 Si py         
    15     -1.571333  1 Si pz                45      1.378785  1 Si fxxy       
    21     -1.256071  1 Si pz                94     -1.203590  4 H  s          
 
 Vector   78  Occ=0.000000D+00  E= 1.708575D+00
              MO Center=  3.8D-02,  2.4D-01, -5.4D-01, r^2= 3.0D+00
   Bfn.  Coefficient  Atom+Function         Bfn.  Coefficient  Atom+Function  
  ----- ------------  ---------------      ----- ------------  ---------------
    16      7.362992  1 Si px                49     -3.845944  1 Si fxzz       
    44     -3.820357  1 Si fxxx              47     -2.762877  1 Si fxyy       
    40     -1.722745  1 Si dxz               13     -1.600534  1 Si px         
   102     -1.314821  4 H  px                74      1.261467  3 H  s          
    55     -1.231221  2 H  s                 56     -1.199506  2 H  s          
 
 Vector   79  Occ=0.000000D+00  E= 1.730809D+00
              MO Center= -1.8D-02, -1.3D+00,  4.6D-02, r^2= 2.8D+00
   Bfn.  Coefficient  Atom+Function         Bfn.  Coefficient  Atom+Function  
  ----- ------------  ---------------      ----- ------------  ---------------
    74     -9.324358  3 H  s                 55      9.268299  2 H  s          
    56      5.925291  2 H  s                 75     -5.900253  3 H  s          
    64     -3.123529  2 H  px                83     -3.119174  3 H  px         
    61     -2.529861  2 H  px                80     -2.537998  3 H  px         
    19     -1.118210  1 Si px                84     -1.082588  3 H  py         
 
 Vector   80  Occ=0.000000D+00  E= 1.817530D+00
              MO Center=  1.4D-02,  8.7D-02, -2.1D-01, r^2= 3.4D+00
   Bfn.  Coefficient  Atom+Function         Bfn.  Coefficient  Atom+Function  
  ----- ------------  ---------------      ----- ------------  ---------------
    17      9.932055  1 Si py                52     -5.129390  1 Si fyzz       
    45     -4.933998  1 Si fxxy              50     -3.972549  1 Si fyyy       
     6     -3.453874  1 Si s                 14     -2.187787  1 Si py         
    75      2.058937  3 H  s                 56      1.625769  2 H  s          
    20      1.346268  1 Si py                41     -1.277073  1 Si dyy        
 
 Vector   81  Occ=0.000000D+00  E= 1.841418D+00
              MO Center=  3.1D-03, -1.6D+00, -4.2D-02, r^2= 1.5D+00
   Bfn.  Coefficient  Atom+Function         Bfn.  Coefficient  Atom+Function  
  ----- ------------  ---------------      ----- ------------  ---------------
    16      2.521314  1 Si px                85     -1.119286  3 H  pz         
    66      1.109060  2 H  pz                49     -1.086544  1 Si fxzz       
    63     -1.068753  2 H  pz                82      1.069838  3 H  pz         
    44     -0.926328  1 Si fxxx              75      0.883350  3 H  s          
    56     -0.855907  2 H  s                 47     -0.846167  1 Si fxyy       
 
 Vector   82  Occ=0.000000D+00  E= 1.886223D+00
              MO Center=  2.4D-03, -1.0D+00,  3.4D-02, r^2= 2.9D+00
   Bfn.  Coefficient  Atom+Function         Bfn.  Coefficient  Atom+Function  
  ----- ------------  ---------------      ----- ------------  ---------------
    17      8.831860  1 Si py                45     -4.064829  1 Si fxxy       
    52     -3.754064  1 Si fyzz              50     -3.605147  1 Si fyyy       
    18      3.384063  1 Si pz                 6      2.421793  1 Si s          
    55      2.355401  2 H  s                 74      2.200657  3 H  s          
    41     -1.867709  1 Si dyy               14     -1.823726  1 Si py         
 
 Vector   83  Occ=0.000000D+00  E= 1.994815D+00
              MO Center= -2.4D-03, -9.3D-01,  4.0D-02, r^2= 2.7D+00
   Bfn.  Coefficient  Atom+Function         Bfn.  Coefficient  Atom+Function  
  ----- ------------  ---------------      ----- ------------  ---------------
    55      2.215914  2 H  s                 74     -2.200198  3 H  s          
    47     -1.368000  1 Si fxyy              62      0.948980  2 H  py         
    81     -0.951479  3 H  py                65     -0.878493  2 H  py         
    84      0.880151  3 H  py                49     -0.753364  1 Si fxzz       
    48      0.668793  1 Si fxyz              61     -0.586832  2 H  px         
 
 Vector   84  Occ=0.000000D+00  E= 2.003813D+00
              MO Center=  1.6D-02,  1.9D-01, -2.9D-01, r^2= 3.7D+00
   Bfn.  Coefficient  Atom+Function         Bfn.  Coefficient  Atom+Function  
  ----- ------------  ---------------      ----- ------------  ---------------
    18     15.543395  1 Si pz                51     -5.882401  1 Si fyyz       
    93      5.537288  4 H  s                 46     -5.308428  1 Si fxxz       
    53     -5.310695  1 Si fzzz              94      4.814784  4 H  s          
    15     -3.332817  1 Si pz                38      2.870802  1 Si dxx        
    43     -2.814630  1 Si dzz              131     -2.596315  6 H  s          
 
 Vector   85  Occ=0.000000D+00  E= 2.023845D+00
              MO Center= -7.3D-03, -6.5D-02,  3.6D-02, r^2= 3.4D+00
   Bfn.  Coefficient  Atom+Function         Bfn.  Coefficient  Atom+Function  
  ----- ------------  ---------------      ----- ------------  ---------------
    75      3.865411  3 H  s                 56     -3.763073  2 H  s          
    55     -3.464866  2 H  s                 74      3.371762  3 H  s          
    49      1.990998  1 Si fxzz              83      1.553981  3 H  px         
    64      1.530553  2 H  px                76     -1.000086  3 H  s          
    57      0.971564  2 H  s                 61      0.790553  2 H  px         
 
 Vector   86  Occ=0.000000D+00  E= 2.092269D+00
              MO Center=  1.4D-03, -4.3D-01,  5.0D-02, r^2= 3.6D+00
   Bfn.  Coefficient  Atom+Function         Bfn.  Coefficient  Atom+Function  
  ----- ------------  ---------------      ----- ------------  ---------------
     6      8.661867  1 Si s                 17      3.568661  1 Si py         
   113     -2.595207  5 H  s                132     -2.561805  6 H  s          
    50     -2.258573  1 Si fyyy              74     -1.977558  3 H  s          
    94     -1.884278  4 H  s                 55     -1.595471  2 H  s          
    46     -1.494228  1 Si fxxz              56      1.407625  2 H  s          
 
 Vector   87  Occ=0.000000D+00  E= 2.236194D+00
              MO Center= -4.9D-02,  1.8D-01,  4.0D-01, r^2= 3.9D+00
   Bfn.  Coefficient  Atom+Function         Bfn.  Coefficient  Atom+Function  
  ----- ------------  ---------------      ----- ------------  ---------------
    16     22.632678  1 Si px                40      9.175274  1 Si dxz        
   113      7.818945  5 H  s                132     -7.738137  6 H  s          
    49     -7.460594  1 Si fxzz              44     -7.390070  1 Si fxxx       
    47     -7.272073  1 Si fxyy             112      6.075916  5 H  s          
   131     -5.712096  6 H  s                 19      5.447012  1 Si px         
 
 Vector   88  Occ=0.000000D+00  E= 2.253600D+00
              MO Center=  1.8D-02, -7.9D-02,  3.4D-01, r^2= 3.6D+00
   Bfn.  Coefficient  Atom+Function         Bfn.  Coefficient  Atom+Function  
  ----- ------------  ---------------      ----- ------------  ---------------
     6     12.827975  1 Si s                131     -3.633057  6 H  s          
     5     -3.181018  1 Si s                112     -3.181046  5 H  s          
    41     -3.016874  1 Si dyy               38     -2.829807  1 Si dxx        
    43     -2.791799  1 Si dzz               46      2.740017  1 Si fxxz       
    93     -2.584209  4 H  s                 22      2.211833  1 Si s          
 
 Vector   89  Occ=0.000000D+00  E= 2.269045D+00
              MO Center=  9.2D-02,  3.1D-01, -1.1D+00, r^2= 2.2D+00
   Bfn.  Coefficient  Atom+Function         Bfn.  Coefficient  Atom+Function  
  ----- ------------  ---------------      ----- ------------  ---------------
     6      4.722803  1 Si s                 18      4.417326  1 Si pz         
    94      3.060224  4 H  s                 93     -2.960263  4 H  s          
    53     -2.553231  1 Si fzzz             101     -1.550720  4 H  pz         
    46     -1.525619  1 Si fxxz              15     -1.460333  1 Si pz         
   132     -1.457982  6 H  s                 17     -1.387668  1 Si py         
 
 Vector   90  Occ=0.000000D+00  E= 2.270695D+00
              MO Center= -7.5D-02,  2.0D-01,  6.5D-01, r^2= 3.0D+00
   Bfn.  Coefficient  Atom+Function         Bfn.  Coefficient  Atom+Function  
  ----- ------------  ---------------      ----- ------------  ---------------
    16      7.533941  1 Si px                49     -3.523282  1 Si fxzz       
   113      3.530860  5 H  s                 44     -3.389878  1 Si fxxx       
   132     -3.341773  6 H  s                 47     -2.412852  1 Si fxyy       
    13     -2.167186  1 Si px                19      1.491459  1 Si px         
   121      1.162526  5 H  px               114     -1.151013  5 H  s          
 
 Vector   91  Occ=0.000000D+00  E= 2.497408D+00
              MO Center=  4.6D-04, -2.5D-01, -1.6D-02, r^2= 2.3D+00
   Bfn.  Coefficient  Atom+Function         Bfn.  Coefficient  Atom+Function  
  ----- ------------  ---------------      ----- ------------  ---------------
     5      8.922926  1 Si s                  6      5.328897  1 Si s          
    22      5.094718  1 Si s                 32     -4.882667  1 Si dxx        
    37     -4.884477  1 Si dzz               35     -4.390447  1 Si dyy        
    38     -2.470986  1 Si dxx               43     -2.415082  1 Si dzz        
     4     -2.242387  1 Si s                 41     -1.605010  1 Si dyy        
 
 Vector   92  Occ=0.000000D+00  E= 2.641781D+00
              MO Center=  8.9D-03, -9.3D-01, -1.7D-01, r^2= 2.2D+00
   Bfn.  Coefficient  Atom+Function         Bfn.  Coefficient  Atom+Function  
  ----- ------------  ---------------      ----- ------------  ---------------
     6      2.138289  1 Si s                 18     -2.025714  1 Si pz         
    93     -1.289819  4 H  s                 94     -1.104214  4 H  s          
    71      0.894791  2 H  dyz               90      0.897420  3 H  dyz        
    38     -0.709773  1 Si dxx               21     -0.567717  1 Si pz         
   104     -0.513873  4 H  pz                42      0.499272  1 Si dyz        
 
 Vector   93  Occ=0.000000D+00  E= 2.708831D+00
              MO Center=  6.2D-05, -1.2D+00,  6.1D-03, r^2= 2.1D+00
   Bfn.  Coefficient  Atom+Function         Bfn.  Coefficient  Atom+Function  
  ----- ------------  ---------------      ----- ------------  ---------------
    56      2.826645  2 H  s                 75     -2.816004  3 H  s          
    16      1.458590  1 Si px                64     -1.361219  2 H  px         
    83     -1.362836  3 H  px                57     -1.138455  2 H  s          
    76      1.136146  3 H  s                 55      1.089214  2 H  s          
    74     -1.074867  3 H  s                 61      0.883858  2 H  px         
 
 Vector   94  Occ=0.000000D+00  E= 2.770120D+00
              MO Center= -2.2D-03,  1.7D-02, -3.2D-02, r^2= 2.9D+00
   Bfn.  Coefficient  Atom+Function         Bfn.  Coefficient  Atom+Function  
  ----- ------------  ---------------      ----- ------------  ---------------
    56      2.010604  2 H  s                 75     -2.009230  3 H  s          
    16      1.414407  1 Si px                55      1.119622  2 H  s          
    74     -1.117567  3 H  s                 64     -0.962128  2 H  px         
    83     -0.962341  3 H  px               106      0.909040  4 H  dxy        
    57     -0.787370  2 H  s                 76      0.785197  3 H  s          
 
 Vector   95  Occ=0.000000D+00  E= 2.895094D+00
              MO Center=  2.8D-02, -1.3D-01,  3.2D-02, r^2= 2.6D+00
   Bfn.  Coefficient  Atom+Function         Bfn.  Coefficient  Atom+Function  
  ----- ------------  ---------------      ----- ------------  ---------------
     5      3.824747  1 Si s                  6     -2.867884  1 Si s          
    37     -1.590943  1 Si dzz               32     -1.490580  1 Si dxx        
    35     -1.229829  1 Si dyy               18     -1.098647  1 Si pz         
   113      0.862847  5 H  s                112      0.756310  5 H  s          
   132      0.759923  6 H  s                 22      0.745011  1 Si s          
 
 Vector   96  Occ=0.000000D+00  E= 2.914668D+00
              MO Center= -1.2D-02,  1.3D-01, -1.3D-01, r^2= 2.7D+00
   Bfn.  Coefficient  Atom+Function         Bfn.  Coefficient  Atom+Function  
  ----- ------------  ---------------      ----- ------------  ---------------
    16      1.776810  1 Si px               132     -1.492532  6 H  s          
   113      1.454098  5 H  s                 56     -1.394672  2 H  s          
    75      1.400056  3 H  s                 40      1.344648  1 Si dxz        
    19      1.234586  1 Si px               106      1.030286  4 H  dxy        
    74      0.737698  3 H  s                 39     -0.733920  1 Si dxy        
 
 Vector   97  Occ=0.000000D+00  E= 2.958306D+00
              MO Center= -1.3D-02, -2.4D-01,  1.2D-01, r^2= 2.6D+00
   Bfn.  Coefficient  Atom+Function         Bfn.  Coefficient  Atom+Function  
[...]
    32     -7.530395  1 Si dxx               37     -7.515111  1 Si dzz        
     6     -5.624898  1 Si s                 26     -3.403652  1 Si dxx        
    31     -3.409072  1 Si dzz               29     -3.363605  1 Si dyy        
     3     -1.731161  1 Si s                  4     -1.722258  1 Si s          
 
 Vector  128  Occ=0.000000D+00  E= 8.372959D+00
              MO Center=  2.9D-03, -1.6D+00, -4.7D-02, r^2= 6.9D-01
   Bfn.  Coefficient  Atom+Function         Bfn.  Coefficient  Atom+Function  
  ----- ------------  ---------------      ----- ------------  ---------------
    94      1.316380  4 H  s                 21      1.067499  1 Si pz         
    18      0.990524  1 Si pz                60     -0.888492  2 H  pz         
    79     -0.888876  3 H  pz               132     -0.613224  6 H  s          
   113     -0.573833  5 H  s                 63      0.563054  2 H  pz         
    82      0.563428  3 H  pz                38      0.505795  1 Si dxx        
 
 Vector  129  Occ=0.000000D+00  E= 8.541954D+00
              MO Center= -9.6D-02, -1.8D-01,  4.1D-01, r^2= 2.5D+00
   Bfn.  Coefficient  Atom+Function         Bfn.  Coefficient  Atom+Function  
  ----- ------------  ---------------      ----- ------------  ---------------
    16      0.917320  1 Si px               116      0.787532  5 H  py         
    56     -0.730667  2 H  s                 75      0.718954  3 H  s          
   135     -0.709166  6 H  py               119     -0.586979  5 H  py         
   138      0.528537  6 H  py                19      0.449750  1 Si px         
    47     -0.394714  1 Si fxyy             132     -0.355791  6 H  s          
 
 Vector  130  Occ=0.000000D+00  E= 8.558332D+00
              MO Center=  3.5D-02, -1.2D-01,  4.9D-01, r^2= 2.4D+00
   Bfn.  Coefficient  Atom+Function         Bfn.  Coefficient  Atom+Function  
  ----- ------------  ---------------      ----- ------------  ---------------
     6      0.863784  1 Si s                135      0.757544  6 H  py         
   116      0.702127  5 H  py               138     -0.571255  6 H  py         
   119     -0.529523  5 H  py                 5     -0.493145  1 Si s          
    58      0.390262  2 H  px                77     -0.389479  3 H  px         
    61     -0.373986  2 H  px                43     -0.367618  1 Si dzz        
 
 Vector  131  Occ=0.000000D+00  E= 8.581988D+00
              MO Center=  2.7D-02, -6.7D-01, -1.5D-01, r^2= 2.4D+00
   Bfn.  Coefficient  Atom+Function         Bfn.  Coefficient  Atom+Function  
  ----- ------------  ---------------      ----- ------------  ---------------
    16      1.605891  1 Si px                40      1.162888  1 Si dxz        
   113      0.871568  5 H  s                132     -0.857055  6 H  s          
    96      0.616589  4 H  px                19      0.605561  1 Si px         
    60      0.591535  2 H  pz                75      0.592536  3 H  s          
    79     -0.584310  3 H  pz                47     -0.579653  1 Si fxyy       
 
 Vector  132  Occ=0.000000D+00  E= 8.592548D+00
              MO Center=  3.2D-02,  2.8D-01,  3.4D-01, r^2= 2.3D+00
   Bfn.  Coefficient  Atom+Function         Bfn.  Coefficient  Atom+Function  
  ----- ------------  ---------------      ----- ------------  ---------------
    17      0.900317  1 Si py                 6     -0.659137  1 Si s          
   136      0.649075  6 H  pz               117      0.621505  5 H  pz         
    38      0.577422  1 Si dxx               97     -0.532080  4 H  py         
    45     -0.518810  1 Si fxxy              52     -0.502182  1 Si fyzz       
    93      0.500395  4 H  s                 18      0.490492  1 Si pz         
 
 Vector  133  Occ=0.000000D+00  E= 8.604485D+00
              MO Center=  9.0D-03,  3.0D-01, -9.1D-01, r^2= 1.6D+00
   Bfn.  Coefficient  Atom+Function         Bfn.  Coefficient  Atom+Function  
  ----- ------------  ---------------      ----- ------------  ---------------
    97      1.111178  4 H  py                17     -0.923132  1 Si py         
   100     -0.859203  4 H  py                52      0.756601  1 Si fyzz       
    20     -0.454388  1 Si py                18      0.397900  1 Si pz         
   103      0.374571  4 H  py               117      0.369877  5 H  pz         
    43     -0.362647  1 Si dzz              136      0.347435  6 H  pz         
 
 Vector  134  Occ=0.000000D+00  E= 8.624691D+00
              MO Center= -3.1D-03, -5.8D-01, -4.1D-01, r^2= 2.3D+00
   Bfn.  Coefficient  Atom+Function         Bfn.  Coefficient  Atom+Function  
  ----- ------------  ---------------      ----- ------------  ---------------
    40      1.167335  1 Si dxz               96      0.775939  4 H  px         
    63      0.627269  2 H  pz                82     -0.622550  3 H  pz         
    60     -0.618514  2 H  pz                79      0.611286  3 H  pz         
    16      0.600084  1 Si px                99     -0.595641  4 H  px         
   102      0.485354  4 H  px               131     -0.475579  6 H  s          
 
 Vector  135  Occ=0.000000D+00  E= 8.744077D+00
              MO Center=  1.1D-02, -1.3D+00,  1.1D-01, r^2= 1.4D+00
   Bfn.  Coefficient  Atom+Function         Bfn.  Coefficient  Atom+Function  
  ----- ------------  ---------------      ----- ------------  ---------------
     5      1.960886  1 Si s                 17     -1.718262  1 Si py         
     6     -1.357335  1 Si s                 45      0.987005  1 Si fxxy       
    58     -0.863540  2 H  px                77      0.861633  3 H  px         
    61      0.839306  2 H  px                80     -0.836504  3 H  px         
    41      0.792938  1 Si dyy               54      0.721333  2 H  s          
 
 Vector  136  Occ=0.000000D+00  E= 8.849925D+00
              MO Center= -4.2D-04,  2.2D-01,  6.3D-04, r^2= 2.4D+00
   Bfn.  Coefficient  Atom+Function         Bfn.  Coefficient  Atom+Function  
  ----- ------------  ---------------      ----- ------------  ---------------
    49      1.423321  1 Si fxzz              75      0.873768  3 H  s          
    56     -0.866803  2 H  s                 96      0.756691  4 H  px         
    99     -0.707388  4 H  px               117     -0.650956  5 H  pz         
   136      0.636490  6 H  pz               120      0.604342  5 H  pz         
   139     -0.590480  6 H  pz                55     -0.573002  2 H  s          
 
 Vector  137  Occ=0.000000D+00  E= 8.876922D+00
              MO Center= -1.2D-02, -1.2D+00,  1.2D-01, r^2= 1.6D+00
   Bfn.  Coefficient  Atom+Function         Bfn.  Coefficient  Atom+Function  
  ----- ------------  ---------------      ----- ------------  ---------------
    62      0.949196  2 H  py                81     -0.953919  3 H  py         
    59     -0.803389  2 H  py                78      0.807105  3 H  py         
    47     -0.675399  1 Si fxyy              16      0.652624  1 Si px         
    55      0.629562  2 H  s                 48      0.616102  1 Si fxyz       
    74     -0.601283  3 H  s                 84      0.488332  3 H  py         
 
 Vector  138  Occ=0.000000D+00  E= 8.939451D+00
              MO Center=  1.1D-04, -1.6D+00, -5.1D-02, r^2= 7.3D-01
   Bfn.  Coefficient  Atom+Function         Bfn.  Coefficient  Atom+Function  
  ----- ------------  ---------------      ----- ------------  ---------------
     6      3.235715  1 Si s                  5     -2.429009  1 Si s          
    17      1.223820  1 Si py                50     -1.071914  1 Si fyyy       
    74     -0.993028  3 H  s                 55     -0.970035  2 H  s          
    78      0.872740  3 H  py                59      0.866746  2 H  py         
    41     -0.810976  1 Si dyy               35      0.744320  1 Si dyy        
 
 Vector  139  Occ=0.000000D+00  E= 9.265128D+00
              MO Center=  2.4D-02,  2.3D-01,  5.5D-01, r^2= 2.0D+00
   Bfn.  Coefficient  Atom+Function         Bfn.  Coefficient  Atom+Function  
  ----- ------------  ---------------      ----- ------------  ---------------
    46     -2.562254  1 Si fxxz              18      2.338857  1 Si pz         
     6     -1.416818  1 Si s                131      1.060182  6 H  s          
   112      1.033992  5 H  s                 53     -0.969490  1 Si fzzz       
   137     -0.932190  6 H  px               118      0.926259  5 H  px         
     5     -0.871749  1 Si s                 15     -0.852900  1 Si pz         
 
 Vector  140  Occ=0.000000D+00  E= 9.273788D+00
              MO Center= -1.1D-01,  2.3D-01,  6.3D-01, r^2= 1.9D+00
   Bfn.  Coefficient  Atom+Function         Bfn.  Coefficient  Atom+Function  
  ----- ------------  ---------------      ----- ------------  ---------------
    16      3.707495  1 Si px                49     -2.040808  1 Si fxzz       
    44     -1.979756  1 Si fxxx              47     -1.293413  1 Si fxyy       
    13     -1.254773  1 Si px                34     -1.218458  1 Si dxz        
   113      1.183052  5 H  s                132     -1.107795  6 H  s          
   118     -1.019649  5 H  px               137     -0.895566  6 H  px         
 
 Vector  141  Occ=0.000000D+00  E= 9.275428D+00
              MO Center=  9.2D-02,  3.1D-01, -1.2D+00, r^2= 9.9D-01
   Bfn.  Coefficient  Atom+Function         Bfn.  Coefficient  Atom+Function  
  ----- ------------  ---------------      ----- ------------  ---------------
    18      1.861845  1 Si pz                53     -1.589822  1 Si fzzz       
    17     -1.578062  1 Si py               101     -1.548054  4 H  pz         
     5      1.439636  1 Si s                 93     -1.382716  4 H  s          
     6      1.299235  1 Si s                 98      1.283458  4 H  pz         
    94      1.072661  4 H  s                 35     -0.954304  1 Si dyy        
 
 Vector  142  Occ=0.000000D+00  E= 1.031703D+01
              MO Center=  1.8D-03, -1.6D+00, -3.9D-02, r^2= 3.9D-01
   Bfn.  Coefficient  Atom+Function         Bfn.  Coefficient  Atom+Function  
  ----- ------------  ---------------      ----- ------------  ---------------
    61      1.189532  2 H  px                80      1.189840  3 H  px         
    55     -0.972795  2 H  s                 74      0.975968  3 H  s          
    58     -0.964667  2 H  px                77     -0.964936  3 H  px         
    16      0.597772  1 Si px                56      0.531798  2 H  s          
    75     -0.529642  3 H  s                 57     -0.373761  2 H  s          
 
 Vector  143  Occ=0.000000D+00  E= 1.137647D+01
              MO Center= -1.3D-04,  1.8D-01,  1.8D-03, r^2= 2.9D-01
   Bfn.  Coefficient  Atom+Function         Bfn.  Coefficient  Atom+Function  
  ----- ------------  ---------------      ----- ------------  ---------------
    17      3.260010  1 Si py                50     -1.994843  1 Si fyyy       
    45     -1.823617  1 Si fxxy              52     -1.719957  1 Si fyzz       
    11     -1.448261  1 Si py                 6      1.333508  1 Si s          
     8      1.195026  1 Si py                20     -0.482734  1 Si py         
     5     -0.358997  1 Si s                 93     -0.252513  4 H  s          
 
 Vector  144  Occ=0.000000D+00  E= 1.194451D+01
              MO Center=  3.2D-03,  1.9D-01, -5.0D-02, r^2= 3.6D-01
   Bfn.  Coefficient  Atom+Function         Bfn.  Coefficient  Atom+Function  
  ----- ------------  ---------------      ----- ------------  ---------------
    18      2.610911  1 Si pz                51     -1.746119  1 Si fyyz       
    12     -1.520509  1 Si pz                 9      1.176794  1 Si pz         
    46     -1.164499  1 Si fxxz              53     -1.142538  1 Si fzzz       
    15      0.777221  1 Si pz                93      0.746481  4 H  s          
   101      0.634782  4 H  pz                32      0.517092  1 Si dxx        
 
 Vector  145  Occ=0.000000D+00  E= 1.195515D+01
              MO Center= -3.4D-03,  1.8D-01,  5.4D-02, r^2= 3.7D-01
   Bfn.  Coefficient  Atom+Function         Bfn.  Coefficient  Atom+Function  
  ----- ------------  ---------------      ----- ------------  ---------------
    16      1.778401  1 Si px                47     -1.589078  1 Si fxyy       
    10     -1.523023  1 Si px                 7      1.176884  1 Si px         
    34      1.028201  1 Si dxz               13      0.962000  1 Si px         
    44     -0.887515  1 Si fxxx              49     -0.848228  1 Si fxzz       
    19     -0.615104  1 Si px               118      0.503745  5 H  px         
 
 Vector  146  Occ=0.000000D+00  E= 1.434839D+01
              MO Center=  2.0D-03, -1.7D+00, -3.9D-02, r^2= 7.7D-01
   Bfn.  Coefficient  Atom+Function         Bfn.  Coefficient  Atom+Function  
  ----- ------------  ---------------      ----- ------------  ---------------
    61      9.158778  2 H  px                80      9.159275  3 H  px         
    54     -6.263661  2 H  s                 73      6.264289  3 H  s          
    67     -6.067207  2 H  dxx               86      6.068295  3 H  dxx        
    56      3.237408  2 H  s                 75     -3.243821  3 H  s          
    70     -1.917083  2 H  dyy               89      1.918056  3 H  dyy        
 
 Vector  147  Occ=0.000000D+00  E= 1.751935D+01
              MO Center= -1.7D-04,  1.7D-01,  3.1D-03, r^2= 3.6D-01
   Bfn.  Coefficient  Atom+Function         Bfn.  Coefficient  Atom+Function  
  ----- ------------  ---------------      ----- ------------  ---------------
     5     23.939719  1 Si s                  4     14.748837  1 Si s          
     3    -11.636018  1 Si s                 26     -7.064756  1 Si dxx        
    29     -7.049010  1 Si dyy               31     -7.066801  1 Si dzz        
     6     -6.892880  1 Si s                 35     -6.151161  1 Si dyy        
    32     -6.067451  1 Si dxx               37     -6.059837  1 Si dzz        
 
 Vector  148  Occ=0.000000D+00  E= 1.628323D+02
              MO Center= -1.7D-04,  1.7D-01,  3.0D-03, r^2= 4.2D-02
   Bfn.  Coefficient  Atom+Function         Bfn.  Coefficient  Atom+Function  
  ----- ------------  ---------------      ----- ------------  ---------------
     5      7.755372  1 Si s                  4      7.144902  1 Si s          
     3     -5.987080  1 Si s                 26     -2.799088  1 Si dxx        
    29     -2.796090  1 Si dyy               31     -2.799590  1 Si dzz        
     2      2.248487  1 Si s                  6     -2.225610  1 Si s          
    35     -2.000348  1 Si dyy               32     -1.982109  1 Si dxx        
 

 center of mass
 --------------
 x =  -0.00013397 y =   0.13710996 z =   0.00236424

 moments of inertia (a.u.)
 ------------------
          34.633338444327           0.000000000000           0.000000000000
           0.000000000000          23.993531155392           0.000000000000
           0.000000000000           0.000000000000          35.622829080773
 
     Multipole analysis of the density
     ---------------------------------
 
     L   x y z        total         alpha         beta         nuclear
     -   - - -        -----         -----         ----         -------
     0   0 0 0      1.000000     -9.000000     -9.000000     19.000000
 
     1   1 0 0      0.000115      0.000057      0.000057      0.000000
     1   0 1 0     -0.525189     -0.262595     -0.262595      0.000000
     1   0 0 1     -0.006525     -0.003263     -0.003263     -0.000000
 
     2   2 0 0     -9.170807    -10.782665    -10.782665     12.394523
     2   1 1 0     -0.006069     -0.003450     -0.003450      0.000831
     2   1 0 1      0.000484      0.000235      0.000235      0.000014
     2   0 2 0     -5.587958    -13.844640    -13.844640     22.101323
     2   0 1 1      0.114245      0.064455      0.064455     -0.014664
     2   0 0 2     -9.674740    -10.543602    -10.543602     11.412463
 

------------------------------------------------------------
EAF file 0: "./SiH4+.xyz.aoints.00" size=5242880 bytes
------------------------------------------------------------
               write      read    awrite     aread      wait
               -----      ----    ------     -----      ----
     calls:       10         1         0         9         9
   data(b): 5.24e+06  5.24e+05  0.00e+00  4.72e+06
   time(s): 0.00e+00  0.00e+00  0.00e+00  0.00e+00  0.00e+00
rate(mb/s): 0.00e+00  0.00e+00
------------------------------------------------------------


 Parallel integral file used    1271 records with       0 large values


 Task  times  cpu:        3.1s     wall:        4.4s
 
 
                                NWChem Input Module
                                -------------------
 
 
 Summary of allocated global arrays
-----------------------------------
  No active global arrays



                         GA Statistics for process    0
                         ------------------------------

       create   destroy   get      put      acc     scatter   gather  read&inc
calls:  121      121     2159      912      915        0        0      101     
number of processes/call 2.45e+00 1.68e+00 2.16e+00 0.00e+00 0.00e+00
bytes total:             3.45e+07 4.28e+06 1.68e+07 0.00e+00 0.00e+00 8.08e+02
bytes remote:            2.33e+07 2.39e+06 1.08e+07 0.00e+00 0.00e+00 0.00e+00
Max memory consumed for GA by this process: 1092040 bytes
 
MA_summarize_allocated_blocks: starting scan ...
MA_summarize_allocated_blocks: scan completed: 0 heap blocks, 0 stack blocks
MA usage statistics:

	allocation statistics:
					      heap	     stack
					      ----	     -----
	current number of blocks	         0	         0
	maximum number of blocks	        21	        53
	current total bytes		         0	         0
	maximum total bytes		  63018008	  25392216
	maximum total K-bytes		     63019	     25393
	maximum total M-bytes		        64	        26
 
 
                                     CITATION
                                     --------
                Please cite the following reference when publishing
                           results obtained with NWChem:
 
                 M. Valiev, E.J. Bylaska, N. Govind, K. Kowalski,
              T.P. Straatsma, H.J.J. van Dam, D. Wang, J. Nieplocha,
                        E. Apra, T.L. Windus, W.A. de Jong
                 "NWChem: a comprehensive and scalable open-source
                  solution for large scale molecular simulations"
                      Comput. Phys. Commun. 181, 1477 (2010)
                           doi:10.1016/j.cpc.2010.04.018
 
                                      AUTHORS
                                      -------
          E. Apra, E. J. Bylaska, W. A. de Jong, N. Govind, K. Kowalski,
       T. P. Straatsma, M. Valiev, H. J. J. van Dam, D. Wang, T. L. Windus,
        J. Hammond, J. Autschbach, K. Bhaskaran-Nair, J. Brabec, K. Lopata,
    S. A. Fischer, S. Krishnamoorthy, M. Jacquelin, W. Ma, M. Klemm, O. Villa,
      Y. Chen, V. Anisimov, F. Aquino, S. Hirata, M. T. Hackler, V. Konjkov,
            D. Mejia-Rodriguez, T. Risthaus, M. Malagoli, A. Marenich,
   A. Otero-de-la-Roza, J. Mullin, P. Nichols, R. Peverati, J. Pittner, Y. Zhao,
        P.-D. Fan, A. Fonari, M. J. Williamson, R. J. Harrison, J. R. Rehr,
      M. Dupuis, D. Silverstein, D. M. A. Smith, J. Nieplocha, V. Tipparaju,
    M. Krishnan, B. E. Van Kuiken, A. Vazquez-Mayagoitia, L. Jensen, M. Swart,
      Q. Wu, T. Van Voorhis, A. A. Auer, M. Nooijen, L. D. Crosby, E. Brown,
      G. Cisneros, G. I. Fann, H. Fruchtl, J. Garza, K. Hirao, R. A. Kendall,
      J. A. Nichols, K. Tsemekhman, K. Wolinski, J. Anchell, D. E. Bernholdt,
      P. Borowski, T. Clark, D. Clerc, H. Dachsel, M. J. O. Deegan, K. Dyall,
    D. Elwood, E. Glendening, M. Gutowski, A. C. Hess, J. Jaffe, B. G. Johnson,
     J. Ju, R. Kobayashi, R. Kutteh, Z. Lin, R. Littlefield, X. Long, B. Meng,
      T. Nakajima, S. Niu, L. Pollack, M. Rosing, K. Glaesemann, G. Sandrone,
      M. Stave, H. Taylor, G. Thomas, J. H. van Lenthe, A. T. Wong, Z. Zhang.

 Total times  cpu:        3.1s     wall:        4.6s
