[1537883071.258886] [r8n3:26973:0]         sys.c:744  MXM  WARN  Conflicting CPU frequencies detected, using: 2499.99
[1537883071.265277] [r8n3:26973:0]         mxm.c:196  MXM  WARN  The 'ulimit -s' on the system is set to 'unlimited'. This may have negative performance implications. Please set the stack size to the default value (10240) 
[1537883071.267495] [r8n3:26973:0]         mxm.c:196  MXM  WARN  The 'ulimit -s' on the system is set to 'unlimited'. This may have negative performance implications. Please set the stack size to the default value (10240) 
 argument  1 = /storage/home/bikashp/nwchem_run/rabeet/bh38/bh6/nwrevtpss/CH3.nw
                                         
                                         


              Northwest Computational Chemistry Package (NWChem) 6.6
              ------------------------------------------------------


                    Environmental Molecular Sciences Laboratory
                       Pacific Northwest National Laboratory
                                Richland, WA 99352

                              Copyright (c) 1994-2015
                       Pacific Northwest National Laboratory
                            Battelle Memorial Institute

             NWChem is an open-source computational chemistry package
                        distributed under the terms of the
                      Educational Community License (ECL) 2.0
             A copy of the license is included with this distribution
                              in the LICENSE.TXT file

                                  ACKNOWLEDGMENT
                                  --------------

            This software and its documentation were developed at the
            EMSL at Pacific Northwest National Laboratory, a multiprogram
            national laboratory, operated for the U.S. Department of Energy
            by Battelle under Contract Number DE-AC05-76RL01830. Support
            for this work was provided by the Department of Energy Office
            of Biological and Environmental Research, Office of Basic
            Energy Sciences, and the Office of Advanced Scientific Computing.


           Job information
           ---------------

    hostname        = r8n3.niserhpc.org
    program         = /home/bikashp/Code/nwchem-6.6_revtpss/bin/LINUX64/nwchem
    date            = Tue Sep 25 19:14:31 2018

    compiled        = Tue_Sep_25_17:05:19_2018
    source          = /home/bikashp/Code/nwchem-6.6_revtpss
    nwchem branch   = 6.6
    nwchem revision = 27746
    ga revision     = 10594
    input           = /storage/home/bikashp/nwchem_run/rabeet/bh38/bh6/nwrevtpss/CH3.nw
    prefix          = CH3.
    data base       = ./CH3.db
    status          = startup
    nproc           =        1
    time left       =     -1s



           Memory information
           ------------------

    heap     =   13107196 doubles =    100.0 Mbytes
    stack    =   13107201 doubles =    100.0 Mbytes
    global   =   26214400 doubles =    200.0 Mbytes (distinct from heap & stack)
    total    =   52428797 doubles =    400.0 Mbytes
    verify   = yes
    hardfail = no 


           Directory information
           ---------------------

  0 permanent = .
  0 scratch   = .




                                NWChem Input Module
                                -------------------



 Scaling coordinates for geometry "geometry" by  1.889725989
 (inverse scale =  0.529177249)


          ------
          auto-z
          ------
  Looking for out-of-plane bends


                             Geometry "geometry" -> ""
                             -------------------------

 Output coordinates in angstroms (scale by  1.889725989 to convert to a.u.)

  No.       Tag          Charge          X              Y              Z
 ---- ---------------- ---------- -------------- -------------- --------------
    1 C                    6.0000     0.00000000     0.00000000     0.00000000
    2 H                    1.0000     0.00000000     0.00000000     1.07732000
    3 H                    1.0000     0.93298000     0.00000000    -0.53866000
    4 H                    1.0000    -0.93298000     0.00000000    -0.53866000

      Atomic Mass 
      ----------- 

      C                 12.000000
      H                  1.007825


 Effective nuclear repulsion energy (a.u.)       9.6923742896

            Nuclear Dipole moment (a.u.) 
            ----------------------------
        X                 Y               Z
 ---------------- ---------------- ----------------
     0.0000000000     0.0000000000     0.0000000000



                                Z-matrix (autoz)
                                -------- 

 Units are Angstrom for bonds and degrees for angles

      Type          Name      I     J     K     L     M      Value
      ----------- --------  ----- ----- ----- ----- ----- ----------
    1 Stretch                  1     2                       1.07732
    2 Stretch                  1     3                       1.07731
    3 Stretch                  1     4                       1.07731
    4 Bend                     2     1     3               120.00017
    5 Bend                     2     1     4               120.00017
    6 Bend                     3     1     4               119.99965
    7 Torsion                  2     1     3     4         180.00000
    8 Torsion                  2     1     4     3         180.00000
    9 Torsion                  3     1     2     4         180.00000
   10 Torsion                  2     4     1     3         180.00000
   11 Torsion                  3     2     1     4         180.00000
   12 Torsion                  2     3     1     4         180.00000


            XYZ format geometry
            -------------------
     4
 geometry
 C                     0.00000000     0.00000000     0.00000000
 H                     0.00000000     0.00000000     1.07732000
 H                     0.93298000     0.00000000    -0.53866000
 H                    -0.93298000     0.00000000    -0.53866000

 ==============================================================================
                                internuclear distances
 ------------------------------------------------------------------------------
       center one      |      center two      | atomic units |  angstroms
 ------------------------------------------------------------------------------
    2 H                |   1 C                |     2.03584  |     1.07732
    3 H                |   1 C                |     2.03583  |     1.07731
    4 H                |   1 C                |     2.03583  |     1.07731
 ------------------------------------------------------------------------------
                         number of included internuclear distances:          3
 ==============================================================================



 ==============================================================================
                                 internuclear angles
 ------------------------------------------------------------------------------
        center 1       |       center 2       |       center 3       |  degrees
 ------------------------------------------------------------------------------
    2 H                |   1 C                |   3 H                |   120.00
    2 H                |   1 C                |   4 H                |   120.00
    3 H                |   1 C                |   4 H                |   120.00
 ------------------------------------------------------------------------------
                            number of included internuclear angles:          3
 ==============================================================================





 Summary of "ao basis" -> "" (cartesian)
 ------------------------------------------------------------------------------
       Tag                 Description            Shells   Functions and Types
 ---------------- ------------------------------  ------  ---------------------
 *                     6-311++G(3df,3pd)              on all atoms 



                                 NWChem DFT Module
                                 -----------------


                      Basis "ao basis" -> "ao basis" (cartesian)
                      -----
  C (Carbon)
  ----------
            Exponent  Coefficients 
       -------------- ---------------------------------------------------------
  1 S  4.56324000E+03  0.001967
  1 S  6.82024000E+02  0.015231
  1 S  1.54973000E+02  0.076127
  1 S  4.44553000E+01  0.260801
  1 S  1.30290000E+01  0.616462
  1 S  1.82773000E+00  0.221006

  2 S  2.09642000E+01  0.114660
  2 S  4.80331000E+00  0.919999
  2 S  1.45933000E+00 -0.003031

  3 P  2.09642000E+01  0.040249
  3 P  4.80331000E+00  0.237594
  3 P  1.45933000E+00  0.815854

  4 S  4.83456000E-01  1.000000

  5 P  4.83456000E-01  1.000000

  6 S  1.45585000E-01  1.000000

  7 P  1.45585000E-01  1.000000

  8 S  4.38000000E-02  1.000000

  9 P  4.38000000E-02  1.000000

 10 D  2.50400000E+00  1.000000

 11 D  6.26000000E-01  1.000000

 12 D  1.56500000E-01  1.000000

 13 F  8.00000000E-01  1.000000

  H (Hydrogen)
  ------------
            Exponent  Coefficients 
       -------------- ---------------------------------------------------------
  1 S  3.38650000E+01  0.025494
  1 S  5.09479000E+00  0.190373
  1 S  1.15879000E+00  0.852161

  2 S  3.25840000E-01  1.000000

  3 S  1.02741000E-01  1.000000

  4 S  3.60000000E-02  1.000000

  5 P  3.00000000E+00  1.000000

  6 P  7.50000000E-01  1.000000

  7 P  1.87500000E-01  1.000000

  8 D  1.00000000E+00  1.000000



 Summary of "ao basis" -> "ao basis" (cartesian)
 ------------------------------------------------------------------------------
       Tag                 Description            Shells   Functions and Types
 ---------------- ------------------------------  ------  ---------------------
 C                     6-311++G(3df,3pd)            13       45   5s4p3d1f
 H                     6-311++G(3df,3pd)             8       19   4s3p1d




 Summary of "ao basis" -> "ao basis" (cartesian)
 ------------------------------------------------------------------------------
       Tag                 Description            Shells   Functions and Types
 ---------------- ------------------------------  ------  ---------------------
 C                     6-311++G(3df,3pd)            13       45   5s4p3d1f
 H                     6-311++G(3df,3pd)             8       19   4s3p1d


  Caching 1-el integrals 

            General Information
            -------------------
          SCF calculation type: DFT
          Wavefunction type:  spin polarized.
          No. of atoms     :     4
          No. of electrons :     9
           Alpha electrons :     5
            Beta electrons :     4
          Charge           :     0
          Spin multiplicity:     2
          Use of symmetry is: off; symmetry adaption is: off
          Maximum number of iterations: ***
          AO basis - number of functions:   102
                     number of shells:    37
          Convergence on energy requested: 1.00D-06
          Convergence on density requested: 1.00D-05
          Convergence on gradient requested: 5.00D-04

              XC Information
              --------------
                  TPSS metaGGA Exchange Functional  1.000          
             TPSS03 metaGGA Correlation Functional  1.000          

             Grid Information
             ----------------
          Grid used for XC integration:  medium    
          Radial quadrature: Mura-Knowles        
          Angular quadrature: Lebedev. 
          Tag              B.-S. Rad. Rad. Pts. Rad. Cut. Ang. Pts.
          ---              ---------- --------- --------- ---------
          C                   0.70       49          10.0       434
          H                   0.35       45          11.0       434
          Grid pruning is: on 
          Number of quadrature shells:   184
          Spatial weights used:  Erf1

          Convergence Information
          -----------------------
          Convergence aids based upon iterative change in 
          total energy or number of iterations. 
          Levelshifting, if invoked, occurs when the 
          HOMO/LUMO gap drops below (HL_TOL): 1.00D-02
          DIIS, if invoked, will attempt to extrapolate 
          using up to (NFOCK): 10 stored Fock matrices.

                    Damping( 0%)  Levelshifting(0.5)       DIIS
                  --------------- ------------------- ---------------
          dE  on:    start            ASAP                start   
          dE off:    2 iters        *** iters           *** iters 


      Screening Tolerance Information
      -------------------------------
          Density screening/tol_rho: 1.00D-10
          AO Gaussian exp screening on grid/accAOfunc:  14
          CD Gaussian exp screening on grid/accCDfunc:  20
          XC Gaussian exp screening on grid/accXCfunc:  20
          Schwarz screening/accCoul: 1.00D-08


      Superposition of Atomic Density Guess
      -------------------------------------

 Sum of atomic energies:         -39.16857237

      Non-variational initial energy
      ------------------------------

 Total energy =     -39.487365
 1-e energy   =     -70.478212
 2-e energy   =      21.298473
 HOMO         =      -0.177225
 LUMO         =       0.030308

   Time after variat. SCF:      0.4
   Time prior to 1st pass:      0.4

 Integral file          = ./CH3.aoints.0
 Record size in doubles =    65536    No. of integs per rec  =    43688
 Max. records in memory =        0    Max. records in file   = ********
 No. of bits per label  =        8    No. of bits per value  =       64


 #quartets = 2.472D+05 #integrals = 6.742D+06 #direct =  0.0% #cached =100.0%


 Grid_pts file          = ./CH3.gridpts.0
 Record size in doubles =  12289        No. of grid_pts per rec  =   3070
 Max. records in memory =     30        Max. recs in file   = 995306666


           Memory utilization after 1st SCF pass: 
           Heap Space remaining (MW):       12.74            12735308
          Stack Space remaining (MW):       13.11            13106220

   convergence    iter        energy       DeltaE   RMS-Dens  Diis-err    time
 ---------------- ----- ----------------- --------- --------- ---------  ------
 d= 0,ls=0.0,diis     1    -39.8372732890 -4.95D+01  8.78D-04  3.30D-02     5.1
                                                     1.22D-03  3.23D-02
 d= 0,ls=0.0,diis     2    -39.8503372859 -1.31D-02  3.20D-04  1.09D-03     8.7
                                                     3.45D-04  1.37D-03
 d= 0,ls=0.0,diis     3    -39.8502922520  4.50D-05  2.05D-04  1.48D-03    12.4
                                                     1.05D-04  7.88D-04
 d= 0,ls=0.0,diis     4    -39.8509941554 -7.02D-04  1.88D-05  7.15D-06    16.2
                                                     5.22D-05  3.73D-05
 d= 0,ls=0.0,diis     5    -39.8510072562 -1.31D-05  1.49D-05  9.55D-07    20.2
                                                     2.01D-05  1.69D-06
 d= 0,ls=0.0,diis     6    -39.8510079434 -6.87D-07  1.38D-06  3.76D-08    24.0
                                                     1.68D-06  1.43D-08


         Total DFT energy =      -39.851007943371
      One electron energy =      -71.651116851498
           Coulomb energy =       28.606052396410
          Exchange energy =       -6.228654466760
       Correlation energy =       -0.269663311148
 Nuclear repulsion energy =        9.692374289624

 Numeric. integr. density =        8.999999456175

     Total iterative time =     23.5s



                    DFT Final Alpha Molecular Orbital Analysis
                    ------------------------------------------

 Vector    1  Occ=1.000000D+00  E=-1.002717D+01
              MO Center=  1.4D-12,  7.4D-13, -2.5D-09, r^2= 2.8D-02
   Bfn.  Coefficient  Atom+Function         Bfn.  Coefficient  Atom+Function  
  ----- ------------  ---------------      ----- ------------  ---------------
     1      0.563640  1 C  s                  2      0.465103  1 C  s          

 Vector    2  Occ=1.000000D+00  E=-6.434898D-01
              MO Center=  1.4D-09,  6.9D-11, -4.5D-06, r^2= 9.6D-01
   Bfn.  Coefficient  Atom+Function         Bfn.  Coefficient  Atom+Function  
  ----- ------------  ---------------      ----- ------------  ---------------
     6      0.482653  1 C  s                 10      0.401223  1 C  s          
     2     -0.192071  1 C  s          

 Vector    3  Occ=1.000000D+00  E=-3.865818D-01
              MO Center=  9.9D-05, -1.1D-11,  2.5D-01, r^2= 1.2D+00
   Bfn.  Coefficient  Atom+Function         Bfn.  Coefficient  Atom+Function  
  ----- ------------  ---------------      ----- ------------  ---------------
     9      0.270686  1 C  pz                47      0.248847  2 H  s          
     5      0.211337  1 C  pz                46      0.176403  2 H  s          
    13      0.170114  1 C  pz         

 Vector    4  Occ=1.000000D+00  E=-3.865816D-01
              MO Center= -9.9D-05,  7.6D-11, -2.5D-01, r^2= 1.2D+00
   Bfn.  Coefficient  Atom+Function         Bfn.  Coefficient  Atom+Function  
  ----- ------------  ---------------      ----- ------------  ---------------
     7      0.270686  1 C  px                66      0.215483  3 H  s          
    85     -0.215531  4 H  s                  3      0.211338  1 C  px         
    11      0.170116  1 C  px                65      0.152754  3 H  s          
    84     -0.152788  4 H  s          

 Vector    5  Occ=1.000000D+00  E=-2.042803D-01
              MO Center=  3.6D-10, -8.8D-10, -3.3D-07, r^2= 1.3D+00
   Bfn.  Coefficient  Atom+Function         Bfn.  Coefficient  Atom+Function  
  ----- ------------  ---------------      ----- ------------  ---------------
     8      0.420074  1 C  py                12      0.415916  1 C  py         
     4      0.268689  1 C  py         

 Vector    6  Occ=0.000000D+00  E=-1.431863D-02
              MO Center=  1.8D-07, -5.7D-08, -1.4D-04, r^2= 1.1D+01
   Bfn.  Coefficient  Atom+Function         Bfn.  Coefficient  Atom+Function  
  ----- ------------  ---------------      ----- ------------  ---------------
    14      2.711244  1 C  s                 49     -1.226054  2 H  s          
    68     -1.225982  3 H  s                 87     -1.225981  4 H  s          
     6      0.162279  1 C  s          

 Vector    7  Occ=0.000000D+00  E= 2.438643D-02
              MO Center=  2.1D-03, -7.9D-11,  9.3D-01, r^2= 1.3D+01
   Bfn.  Coefficient  Atom+Function         Bfn.  Coefficient  Atom+Function  
  ----- ------------  ---------------      ----- ------------  ---------------
    49      3.463067  2 H  s                 68     -1.734793  3 H  s          
    87     -1.728095  4 H  s                 48     -1.013070  2 H  s          
    17     -0.702206  1 C  pz                13      0.525405  1 C  pz         
    67      0.507479  3 H  s                 86      0.505520  4 H  s          
    58      0.247731  2 H  pz                47     -0.233273  2 H  s          

 Vector    8  Occ=0.000000D+00  E= 2.438785D-02
              MO Center= -2.1D-03, -1.9D-10, -9.3D-01, r^2= 1.3D+01
   Bfn.  Coefficient  Atom+Function         Bfn.  Coefficient  Atom+Function  
  ----- ------------  ---------------      ----- ------------  ---------------
    68      2.997238  3 H  s                 87     -3.001105  4 H  s          
    67     -0.876607  3 H  s                 86      0.877738  4 H  s          
    15     -0.702331  1 C  px                11      0.525304  1 C  px         
    32     -0.260507  1 C  dxz               66     -0.201857  3 H  s          
    85      0.202117  4 H  s                 75      0.191289  3 H  px         

 Vector    9  Occ=0.000000D+00  E= 5.954095D-02
              MO Center=  8.2D-10,  3.9D-09,  2.9D-07, r^2= 9.3D+00
   Bfn.  Coefficient  Atom+Function         Bfn.  Coefficient  Atom+Function  
  ----- ------------  ---------------      ----- ------------  ---------------
    16      1.192222  1 C  py                12     -0.446892  1 C  py         

 Vector   10  Occ=0.000000D+00  E= 8.005465D-02
              MO Center=  2.2D-04, -5.9D-10, -5.7D-01, r^2= 9.4D+00
   Bfn.  Coefficient  Atom+Function         Bfn.  Coefficient  Atom+Function  
  ----- ------------  ---------------      ----- ------------  ---------------
    49      4.852625  2 H  s                 17     -4.051436  1 C  pz         
    48      2.866072  2 H  s                 68     -2.425375  3 H  s          
    87     -2.427017  4 H  s                 67     -1.432406  3 H  s          
    86     -1.433376  4 H  s                 13     -1.205991  1 C  pz         
    47      0.410059  2 H  s                 58     -0.389571  2 H  pz         

 Vector   11  Occ=0.000000D+00  E= 8.006075D-02
              MO Center= -2.2D-04, -1.0D-10,  5.7D-01, r^2= 9.4D+00
   Bfn.  Coefficient  Atom+Function         Bfn.  Coefficient  Atom+Function  
  ----- ------------  ---------------      ----- ------------  ---------------
    68     -4.202689  3 H  s                 87      4.201740  4 H  s          
    15      4.051307  1 C  px                67     -2.482363  3 H  s          
    86      2.481803  4 H  s                 11      1.206068  1 C  px         
    32     -0.525778  1 C  dxz               66     -0.355182  3 H  s          
    85      0.355101  4 H  s                 75      0.307912  3 H  px         

 Vector   12  Occ=0.000000D+00  E= 1.046478D-01
              MO Center= -4.3D-08,  3.3D-08, -2.9D-05, r^2= 1.3D+01
   Bfn.  Coefficient  Atom+Function         Bfn.  Coefficient  Atom+Function  
  ----- ------------  ---------------      ----- ------------  ---------------
    14     13.206028  1 C  s                 10      3.509683  1 C  s          
    49     -3.098684  2 H  s                 68     -3.098933  3 H  s          
    87     -3.098933  4 H  s                 48     -2.482552  2 H  s          
    67     -2.482904  3 H  s                 86     -2.482904  4 H  s          
    33     -0.497627  1 C  dyy               58      0.451622  2 H  pz         

 Vector   13  Occ=0.000000D+00  E= 1.206264D-01
              MO Center=  5.8D-08,  1.8D-08,  5.8D-05, r^2= 8.4D+00
   Bfn.  Coefficient  Atom+Function         Bfn.  Coefficient  Atom+Function  
  ----- ------------  ---------------      ----- ------------  ---------------
    10      5.123917  1 C  s                 48     -3.139970  2 H  s          
    67     -3.139834  3 H  s                 86     -3.139834  4 H  s          
    30      0.801378  1 C  dxx               35      0.801404  1 C  dzz        
    49      0.784697  2 H  s                 68      0.784532  3 H  s          
    87      0.784532  4 H  s                  6      0.544932  1 C  s          

 Vector   14  Occ=0.000000D+00  E= 1.732669D-01
              MO Center=  3.1D-05,  2.9D-10,  9.1D-01, r^2= 9.0D+00
   Bfn.  Coefficient  Atom+Function         Bfn.  Coefficient  Atom+Function  
  ----- ------------  ---------------      ----- ------------  ---------------
    49      4.514901  2 H  s                 48     -3.824581  2 H  s          
    13      2.501476  1 C  pz                68     -2.257615  3 H  s          
    87     -2.257483  4 H  s                 67      1.912448  3 H  s          
    86      1.912336  4 H  s                 17     -1.699367  1 C  pz         
    47     -0.699394  2 H  s                 58      0.523609  2 H  pz         

 Vector   15  Occ=0.000000D+00  E= 1.732694D-01
              MO Center= -3.1D-05,  4.9D-10, -9.1D-01, r^2= 9.0D+00
   Bfn.  Coefficient  Atom+Function         Bfn.  Coefficient  Atom+Function  
  ----- ------------  ---------------      ----- ------------  ---------------
    68      3.910159  3 H  s                 87     -3.910235  4 H  s          
    67     -3.312169  3 H  s                 86      3.312234  4 H  s          
    11      2.501436  1 C  px                15     -1.699449  1 C  px         
    66     -0.605684  3 H  s                 85      0.605696  4 H  s          
    32     -0.595351  1 C  dxz               75      0.415824  3 H  px         

 Vector   16  Occ=0.000000D+00  E= 2.872425D-01
              MO Center=  2.1D-05,  3.6D-09,  1.9D-01, r^2= 3.1D+00
   Bfn.  Coefficient  Atom+Function         Bfn.  Coefficient  Atom+Function  
  ----- ------------  ---------------      ----- ------------  ---------------
    34      1.127672  1 C  dyz               57      0.361307  2 H  py         
    76     -0.180668  3 H  py                95     -0.180633  4 H  py         

 Vector   17  Occ=0.000000D+00  E= 2.872430D-01
              MO Center= -2.1D-05,  1.5D-09, -1.9D-01, r^2= 3.1D+00
   Bfn.  Coefficient  Atom+Function         Bfn.  Coefficient  Atom+Function  
  ----- ------------  ---------------      ----- ------------  ---------------
    31      1.127682  1 C  dxy               76      0.312885  3 H  py         
    95     -0.312905  4 H  py         

 Vector   18  Occ=0.000000D+00  E= 3.059567D-01
              MO Center=  3.7D-04, -2.6D-09, -4.0D-01, r^2= 6.4D+00
   Bfn.  Coefficient  Atom+Function         Bfn.  Coefficient  Atom+Function  
  ----- ------------  ---------------      ----- ------------  ---------------
    48      6.489324  2 H  s                 13     -3.560755  1 C  pz         
    67     -3.241767  3 H  s                 86     -3.246921  4 H  s          
    17     -2.611305  1 C  pz                49      1.398227  2 H  s          
    58     -1.294862  2 H  pz                30      1.156838  1 C  dxx        
    35     -1.156952  1 C  dzz               47      0.862193  2 H  s          

 Vector   19  Occ=0.000000D+00  E= 3.059580D-01
              MO Center= -3.7D-04, -2.9D-09,  4.0D-01, r^2= 6.4D+00
   Bfn.  Coefficient  Atom+Function         Bfn.  Coefficient  Atom+Function  
  ----- ------------  ---------------      ----- ------------  ---------------
    67      5.621297  3 H  s                 86     -5.618321  4 H  s          
    11     -3.560787  1 C  px                15     -2.611337  1 C  px         
    32      2.313812  1 C  dxz               68      1.211246  3 H  s          
    87     -1.210605  4 H  s                 75     -0.909466  3 H  px         
    94     -0.908853  4 H  px                66      0.746892  3 H  s          

 Vector   20  Occ=0.000000D+00  E= 3.360567D-01
              MO Center= -3.2D-08, -5.3D-09, -3.5D-05, r^2= 6.5D+00
   Bfn.  Coefficient  Atom+Function         Bfn.  Coefficient  Atom+Function  
  ----- ------------  ---------------      ----- ------------  ---------------
    10     11.297174  1 C  s                 14      8.956813  1 C  s          
    48     -5.921677  2 H  s                 67     -5.922015  3 H  s          
    86     -5.922015  4 H  s                 58      1.380556  2 H  pz         
    49     -1.229289  2 H  s                 68     -1.229447  3 H  s          
    87     -1.229447  4 H  s                 75      1.195661  3 H  px         

 Vector   21  Occ=0.000000D+00  E= 4.389059D-01
              MO Center= -1.0D-08, -6.8D-09, -4.6D-06, r^2= 7.3D+00
   Bfn.  Coefficient  Atom+Function         Bfn.  Coefficient  Atom+Function  
  ----- ------------  ---------------      ----- ------------  ---------------
    14      6.896637  1 C  s                 10     -2.769145  1 C  s          
    33     -2.471310  1 C  dyy               48      2.346495  2 H  s          
    67      2.346636  3 H  s                 86      2.346636  4 H  s          
    30     -2.091303  1 C  dxx               35     -2.091270  1 C  dzz        
    49     -1.900977  2 H  s                 68     -1.900952  3 H  s          

 Vector   22  Occ=0.000000D+00  E= 4.876604D-01
              MO Center= -4.5D-09, -6.2D-12,  1.9D-05, r^2= 4.1D+00
   Bfn.  Coefficient  Atom+Function         Bfn.  Coefficient  Atom+Function  
  ----- ------------  ---------------      ----- ------------  ---------------
    56      1.056707  2 H  px                77     -0.915130  3 H  pz         
    96      0.915130  4 H  pz                75     -0.528326  3 H  px         
    94     -0.528326  4 H  px         

 Vector   23  Occ=0.000000D+00  E= 4.892782D-01
              MO Center= -3.1D-10,  8.8D-09,  4.8D-06, r^2= 4.1D+00
   Bfn.  Coefficient  Atom+Function         Bfn.  Coefficient  Atom+Function  
  ----- ------------  ---------------      ----- ------------  ---------------
    57     -0.812730  2 H  py                76     -0.812695  3 H  py         
    95     -0.812695  4 H  py                 8      0.808389  1 C  py         
    16      0.664448  1 C  py                12      0.324896  1 C  py         
     4      0.196722  1 C  py         

 Vector   24  Occ=0.000000D+00  E= 5.051417D-01
              MO Center=  1.3D-09,  1.2D-08,  5.4D-06, r^2= 4.4D+00
   Bfn.  Coefficient  Atom+Function         Bfn.  Coefficient  Atom+Function  
  ----- ------------  ---------------      ----- ------------  ---------------
    10      4.897852  1 C  s                 14      3.185242  1 C  s          
    30     -2.209159  1 C  dxx               35     -2.209140  1 C  dzz        
    58      1.123810  2 H  pz                75      0.973268  3 H  px         
    94     -0.973268  4 H  px                49     -0.701390  2 H  s          
    68     -0.701401  3 H  s                 87     -0.701401  4 H  s          


                     DFT Final Beta Molecular Orbital Analysis
                     -----------------------------------------

 Vector    1  Occ=1.000000D+00  E=-1.001264D+01
              MO Center=  1.5D-12,  7.3D-13, -9.5D-09, r^2= 2.8D-02
   Bfn.  Coefficient  Atom+Function         Bfn.  Coefficient  Atom+Function  
  ----- ------------  ---------------      ----- ------------  ---------------
     1      0.564268  1 C  s                  2      0.464775  1 C  s          

 Vector    2  Occ=1.000000D+00  E=-6.084839D-01
              MO Center=  1.8D-09,  5.7D-11, -3.6D-06, r^2= 1.0D+00
   Bfn.  Coefficient  Atom+Function         Bfn.  Coefficient  Atom+Function  
  ----- ------------  ---------------      ----- ------------  ---------------
     6      0.434865  1 C  s                 10      0.318174  1 C  s          
     2     -0.178186  1 C  s          

 Vector    3  Occ=1.000000D+00  E=-3.796733D-01
              MO Center=  1.3D-04, -9.3D-12,  2.7D-01, r^2= 1.2D+00
   Bfn.  Coefficient  Atom+Function         Bfn.  Coefficient  Atom+Function  
  ----- ------------  ---------------      ----- ------------  ---------------
    47      0.283585  2 H  s                  9      0.248071  1 C  pz         
     5      0.205642  1 C  pz                46      0.178175  2 H  s          

 Vector    4  Occ=1.000000D+00  E=-3.796730D-01
              MO Center= -1.3D-04,  3.4D-11, -2.7D-01, r^2= 1.2D+00
   Bfn.  Coefficient  Atom+Function         Bfn.  Coefficient  Atom+Function  
  ----- ------------  ---------------      ----- ------------  ---------------
     7      0.248071  1 C  px                66      0.245556  3 H  s          
    85     -0.245625  4 H  s                  3      0.205643  1 C  px         
    65      0.154283  3 H  s                 84     -0.154326  4 H  s          

 Vector    5  Occ=0.000000D+00  E=-9.243339D-02
              MO Center=  3.9D-10, -1.0D-09,  3.3D-08, r^2= 2.0D+00
   Bfn.  Coefficient  Atom+Function         Bfn.  Coefficient  Atom+Function  
  ----- ------------  ---------------      ----- ------------  ---------------
    12      0.381384  1 C  py                 8      0.284422  1 C  py         
     4      0.237250  1 C  py                16      0.230931  1 C  py         

 Vector    6  Occ=0.000000D+00  E=-4.692868D-03
              MO Center=  1.8D-07, -1.9D-08, -1.6D-04, r^2= 1.2D+01
   Bfn.  Coefficient  Atom+Function         Bfn.  Coefficient  Atom+Function  
  ----- ------------  ---------------      ----- ------------  ---------------
    14      3.557073  1 C  s                 49     -1.407219  2 H  s          
    68     -1.407184  3 H  s                 87     -1.407184  4 H  s          
    10      0.485305  1 C  s                 48     -0.190384  2 H  s          
    67     -0.190279  3 H  s                 86     -0.190279  4 H  s          

 Vector    7  Occ=0.000000D+00  E= 2.993596D-02
              MO Center=  5.9D-03, -4.2D-11,  1.0D+00, r^2= 1.3D+01
   Bfn.  Coefficient  Atom+Function         Bfn.  Coefficient  Atom+Function  
  ----- ------------  ---------------      ----- ------------  ---------------
    49      3.629067  2 H  s                 68     -1.823652  3 H  s          
    87     -1.805216  4 H  s                 48     -0.894147  2 H  s          
    17     -0.844530  1 C  pz                13      0.461614  1 C  pz         
    67      0.449313  3 H  s                 86      0.444771  4 H  s          
    58      0.234622  2 H  pz                47     -0.220908  2 H  s          

 Vector    8  Occ=0.000000D+00  E= 2.993669D-02
              MO Center= -5.9D-03, -6.6D-11, -1.0D+00, r^2= 1.3D+01
   Bfn.  Coefficient  Atom+Function         Bfn.  Coefficient  Atom+Function  
  ----- ------------  ---------------      ----- ------------  ---------------
    68      3.137594  3 H  s                 87     -3.148237  4 H  s          
    15     -0.844637  1 C  px                67     -0.772904  3 H  s          
    86      0.775526  4 H  s                 11      0.461534  1 C  px         
    32     -0.225339  1 C  dxz               66     -0.190960  3 H  s          
    85      0.191608  4 H  s                 75      0.182444  3 H  px         

 Vector    9  Occ=0.000000D+00  E= 8.553280D-02
              MO Center=  1.7D-04, -4.2D-10, -6.2D-01, r^2= 9.3D+00
   Bfn.  Coefficient  Atom+Function         Bfn.  Coefficient  Atom+Function  
  ----- ------------  ---------------      ----- ------------  ---------------
    49      4.826883  2 H  s                 17     -4.043302  1 C  pz         
    48      2.791372  2 H  s                 68     -2.412819  3 H  s          
    87     -2.413928  4 H  s                 67     -1.395237  3 H  s          
    86     -1.395878  4 H  s                 13     -1.127815  1 C  pz         
    47      0.385709  2 H  s                 58     -0.377235  2 H  pz         

 Vector   10  Occ=0.000000D+00  E= 8.553924D-02
              MO Center= -1.7D-04,  4.9D-11,  6.2D-01, r^2= 9.3D+00
   Bfn.  Coefficient  Atom+Function         Bfn.  Coefficient  Atom+Function  
  ----- ------------  ---------------      ----- ------------  ---------------
    68     -4.180285  3 H  s                 87      4.179644  4 H  s          
    15      4.043176  1 C  px                67     -2.417578  3 H  s          
    86      2.417208  4 H  s                 11      1.127888  1 C  px         
    32     -0.545625  1 C  dxz               66     -0.334079  3 H  s          
    85      0.334028  4 H  s                 75      0.305757  3 H  px         

 Vector   11  Occ=0.000000D+00  E= 9.633834D-02
              MO Center=  1.9D-10,  7.1D-08,  1.6D-06, r^2= 8.9D+00
   Bfn.  Coefficient  Atom+Function         Bfn.  Coefficient  Atom+Function  
  ----- ------------  ---------------      ----- ------------  ---------------
    16      1.197693  1 C  py                12     -0.603731  1 C  py         
     4     -0.163516  1 C  py         

 Vector   12  Occ=0.000000D+00  E= 1.209674D-01
              MO Center=  1.9D-09, -4.5D-08,  1.1D-05, r^2= 1.3D+01
   Bfn.  Coefficient  Atom+Function         Bfn.  Coefficient  Atom+Function  
  ----- ------------  ---------------      ----- ------------  ---------------
    14     12.384145  1 C  s                 49     -3.130500  2 H  s          
    68     -3.130639  3 H  s                 87     -3.130639  4 H  s          
    10      1.637193  1 C  s                 48     -1.347265  2 H  s          
    67     -1.347601  3 H  s                 86     -1.347601  4 H  s          
    33     -0.629439  1 C  dyy                6     -0.361350  1 C  s          

 Vector   13  Occ=0.000000D+00  E= 1.461324D-01
              MO Center=  3.4D-08, -1.8D-09,  1.8D-05, r^2= 7.6D+00
   Bfn.  Coefficient  Atom+Function         Bfn.  Coefficient  Atom+Function  
  ----- ------------  ---------------      ----- ------------  ---------------
    10      5.995323  1 C  s                 14      4.044954  1 C  s          
    48     -3.925350  2 H  s                 67     -3.925347  3 H  s          
    86     -3.925347  4 H  s                 30      0.861235  1 C  dxx        
    35      0.861248  1 C  dzz               58      0.513007  2 H  pz         
    47     -0.498654  2 H  s                 66     -0.498642  3 H  s          

 Vector   14  Occ=0.000000D+00  E= 1.839609D-01
              MO Center=  1.1D-03,  2.1D-10,  9.2D-01, r^2= 9.1D+00
   Bfn.  Coefficient  Atom+Function         Bfn.  Coefficient  Atom+Function  
  ----- ------------  ---------------      ----- ------------  ---------------
    49     -4.402355  2 H  s                 48      4.137383  2 H  s          
    13     -2.669132  1 C  pz                68      2.203515  3 H  s          
    87      2.199024  4 H  s                 67     -2.070875  3 H  s          
    86     -2.066654  4 H  s                 17      1.552711  1 C  pz         
    47      0.713056  2 H  s                 58     -0.564969  2 H  pz         

 Vector   15  Occ=0.000000D+00  E= 1.839628D-01
              MO Center= -1.1D-03,  2.7D-10, -9.2D-01, r^2= 9.1D+00
   Bfn.  Coefficient  Atom+Function         Bfn.  Coefficient  Atom+Function  
  ----- ------------  ---------------      ----- ------------  ---------------
    68     -3.811413  3 H  s                 87      3.814006  4 H  s          
    67      3.581886  3 H  s                 86     -3.584323  4 H  s          
    11     -2.669108  1 C  px                15      1.552778  1 C  px         
    32      0.697690  1 C  dxz               66      0.617317  3 H  s          
    85     -0.617737  4 H  s                 75     -0.448981  3 H  px         

 Vector   16  Occ=0.000000D+00  E= 3.076206D-01
              MO Center=  4.2D-05,  5.9D-09,  2.3D-01, r^2= 3.2D+00
   Bfn.  Coefficient  Atom+Function         Bfn.  Coefficient  Atom+Function  
  ----- ------------  ---------------      ----- ------------  ---------------
    34      1.018279  1 C  dyz               57      0.437325  2 H  py         
    76     -0.218700  3 H  py                95     -0.218632  4 H  py         

 Vector   17  Occ=0.000000D+00  E= 3.076212D-01
              MO Center= -4.2D-05,  2.2D-09, -2.3D-01, r^2= 3.2D+00
   Bfn.  Coefficient  Atom+Function         Bfn.  Coefficient  Atom+Function  
  ----- ------------  ---------------      ----- ------------  ---------------
    31      1.018294  1 C  dxy               76      0.378711  3 H  py         
    95     -0.378750  4 H  py         

 Vector   18  Occ=0.000000D+00  E= 3.146951D-01
              MO Center=  5.4D-04, -5.2D-09, -4.6D-01, r^2= 6.2D+00
   Bfn.  Coefficient  Atom+Function         Bfn.  Coefficient  Atom+Function  
  ----- ------------  ---------------      ----- ------------  ---------------
    48      6.288688  2 H  s                 13     -3.442547  1 C  pz         
    67     -3.140917  3 H  s                 86     -3.147352  4 H  s          
    17     -2.723018  1 C  pz                49      1.622980  2 H  s          
    58     -1.261422  2 H  pz                30      1.133621  1 C  dxx        
    35     -1.133702  1 C  dzz               47      0.844225  2 H  s          

 Vector   19  Occ=0.000000D+00  E= 3.146968D-01
              MO Center= -5.4D-04, -2.6D-09,  4.6D-01, r^2= 6.2D+00
   Bfn.  Coefficient  Atom+Function         Bfn.  Coefficient  Atom+Function  
  ----- ------------  ---------------      ----- ------------  ---------------
    67      5.447973  3 H  s                 86     -5.444258  4 H  s          
    11     -3.442581  1 C  px                15     -2.723057  1 C  px         
    32      2.267354  1 C  dxz               68      1.406075  3 H  s          
    87     -1.405116  4 H  s                 75     -0.875238  3 H  px         
    94     -0.874447  4 H  px                66      0.731390  3 H  s          

 Vector   20  Occ=0.000000D+00  E= 3.724271D-01
              MO Center= -1.0D-09, -1.9D-09, -2.1D-05, r^2= 6.4D+00
   Bfn.  Coefficient  Atom+Function         Bfn.  Coefficient  Atom+Function  
  ----- ------------  ---------------      ----- ------------  ---------------
    10     11.840777  1 C  s                 14      9.159173  1 C  s          
    48     -5.963256  2 H  s                 67     -5.963494  3 H  s          
    86     -5.963494  4 H  s                 58      1.496063  2 H  pz         
    75      1.295674  3 H  px                94     -1.295674  4 H  px         
    49     -1.280994  2 H  s                 68     -1.281122  3 H  s          

 Vector   21  Occ=0.000000D+00  E= 4.625894D-01
              MO Center= -3.4D-09,  6.7D-10, -8.3D-06, r^2= 7.1D+00
   Bfn.  Coefficient  Atom+Function         Bfn.  Coefficient  Atom+Function  
  ----- ------------  ---------------      ----- ------------  ---------------
    14      6.755578  1 C  s                 10     -2.930371  1 C  s          
    33     -2.483590  1 C  dyy               48      2.362098  2 H  s          
    67      2.362248  3 H  s                 86      2.362248  4 H  s          
    30     -2.044701  1 C  dxx               35     -2.044666  1 C  dzz        
    49     -1.854979  2 H  s                 68     -1.854969  3 H  s          

 Vector   22  Occ=0.000000D+00  E= 4.864934D-01
              MO Center= -3.1D-09, -2.8D-12,  1.6D-05, r^2= 4.2D+00
   Bfn.  Coefficient  Atom+Function         Bfn.  Coefficient  Atom+Function  
  ----- ------------  ---------------      ----- ------------  ---------------
    56      1.058220  2 H  px                77     -0.916443  3 H  pz         
    96      0.916443  4 H  pz                75     -0.529085  3 H  px         
    94     -0.529085  4 H  px         

 Vector   23  Occ=0.000000D+00  E= 5.114659D-01
              MO Center=  2.0D-09, -9.5D-10,  4.4D-06, r^2= 4.5D+00
   Bfn.  Coefficient  Atom+Function         Bfn.  Coefficient  Atom+Function  
  ----- ------------  ---------------      ----- ------------  ---------------
    10      3.873762  1 C  s                 14      3.045661  1 C  s          
    30     -2.389106  1 C  dxx               35     -2.389092  1 C  dzz        
    58      0.977028  2 H  pz                75      0.846152  3 H  px         
    94     -0.846152  4 H  px                49     -0.727790  2 H  s          
    68     -0.727794  3 H  s                 87     -0.727794  4 H  s          


   alpha - beta orbital overlaps 
   ----------------------------- 


   alpha      1      2      3      4      5      6      7      8      9     10
    beta      1      2      3      4      5      6      7      8     11      9
 overlap   1.000  0.998  1.000  1.000  0.983  0.998  0.999  0.999  0.985  0.999


   alpha     11     12     13     14     15     16     17     18     19     20
    beta     10     12     13     14     15     16     17     18     19     20
 overlap   0.999  0.955  0.953  0.998  0.998  0.999  0.999  0.998  0.998  0.995


   alpha     21     22     23     24     25     26     27     28     29     30
    beta     21     22     24     23     25     26     27     28     29     31
 overlap   0.997  1.000  0.933  0.996  0.997  0.997  0.999  0.999  0.935  0.998


   alpha     31     32     33     34     35     36     37     38     39     40
    beta     30     32     33     34     35     36     37     39     38     40
 overlap   0.998  0.999  0.999  0.998  0.998  0.998  0.999  0.999  0.999  0.999


   alpha     41     42     43     44     45     46     47     48     49     50
    beta     41     43     42     44     45     46     47     48     49     50
 overlap   0.999  0.998  1.000  0.999  0.999  0.999  0.999  0.999  0.999  0.999


   alpha     51     52     53     54     55     56     57     58     59     60
    beta     51     52     53     55     54     56     57     58     59     60
 overlap   0.999  0.998  0.998  1.000  1.000  0.999  0.999  0.999  0.999  1.000


   alpha     61     62     63     64     65     66     67     68     69     70
    beta     61     62     63     64     65     66     67     68     69     70
 overlap   0.999  1.000  0.999  0.999  0.999  1.000  0.999  0.999  0.989  0.989


   alpha     71     72     73     74     75     76     77     78     79     80
    beta     71     73     74     72     75     76     77     78     79     80
 overlap   0.997  0.992  0.992  1.000  1.000  1.000  0.996  0.996  0.997  1.000


   alpha     81     82     83     84     85     86     87     88     89     90
    beta     81     82     83     84     85     86     87     88     89     90
 overlap   1.000  1.000  1.000  1.000  1.000  0.995  0.997  0.997  1.000  0.988


   alpha     91     92     93     94     95     96     97     98     99    100
    beta     91     94     93     92     95     96     97     98     99    100
 overlap   0.988  1.000  1.000  0.999  0.995  0.990  0.990  0.990  0.992  0.999


   alpha    101    102
    beta    101    102
 overlap   0.999  1.000

     --------------------------
     Expectation value of S2:  
     --------------------------
      <S2> =      0.7554 (Exact =     0.7500)


 center of mass
 --------------
 x =   0.00000000 y =   0.00000000 z =   0.00000000

 moments of inertia (a.u.)
 ------------------
           6.265612073575           0.000000000000           0.000000000000
           0.000000000000          12.531137005093           0.000000000000
           0.000000000000           0.000000000000           6.265524931517

     Multipole analysis of the density
     ---------------------------------

     L   x y z        total         alpha         beta         nuclear
     -   - - -        -----         -----         ----         -------
     0   0 0 0     -0.000000     -5.000000     -4.000000      9.000000

     1   1 0 0      0.000000      0.000000      0.000000      0.000000
     1   0 1 0      0.000000      0.000000     -0.000000      0.000000
     1   0 0 1      0.000000      0.000002     -0.000002      0.000000

     2   2 0 0     -5.446810     -6.171888     -5.491800      6.216878
     2   1 1 0     -0.000000     -0.000000      0.000000      0.000000
     2   1 0 1     -0.000000     -0.000000     -0.000000      0.000000
     2   0 2 0     -6.801451     -4.769965     -2.031486      0.000000
     2   0 1 1     -0.000000     -0.000000     -0.000000      0.000000
     2   0 0 2     -5.446789     -6.171920     -5.491834      6.216964


------------------------------------------------------------
EAF file 0: "./CH3.aoints.0" size=81264640 bytes
------------------------------------------------------------
               write      read    awrite     aread      wait
               -----      ----    ------     -----      ----
     calls:      155         5         0       770       770
   data(b): 8.13e+07  2.62e+06  0.00e+00  4.04e+08
   time(s): 0.00e+00  0.00e+00  0.00e+00  0.00e+00  0.00e+00
rate(mb/s): 0.00e+00  0.00e+00
------------------------------------------------------------


 Parallel integral file used     155 records with       0 large values


 Task  times  cpu:       24.1s     wall:       25.1s


                                NWChem Input Module
                                -------------------


 Summary of allocated global arrays
-----------------------------------
  No active global arrays



                         GA Statistics for process    0
                         ------------------------------

       create   destroy   get      put      acc     scatter   gather  read&inc
calls:  197      197     2.28e+04 7336     9592        0        0      377     
number of processes/call 1.00e+00 1.00e+00 1.00e+00 0.00e+00 0.00e+00
bytes total:             1.18e+08 1.79e+07 6.30e+07 0.00e+00 0.00e+00 3.02e+03
bytes remote:            0.00e+00 0.00e+00 0.00e+00 0.00e+00 0.00e+00 0.00e+00
Max memory consumed for GA by this process: 5410080 bytes

MA_summarize_allocated_blocks: starting scan ...
MA_summarize_allocated_blocks: scan completed: 0 heap blocks, 0 stack blocks
MA usage statistics:

	allocation statistics:
					      heap	     stack
					      ----	     -----
	current number of blocks	         0	         0
	maximum number of blocks	        22	        51
	current total bytes		         0	         0
	maximum total bytes		   2974872	  23989928
	maximum total K-bytes		      2975	     23990
	maximum total M-bytes		         3	        24


                                     CITATION
                                     --------
                Please cite the following reference when publishing
                           results obtained with NWChem:

                 M. Valiev, E.J. Bylaska, N. Govind, K. Kowalski,
              T.P. Straatsma, H.J.J. van Dam, D. Wang, J. Nieplocha,
                        E. Apra, T.L. Windus, W.A. de Jong
                 "NWChem: a comprehensive and scalable open-source
                  solution for large scale molecular simulations"
                      Comput. Phys. Commun. 181, 1477 (2010)
                           doi:10.1016/j.cpc.2010.04.018

                                      AUTHORS
                                      -------
          E. Apra, E. J. Bylaska, W. A. de Jong, N. Govind, K. Kowalski,
       T. P. Straatsma, M. Valiev, H. J. J. van Dam, D. Wang, T. L. Windus,
        J. Hammond, J. Autschbach, K. Bhaskaran-Nair, J. Brabec, K. Lopata,
       S. A. Fischer, S. Krishnamoorthy, W. Ma, M. Klemm, O. Villa, Y. Chen,
    V. Anisimov, F. Aquino, S. Hirata, M. T. Hackler, T. Risthaus, M. Malagoli,
       A. Marenich, A. Otero-de-la-Roza, J. Mullin, P. Nichols, R. Peverati,
     J. Pittner, Y. Zhao, P.-D. Fan, A. Fonari, M. Williamson, R. J. Harrison,
       J. R. Rehr, M. Dupuis, D. Silverstein, D. M. A. Smith, J. Nieplocha,
        V. Tipparaju, M. Krishnan, B. E. Van Kuiken, A. Vazquez-Mayagoitia,
        L. Jensen, M. Swart, Q. Wu, T. Van Voorhis, A. A. Auer, M. Nooijen,
      L. D. Crosby, E. Brown, G. Cisneros, G. I. Fann, H. Fruchtl, J. Garza,
        K. Hirao, R. A. Kendall, J. A. Nichols, K. Tsemekhman, K. Wolinski,
     J. Anchell, D. E. Bernholdt, P. Borowski, T. Clark, D. Clerc, H. Dachsel,
   M. J. O. Deegan, K. Dyall, D. Elwood, E. Glendening, M. Gutowski, A. C. Hess,
         J. Jaffe, B. G. Johnson, J. Ju, R. Kobayashi, R. Kutteh, Z. Lin,
   R. Littlefield, X. Long, B. Meng, T. Nakajima, S. Niu, L. Pollack, M. Rosing,
   K. Glaesemann, G. Sandrone, M. Stave, H. Taylor, G. Thomas, J. H. van Lenthe,
                               A. T. Wong, Z. Zhang.

 Total times  cpu:       24.1s     wall:       25.4s
