[1537883142.948529] [r8n3:27090:0]         sys.c:744  MXM  WARN  Conflicting CPU frequencies detected, using: 2499.99
[1537883142.955236] [r8n3:27090:0]         mxm.c:196  MXM  WARN  The 'ulimit -s' on the system is set to 'unlimited'. This may have negative performance implications. Please set the stack size to the default value (10240) 
[1537883142.957466] [r8n3:27090:0]         mxm.c:196  MXM  WARN  The 'ulimit -s' on the system is set to 'unlimited'. This may have negative performance implications. Please set the stack size to the default value (10240) 
 argument  1 = /storage/home/bikashp/nwchem_run/rabeet/bh38/bh6/nwrevtpss/H2S.nw
                                         
                                         


              Northwest Computational Chemistry Package (NWChem) 6.6
              ------------------------------------------------------


                    Environmental Molecular Sciences Laboratory
                       Pacific Northwest National Laboratory
                                Richland, WA 99352

                              Copyright (c) 1994-2015
                       Pacific Northwest National Laboratory
                            Battelle Memorial Institute

             NWChem is an open-source computational chemistry package
                        distributed under the terms of the
                      Educational Community License (ECL) 2.0
             A copy of the license is included with this distribution
                              in the LICENSE.TXT file

                                  ACKNOWLEDGMENT
                                  --------------

            This software and its documentation were developed at the
            EMSL at Pacific Northwest National Laboratory, a multiprogram
            national laboratory, operated for the U.S. Department of Energy
            by Battelle under Contract Number DE-AC05-76RL01830. Support
            for this work was provided by the Department of Energy Office
            of Biological and Environmental Research, Office of Basic
            Energy Sciences, and the Office of Advanced Scientific Computing.


           Job information
           ---------------

    hostname        = r8n3.niserhpc.org
    program         = /home/bikashp/Code/nwchem-6.6_revtpss/bin/LINUX64/nwchem
    date            = Tue Sep 25 19:15:43 2018

    compiled        = Tue_Sep_25_17:05:19_2018
    source          = /home/bikashp/Code/nwchem-6.6_revtpss
    nwchem branch   = 6.6
    nwchem revision = 27746
    ga revision     = 10594
    input           = /storage/home/bikashp/nwchem_run/rabeet/bh38/bh6/nwrevtpss/H2S.nw
    prefix          = H2S.
    data base       = ./H2S.db
    status          = startup
    nproc           =        1
    time left       =     -1s



           Memory information
           ------------------

    heap     =   13107196 doubles =    100.0 Mbytes
    stack    =   13107201 doubles =    100.0 Mbytes
    global   =   26214400 doubles =    200.0 Mbytes (distinct from heap & stack)
    total    =   52428797 doubles =    400.0 Mbytes
    verify   = yes
    hardfail = no 


           Directory information
           ---------------------

  0 permanent = .
  0 scratch   = .




                                NWChem Input Module
                                -------------------



 Scaling coordinates for geometry "geometry" by  1.889725989
 (inverse scale =  0.529177249)


          ------
          auto-z
          ------


                             Geometry "geometry" -> ""
                             -------------------------

 Output coordinates in angstroms (scale by  1.889725989 to convert to a.u.)

  No.       Tag          Charge          X              Y              Z
 ---- ---------------- ---------- -------------- -------------- --------------
    1 S                   16.0000     0.00000000     0.00000000     0.10251889
    2 H                    1.0000     0.00000000     0.96625000    -0.82015111
    3 H                    1.0000     0.00000000    -0.96625000    -0.82015111

      Atomic Mass 
      ----------- 

      S                 31.972070
      H                  1.007825


 Effective nuclear repulsion energy (a.u.)      12.9485109168

            Nuclear Dipole moment (a.u.) 
            ----------------------------
        X                 Y               Z
 ---------------- ---------------- ----------------
     0.0000000000     0.0000000000     0.0000000000



                                Z-matrix (autoz)
                                -------- 

 Units are Angstrom for bonds and degrees for angles

      Type          Name      I     J     K     L     M      Value
      ----------- --------  ----- ----- ----- ----- ----- ----------
    1 Stretch                  1     2                       1.33602
    2 Stretch                  1     3                       1.33602
    3 Bend                     2     1     3                92.64332


            XYZ format geometry
            -------------------
     3
 geometry
 S                     0.00000000     0.00000000     0.10251889
 H                     0.00000000     0.96625000    -0.82015111
 H                     0.00000000    -0.96625000    -0.82015111

 ==============================================================================
                                internuclear distances
 ------------------------------------------------------------------------------
       center one      |      center two      | atomic units |  angstroms
 ------------------------------------------------------------------------------
    2 H                |   1 S                |     2.52472  |     1.33602
    3 H                |   1 S                |     2.52472  |     1.33602
 ------------------------------------------------------------------------------
                         number of included internuclear distances:          2
 ==============================================================================



 ==============================================================================
                                 internuclear angles
 ------------------------------------------------------------------------------
        center 1       |       center 2       |       center 3       |  degrees
 ------------------------------------------------------------------------------
    2 H                |   1 S                |   3 H                |    92.64
 ------------------------------------------------------------------------------
                            number of included internuclear angles:          1
 ==============================================================================





 Summary of "ao basis" -> "" (cartesian)
 ------------------------------------------------------------------------------
       Tag                 Description            Shells   Functions and Types
 ---------------- ------------------------------  ------  ---------------------
 *                     6-311++G(3df,3pd)              on all atoms 



                                 NWChem DFT Module
                                 -----------------


                      Basis "ao basis" -> "ao basis" (cartesian)
                      -----
  S (Sulphur)
  -----------
            Exponent  Coefficients 
       -------------- ---------------------------------------------------------
  1 S  9.34134000E+04  0.000743
  1 S  1.39617000E+04  0.005793
  1 S  3.16991000E+03  0.029954
  1 S  9.02456000E+02  0.119028
  1 S  2.97158000E+02  0.368432
  1 S  1.08702000E+02  0.577299

  2 S  1.08702000E+02  0.143186
  2 S  4.31553000E+01  0.624465
  2 S  1.81079000E+01  0.283366

  3 S  5.56009000E+00  1.000000

  4 S  2.13183000E+00  1.000000

  5 S  4.20403000E-01  1.000000

  6 S  1.36045000E-01  1.000000

  7 P  4.95040000E+02  0.008309
  7 P  1.17221000E+02  0.064024
  7 P  3.77749000E+01  0.277614
  7 P  1.40584000E+01  0.745076

  8 P  5.56574000E+00  0.613712
  8 P  2.26297000E+00  0.443818

  9 P  8.07994000E-01  1.000000

 10 P  2.77460000E-01  1.000000

 11 P  7.71410000E-02  1.000000

 12 S  4.05000000E-02  1.000000

 13 P  4.05000000E-02  1.000000

 14 D  2.60000000E+00  1.000000

 15 D  6.50000000E-01  1.000000

 16 D  1.62500000E-01  1.000000

 17 F  5.50000000E-01  1.000000

  H (Hydrogen)
  ------------
            Exponent  Coefficients 
       -------------- ---------------------------------------------------------
  1 S  3.38650000E+01  0.025494
  1 S  5.09479000E+00  0.190373
  1 S  1.15879000E+00  0.852161

  2 S  3.25840000E-01  1.000000

  3 S  1.02741000E-01  1.000000

  4 S  3.60000000E-02  1.000000

  5 P  3.00000000E+00  1.000000

  6 P  7.50000000E-01  1.000000

  7 P  1.87500000E-01  1.000000

  8 D  1.00000000E+00  1.000000



 Summary of "ao basis" -> "ao basis" (cartesian)
 ------------------------------------------------------------------------------
       Tag                 Description            Shells   Functions and Types
 ---------------- ------------------------------  ------  ---------------------
 S                     6-311++G(3df,3pd)            17       53   7s6p3d1f
 H                     6-311++G(3df,3pd)             8       19   4s3p1d




 Summary of "ao basis" -> "ao basis" (cartesian)
 ------------------------------------------------------------------------------
       Tag                 Description            Shells   Functions and Types
 ---------------- ------------------------------  ------  ---------------------
 S                     6-311++G(3df,3pd)            17       53   7s6p3d1f
 H                     6-311++G(3df,3pd)             8       19   4s3p1d


  Caching 1-el integrals 

            General Information
            -------------------
          SCF calculation type: DFT
          Wavefunction type:  closed shell.
          No. of atoms     :     3
          No. of electrons :    18
           Alpha electrons :     9
            Beta electrons :     9
          Charge           :     0
          Spin multiplicity:     1
          Use of symmetry is: off; symmetry adaption is: off
          Maximum number of iterations: ***
          AO basis - number of functions:    91
                     number of shells:    33
          Convergence on energy requested: 1.00D-06
          Convergence on density requested: 1.00D-05
          Convergence on gradient requested: 5.00D-04

              XC Information
              --------------
                  TPSS metaGGA Exchange Functional  1.000          
             TPSS03 metaGGA Correlation Functional  1.000          

             Grid Information
             ----------------
          Grid used for XC integration:  medium    
          Radial quadrature: Mura-Knowles        
          Angular quadrature: Lebedev. 
          Tag              B.-S. Rad. Rad. Pts. Rad. Cut. Ang. Pts.
          ---              ---------- --------- --------- ---------
          S                   1.00       88          11.0       590
          H                   0.35       45          11.0       434
          Grid pruning is: on 
          Number of quadrature shells:   178
          Spatial weights used:  Erf1

          Convergence Information
          -----------------------
          Convergence aids based upon iterative change in 
          total energy or number of iterations. 
          Levelshifting, if invoked, occurs when the 
          HOMO/LUMO gap drops below (HL_TOL): 1.00D-02
          DIIS, if invoked, will attempt to extrapolate 
          using up to (NFOCK): 10 stored Fock matrices.

                    Damping( 0%)  Levelshifting(0.5)       DIIS
                  --------------- ------------------- ---------------
          dE  on:    start            ASAP                start   
          dE off:    2 iters        *** iters           *** iters 


      Screening Tolerance Information
      -------------------------------
          Density screening/tol_rho: 1.00D-10
          AO Gaussian exp screening on grid/accAOfunc:  14
          CD Gaussian exp screening on grid/accCDfunc:  20
          XC Gaussian exp screening on grid/accXCfunc:  20
          Schwarz screening/accCoul: 1.00D-08


      Superposition of Atomic Density Guess
      -------------------------------------

 Sum of atomic energies:        -398.47988734

      Non-variational initial energy
      ------------------------------

 Total energy =    -398.648397
 1-e energy   =    -575.736523
 2-e energy   =     164.139615
 HOMO         =      -0.323124
 LUMO         =       0.027314

   Time after variat. SCF:      0.5
   Time prior to 1st pass:      0.5

 Integral file          = ./H2S.aoints.0
 Record size in doubles =    65536    No. of integs per rec  =    43688
 Max. records in memory =      275    Max. records in file   = ********
 No. of bits per label  =        8    No. of bits per value  =       64


 #quartets = 1.566D+05 #integrals = 4.260D+06 #direct =  0.0% #cached =100.0%


 Grid_pts file          = ./H2S.gridpts.0
 Record size in doubles =  12289        No. of grid_pts per rec  =   3070
 Max. records in memory =     39        Max. recs in file   = 995333415


           Memory utilization after 1st SCF pass: 
           Heap Space remaining (MW):        0.00                  72
          Stack Space remaining (MW):       13.11            13106604

   convergence    iter        energy       DeltaE   RMS-Dens  Diis-err    time
 ---------------- ----- ----------------- --------- --------- ---------  ------
 d= 0,ls=0.0,diis     1   -399.2597667017 -4.12D+02  5.59D-03  5.72D-01     3.6
 d= 0,ls=0.0,diis     2   -399.2705725844 -1.08D-02  3.86D-03  7.78D-02     5.5
 d= 0,ls=0.0,diis     3   -399.2737506116 -3.18D-03  1.75D-03  5.92D-02     7.4
 d= 0,ls=0.0,diis     4   -399.2818795340 -8.13D-03  1.74D-04  1.87D-04     9.3
 d= 0,ls=0.0,diis     5   -399.2819404592 -6.09D-05  3.92D-05  3.88D-05    11.3
  Resetting Diis
 d= 0,ls=0.0,diis     6   -399.2819377803  2.68D-06  4.14D-06  6.72D-08    13.2
 d= 0,ls=0.0,diis     7   -399.2819374997  2.81D-07  6.97D-07  1.95D-09    15.2


         Total DFT energy =     -399.281937499746
      One electron energy =     -576.699543205202
           Coulomb energy =      190.738646020498
          Exchange energy =      -25.581324273991
       Correlation energy =       -0.688226957868
 Nuclear repulsion energy =       12.948510916817

 Numeric. integr. density =       17.999993873370

     Total iterative time =     14.7s



                       DFT Final Molecular Orbital Analysis
                       ------------------------------------

 Vector    1  Occ=2.000000D+00  E=-8.840786D+01
              MO Center= -8.4D-14, -5.2D-14,  1.0D-01, r^2= 3.6D-03
   Bfn.  Coefficient  Atom+Function         Bfn.  Coefficient  Atom+Function  
  ----- ------------  ---------------      ----- ------------  ---------------
     2      0.653426  1 S  s                  1      0.411747  1 S  s          

 Vector    2  Occ=2.000000D+00  E=-7.763005D+00
              MO Center= -4.0D-11, -6.5D-11,  1.0D-01, r^2= 7.7D-02
   Bfn.  Coefficient  Atom+Function         Bfn.  Coefficient  Atom+Function  
  ----- ------------  ---------------      ----- ------------  ---------------
     4      0.587366  1 S  s                  3      0.514207  1 S  s          
     2     -0.320777  1 S  s          

 Vector    3  Occ=2.000000D+00  E=-5.724474D+00
              MO Center= -4.2D-12,  7.3D-11,  1.0D-01, r^2= 6.9D-02
   Bfn.  Coefficient  Atom+Function         Bfn.  Coefficient  Atom+Function  
  ----- ------------  ---------------      ----- ------------  ---------------
    11      0.707761  1 S  py                 8      0.376159  1 S  py         

 Vector    4  Occ=2.000000D+00  E=-5.720766D+00
              MO Center=  2.2D-11, -2.6D-11,  1.0D-01, r^2= 6.9D-02
   Bfn.  Coefficient  Atom+Function         Bfn.  Coefficient  Atom+Function  
  ----- ------------  ---------------      ----- ------------  ---------------
    12      0.707809  1 S  pz                 9      0.376285  1 S  pz         

 Vector    5  Occ=2.000000D+00  E=-5.713478D+00
              MO Center=  6.1D-12, -7.3D-12,  1.0D-01, r^2= 6.9D-02
   Bfn.  Coefficient  Atom+Function         Bfn.  Coefficient  Atom+Function  
  ----- ------------  ---------------      ----- ------------  ---------------
    10      0.708052  1 S  px                 7      0.376584  1 S  px         

 Vector    6  Occ=2.000000D+00  E=-6.979567D-01
              MO Center= -1.3D-09, -4.8D-09, -2.2D-01, r^2= 1.0D+00
   Bfn.  Coefficient  Atom+Function         Bfn.  Coefficient  Atom+Function  
  ----- ------------  ---------------      ----- ------------  ---------------
     5      0.580114  1 S  s                  6      0.499851  1 S  s          
     4     -0.343880  1 S  s                  3     -0.200031  1 S  s          

 Vector    7  Occ=2.000000D+00  E=-4.182102D-01
              MO Center= -4.7D-09, -7.1D-09, -3.9D-01, r^2= 1.5D+00
   Bfn.  Coefficient  Atom+Function         Bfn.  Coefficient  Atom+Function  
  ----- ------------  ---------------      ----- ------------  ---------------
    17      0.313154  1 S  py                55      0.226573  2 H  s          
    74     -0.226573  3 H  s                 14      0.224448  1 S  py         
    11     -0.153186  1 S  py         

 Vector    8  Occ=2.000000D+00  E=-3.415378D-01
              MO Center=  2.3D-09,  4.1D-09,  1.5D-01, r^2= 1.5D+00
   Bfn.  Coefficient  Atom+Function         Bfn.  Coefficient  Atom+Function  
  ----- ------------  ---------------      ----- ------------  ---------------
     6      0.456801  1 S  s                 18      0.403796  1 S  pz         
     5      0.272210  1 S  s                 15      0.235072  1 S  pz         
    55     -0.172876  2 H  s                 74     -0.172876  3 H  s          
    12     -0.164592  1 S  pz                21      0.159290  1 S  pz         
     4     -0.158077  1 S  s          

 Vector    9  Occ=2.000000D+00  E=-2.372564D-01
              MO Center= -1.5D-09, -1.8D-09,  4.6D-02, r^2= 1.5D+00
   Bfn.  Coefficient  Atom+Function         Bfn.  Coefficient  Atom+Function  
  ----- ------------  ---------------      ----- ------------  ---------------
    16      0.618295  1 S  px                19      0.294824  1 S  px         
    13      0.270460  1 S  px                10     -0.196366  1 S  px         

 Vector   10  Occ=0.000000D+00  E=-3.093599D-02
              MO Center= -1.0D-07, -4.9D-07, -8.5D-01, r^2= 9.6D+00
   Bfn.  Coefficient  Atom+Function         Bfn.  Coefficient  Atom+Function  
  ----- ------------  ---------------      ----- ------------  ---------------
    22      1.912539  1 S  s                 57     -1.514836  2 H  s          
    76     -1.514837  3 H  s                 25     -0.783633  1 S  pz         
     5      0.226079  1 S  s                 21      0.164206  1 S  pz         

 Vector   11  Occ=0.000000D+00  E=-1.633976D-02
              MO Center=  1.3D-09,  5.6D-08, -2.8D-01, r^2= 4.6D+00
   Bfn.  Coefficient  Atom+Function         Bfn.  Coefficient  Atom+Function  
  ----- ------------  ---------------      ----- ------------  ---------------
    57      1.550601  2 H  s                 76     -1.550601  3 H  s          
    24     -0.952946  1 S  py                17     -0.520573  1 S  py         
    56      0.359303  2 H  s                 75     -0.359303  3 H  s          
    42     -0.320616  1 S  dyz               20     -0.248417  1 S  py         
    36     -0.226467  1 S  dyz               55      0.174596  2 H  s          

 Vector   12  Occ=0.000000D+00  E= 2.180132D-02
              MO Center= -1.1D-08,  4.7D-07, -5.1D-01, r^2= 1.3D+01
   Bfn.  Coefficient  Atom+Function         Bfn.  Coefficient  Atom+Function  
  ----- ------------  ---------------      ----- ------------  ---------------
    57      1.652209  2 H  s                 76     -1.652208  3 H  s          
    56     -0.743248  2 H  s                 75      0.743247  3 H  s          
    17      0.350400  1 S  py                24      0.295244  1 S  py         

 Vector   13  Occ=0.000000D+00  E= 3.261645D-02
              MO Center= -1.3D-07, -5.6D-09,  9.0D-01, r^2= 1.2D+01
   Bfn.  Coefficient  Atom+Function         Bfn.  Coefficient  Atom+Function  
  ----- ------------  ---------------      ----- ------------  ---------------
    25      1.643715  1 S  pz                21     -1.386431  1 S  pz         
    22      0.912238  1 S  s                 56     -0.513161  2 H  s          
    75     -0.513161  3 H  s                  6      0.402329  1 S  s          

 Vector   14  Occ=0.000000D+00  E= 3.946708D-02
              MO Center=  3.5D-07, -8.5D-09,  7.8D-02, r^2= 1.3D+01
   Bfn.  Coefficient  Atom+Function         Bfn.  Coefficient  Atom+Function  
  ----- ------------  ---------------      ----- ------------  ---------------
    23      1.783331  1 S  px                19     -1.120015  1 S  px         
    13     -0.163576  1 S  px         

 Vector   15  Occ=0.000000D+00  E= 6.799001D-02
              MO Center= -1.4D-07, -1.3D-07, -4.5D-01, r^2= 6.0D+00
   Bfn.  Coefficient  Atom+Function         Bfn.  Coefficient  Atom+Function  
  ----- ------------  ---------------      ----- ------------  ---------------
    56      2.489468  2 H  s                 75      2.489468  3 H  s          
    21      1.816926  1 S  pz                 6     -1.778074  1 S  s          
    22     -1.508955  1 S  s                 18      0.889157  1 S  pz         
    43     -0.325953  1 S  dzz               57     -0.309265  2 H  s          
    76     -0.309266  3 H  s                 38     -0.250401  1 S  dxx        

 Vector   16  Occ=0.000000D+00  E= 8.411182D-02
              MO Center= -1.4D-09, -2.6D-07, -2.2D-01, r^2= 1.6D+01
   Bfn.  Coefficient  Atom+Function         Bfn.  Coefficient  Atom+Function  
  ----- ------------  ---------------      ----- ------------  ---------------
    57      5.849033  2 H  s                 76     -5.849035  3 H  s          
    24     -5.039947  1 S  py                20      2.991983  1 S  py         
    56     -2.116846  2 H  s                 75      2.116845  3 H  s          
    17      0.613187  1 S  py                42     -0.531092  1 S  dyz        
    55     -0.265332  2 H  s                 74      0.265332  3 H  s          

 Vector   17  Occ=0.000000D+00  E= 8.971525D-02
              MO Center=  8.1D-09,  2.8D-07, -8.9D-01, r^2= 1.4D+01
   Bfn.  Coefficient  Atom+Function         Bfn.  Coefficient  Atom+Function  
  ----- ------------  ---------------      ----- ------------  ---------------
    22      9.527025  1 S  s                 57     -4.251686  2 H  s          
    76     -4.251684  3 H  s                 25     -3.127185  1 S  pz         
    38     -0.470025  1 S  dxx               41     -0.472082  1 S  dyy        
     5     -0.451479  1 S  s                 43     -0.448965  1 S  dzz        
    21      0.433930  1 S  pz                56     -0.286551  2 H  s          

 Vector   18  Occ=0.000000D+00  E= 1.533885D-01
              MO Center=  7.9D-09, -1.2D-08, -1.7D-01, r^2= 3.0D+00
   Bfn.  Coefficient  Atom+Function         Bfn.  Coefficient  Atom+Function  
  ----- ------------  ---------------      ----- ------------  ---------------
    56      0.781305  2 H  s                 75      0.781305  3 H  s          
    21      0.722078  1 S  pz                22     -0.690620  1 S  s          
     6     -0.538292  1 S  s                 18      0.475766  1 S  pz         
    41     -0.446049  1 S  dyy               65     -0.310629  2 H  py         
    84      0.310629  3 H  py                43      0.262922  1 S  dzz        

 Vector   19  Occ=0.000000D+00  E= 1.806076D-01
              MO Center= -3.3D-08, -3.4D-08, -1.5D-01, r^2= 2.7D+00
   Bfn.  Coefficient  Atom+Function         Bfn.  Coefficient  Atom+Function  
  ----- ------------  ---------------      ----- ------------  ---------------
    39      1.082185  1 S  dxy               33      0.356297  1 S  dxy        
    64      0.258307  2 H  px                83     -0.258307  3 H  px         

 Vector   20  Occ=0.000000D+00  E= 1.883068D-01
              MO Center= -5.8D-10,  2.7D-08, -2.3D-02, r^2= 2.7D+00
   Bfn.  Coefficient  Atom+Function         Bfn.  Coefficient  Atom+Function  
  ----- ------------  ---------------      ----- ------------  ---------------
    40      1.110604  1 S  dxz               34      0.354114  1 S  dxz        
    16      0.267726  1 S  px                64     -0.257092  2 H  px         
    83     -0.257092  3 H  px                19      0.177863  1 S  px         

 Vector   21  Occ=0.000000D+00  E= 2.551280D-01
              MO Center=  2.6D-08, -1.7D-07, -3.0D-01, r^2= 8.5D+00
   Bfn.  Coefficient  Atom+Function         Bfn.  Coefficient  Atom+Function  
  ----- ------------  ---------------      ----- ------------  ---------------
    56      2.031001  2 H  s                 75     -2.031002  3 H  s          
    17     -1.598126  1 S  py                24     -1.133233  1 S  py         
    20      1.002959  1 S  py                42      0.781260  1 S  dyz        
    57     -0.749033  2 H  s                 76      0.749033  3 H  s          
    55     -0.451901  2 H  s                 74      0.451901  3 H  s          

 Vector   22  Occ=0.000000D+00  E= 2.679309D-01
              MO Center= -9.0D-09,  1.2D-07,  8.2D-01, r^2= 7.6D+00
   Bfn.  Coefficient  Atom+Function         Bfn.  Coefficient  Atom+Function  
  ----- ------------  ---------------      ----- ------------  ---------------
    21      5.117486  1 S  pz                 6     -4.545318  1 S  s          
    56      4.408631  2 H  s                 75      4.408630  3 H  s          
    22     -2.451256  1 S  s                 25     -1.381583  1 S  pz         
    43     -0.952835  1 S  dzz               65     -0.808562  2 H  py         
    84      0.808562  3 H  py                41     -0.696995  1 S  dyy        

 Vector   23  Occ=0.000000D+00  E= 2.811365D-01
              MO Center= -1.7D-08,  1.9D-08, -1.9D-01, r^2= 7.1D+00
   Bfn.  Coefficient  Atom+Function         Bfn.  Coefficient  Atom+Function  
  ----- ------------  ---------------      ----- ------------  ---------------
    22      4.887022  1 S  s                 56     -2.546500  2 H  s          
    75     -2.546500  3 H  s                 25     -2.441003  1 S  pz         
    18     -1.513811  1 S  pz                57     -1.380985  2 H  s          
    76     -1.380985  3 H  s                  6      1.198711  1 S  s          
    38     -0.694665  1 S  dxx               21      0.668436  1 S  pz         

 Vector   24  Occ=0.000000D+00  E= 2.984859D-01
              MO Center=  1.5D-08,  8.6D-09,  1.3D-01, r^2= 8.0D+00
   Bfn.  Coefficient  Atom+Function         Bfn.  Coefficient  Atom+Function  
  ----- ------------  ---------------      ----- ------------  ---------------
    19      3.100048  1 S  px                16     -2.063380  1 S  px         
    23     -1.888746  1 S  px                44      0.493474  1 S  fxxx       
    47      0.485536  1 S  fxyy              49      0.487678  1 S  fxzz       

 Vector   25  Occ=0.000000D+00  E= 3.309046D-01
              MO Center= -2.6D-09,  3.9D-08, -1.4D-01, r^2= 9.9D+00
   Bfn.  Coefficient  Atom+Function         Bfn.  Coefficient  Atom+Function  
  ----- ------------  ---------------      ----- ------------  ---------------
    20      7.557198  1 S  py                56     -6.717711  2 H  s          
    75      6.717711  3 H  s                 24     -4.872021  1 S  py         
    57      4.761103  2 H  s                 76     -4.761103  3 H  s          
    42     -2.920815  1 S  dyz               66     -0.863453  2 H  pz         
    85      0.863453  3 H  pz                65      0.780026  2 H  py         

 Vector   26  Occ=0.000000D+00  E= 4.043699D-01
              MO Center= -1.6D-08, -6.5D-08, -5.6D-01, r^2= 5.7D+00
   Bfn.  Coefficient  Atom+Function         Bfn.  Coefficient  Atom+Function  
  ----- ------------  ---------------      ----- ------------  ---------------
    56      3.341689  2 H  s                 75      3.341690  3 H  s          
    22      2.833693  1 S  s                  6     -1.916799  1 S  s          
    21      1.758654  1 S  pz                43     -1.748913  1 S  dzz        
    57     -1.635844  2 H  s                 76     -1.635845  3 H  s          
    38     -1.550880  1 S  dxx               18      1.446818  1 S  pz         

 Vector   27  Occ=0.000000D+00  E= 4.404566D-01
              MO Center= -2.0D-08, -1.9D-07, -4.0D-01, r^2= 4.3D+00
   Bfn.  Coefficient  Atom+Function         Bfn.  Coefficient  Atom+Function  
  ----- ------------  ---------------      ----- ------------  ---------------
    56     -1.722856  2 H  s                 75      1.722855  3 H  s          
    20      1.569996  1 S  py                66     -1.186160  2 H  pz         
    85      1.186161  3 H  pz                17      1.149961  1 S  py         
    57      0.922840  2 H  s                 76     -0.922841  3 H  s          
    24     -0.776653  1 S  py                42      0.577004  1 S  dyz        

 Vector   28  Occ=0.000000D+00  E= 4.521732D-01
              MO Center= -9.1D-10,  2.0D-07, -4.6D-01, r^2= 5.6D+00
   Bfn.  Coefficient  Atom+Function         Bfn.  Coefficient  Atom+Function  
  ----- ------------  ---------------      ----- ------------  ---------------
    22      5.118047  1 S  s                 41     -2.834995  1 S  dyy        
     6      2.604170  1 S  s                 57     -2.046259  2 H  s          
    76     -2.046258  3 H  s                 38     -1.684887  1 S  dxx        
    25     -1.641786  1 S  pz                43     -1.122071  1 S  dzz        
    18     -1.074712  1 S  pz                21      0.987995  1 S  pz         

 Vector   29  Occ=0.000000D+00  E= 4.650298D-01
              MO Center=  2.3D-08, -4.1D-08, -5.5D-01, r^2= 3.9D+00
   Bfn.  Coefficient  Atom+Function         Bfn.  Coefficient  Atom+Function  
  ----- ------------  ---------------      ----- ------------  ---------------
    39      2.103534  1 S  dxy               64     -1.265182  2 H  px         
    83      1.265182  3 H  px                33      0.207203  1 S  dxy        

 Vector   30  Occ=0.000000D+00  E= 4.996630D-01
              MO Center=  2.1D-09,  4.7D-08, -5.6D-01, r^2= 4.1D+00
   Bfn.  Coefficient  Atom+Function         Bfn.  Coefficient  Atom+Function  
  ----- ------------  ---------------      ----- ------------  ---------------
    40      2.250876  1 S  dxz               19     -1.612690  1 S  px         
    64      1.473733  2 H  px                83      1.473733  3 H  px         
    16     -0.938181  1 S  px                23      0.420133  1 S  px         
    47      0.255139  1 S  fxyy              34      0.228593  1 S  dxz        
    49      0.224033  1 S  fxzz              44      0.214313  1 S  fxxx       

 Vector   31  Occ=0.000000D+00  E= 5.351274D-01
              MO Center=  2.1D-08,  8.7D-08, -3.4D-01, r^2= 4.5D+00
   Bfn.  Coefficient  Atom+Function         Bfn.  Coefficient  Atom+Function  
  ----- ------------  ---------------      ----- ------------  ---------------
     6      2.942912  1 S  s                 43     -2.637752  1 S  dzz        
    22      2.192701  1 S  s                 21      2.076051  1 S  pz         
    66     -1.537921  2 H  pz                85     -1.537921  3 H  pz         
    25     -1.215082  1 S  pz                57     -0.775953  2 H  s          
    76     -0.775952  3 H  s                 55      0.723229  2 H  s          


 center of mass
 --------------
 x =   0.00000000 y =   0.00000000 z =   0.09032837

 moments of inertia (a.u.)
 ------------------
          12.484751471082           0.000000000000           0.000000000000
           0.000000000000           5.764402766093           0.000000000000
           0.000000000000           0.000000000000           6.720348704990

     Multipole analysis of the density
     ---------------------------------

     L   x y z        total         alpha         beta         nuclear
     -   - - -        -----         -----         ----         -------
     0   0 0 0     -0.000000     -9.000000     -9.000000     18.000000

     1   1 0 0      0.000000      0.000000      0.000000      0.000000
     1   0 1 0      0.000000      0.000000      0.000000      0.000000
     1   0 0 1     -0.381425     -0.190712     -0.190712      0.000000

     2   2 0 0    -12.427018     -6.213509     -6.213509      0.000000
     2   1 1 0      0.000000      0.000000      0.000000      0.000000
     2   1 0 1     -0.000000     -0.000000     -0.000000      0.000000
     2   0 2 0     -9.214799     -7.941485     -7.941485      6.668170
     2   0 1 1     -0.000000     -0.000000     -0.000000      0.000000
     2   0 0 2    -10.169988     -7.787321     -7.787321      5.404655


 Parallel integral file used      98 records with       0 large values


 Task  times  cpu:       15.1s     wall:       15.7s


                                NWChem Input Module
                                -------------------


 Summary of allocated global arrays
-----------------------------------
  No active global arrays



                         GA Statistics for process    0
                         ------------------------------

       create   destroy   get      put      acc     scatter   gather  read&inc
calls:  138      138     7998     3722     3133        0        0      363     
number of processes/call 1.00e+00 1.00e+00 1.00e+00 0.00e+00 0.00e+00
bytes total:             5.15e+07 8.15e+06 2.93e+07 0.00e+00 0.00e+00 2.90e+03
bytes remote:            0.00e+00 0.00e+00 0.00e+00 0.00e+00 0.00e+00 0.00e+00
Max memory consumed for GA by this process: 2583672 bytes

MA_summarize_allocated_blocks: starting scan ...
MA_summarize_allocated_blocks: scan completed: 0 heap blocks, 0 stack blocks
MA usage statistics:

	allocation statistics:
					      heap	     stack
					      ----	     -----
	current number of blocks	         0	         0
	maximum number of blocks	        23	        51
	current total bytes		         0	         0
	maximum total bytes		 148041888	  23559848
	maximum total K-bytes		    148042	     23560
	maximum total M-bytes		       149	        24


                                     CITATION
                                     --------
                Please cite the following reference when publishing
                           results obtained with NWChem:

                 M. Valiev, E.J. Bylaska, N. Govind, K. Kowalski,
              T.P. Straatsma, H.J.J. van Dam, D. Wang, J. Nieplocha,
                        E. Apra, T.L. Windus, W.A. de Jong
                 "NWChem: a comprehensive and scalable open-source
                  solution for large scale molecular simulations"
                      Comput. Phys. Commun. 181, 1477 (2010)
                           doi:10.1016/j.cpc.2010.04.018

                                      AUTHORS
                                      -------
          E. Apra, E. J. Bylaska, W. A. de Jong, N. Govind, K. Kowalski,
       T. P. Straatsma, M. Valiev, H. J. J. van Dam, D. Wang, T. L. Windus,
        J. Hammond, J. Autschbach, K. Bhaskaran-Nair, J. Brabec, K. Lopata,
       S. A. Fischer, S. Krishnamoorthy, W. Ma, M. Klemm, O. Villa, Y. Chen,
    V. Anisimov, F. Aquino, S. Hirata, M. T. Hackler, T. Risthaus, M. Malagoli,
       A. Marenich, A. Otero-de-la-Roza, J. Mullin, P. Nichols, R. Peverati,
     J. Pittner, Y. Zhao, P.-D. Fan, A. Fonari, M. Williamson, R. J. Harrison,
       J. R. Rehr, M. Dupuis, D. Silverstein, D. M. A. Smith, J. Nieplocha,
        V. Tipparaju, M. Krishnan, B. E. Van Kuiken, A. Vazquez-Mayagoitia,
        L. Jensen, M. Swart, Q. Wu, T. Van Voorhis, A. A. Auer, M. Nooijen,
      L. D. Crosby, E. Brown, G. Cisneros, G. I. Fann, H. Fruchtl, J. Garza,
        K. Hirao, R. A. Kendall, J. A. Nichols, K. Tsemekhman, K. Wolinski,
     J. Anchell, D. E. Bernholdt, P. Borowski, T. Clark, D. Clerc, H. Dachsel,
   M. J. O. Deegan, K. Dyall, D. Elwood, E. Glendening, M. Gutowski, A. C. Hess,
         J. Jaffe, B. G. Johnson, J. Ju, R. Kobayashi, R. Kutteh, Z. Lin,
   R. Littlefield, X. Long, B. Meng, T. Nakajima, S. Niu, L. Pollack, M. Rosing,
   K. Glaesemann, G. Sandrone, M. Stave, H. Taylor, G. Thomas, J. H. van Lenthe,
                               A. T. Wong, Z. Zhang.

 Total times  cpu:       15.2s     wall:       15.9s
