[1537883182.869443] [r8n3:27184:0]         sys.c:744  MXM  WARN  Conflicting CPU frequencies detected, using: 2499.99
[1537883182.876145] [r8n3:27184:0]         mxm.c:196  MXM  WARN  The 'ulimit -s' on the system is set to 'unlimited'. This may have negative performance implications. Please set the stack size to the default value (10240) 
[1537883182.878374] [r8n3:27184:0]         mxm.c:196  MXM  WARN  The 'ulimit -s' on the system is set to 'unlimited'. This may have negative performance implications. Please set the stack size to the default value (10240) 
 argument  1 = /storage/home/bikashp/nwchem_run/rabeet/bh38/bh6/nwrevtpss/OH.nw
                                         
                                         


              Northwest Computational Chemistry Package (NWChem) 6.6
              ------------------------------------------------------


                    Environmental Molecular Sciences Laboratory
                       Pacific Northwest National Laboratory
                                Richland, WA 99352

                              Copyright (c) 1994-2015
                       Pacific Northwest National Laboratory
                            Battelle Memorial Institute

             NWChem is an open-source computational chemistry package
                        distributed under the terms of the
                      Educational Community License (ECL) 2.0
             A copy of the license is included with this distribution
                              in the LICENSE.TXT file

                                  ACKNOWLEDGMENT
                                  --------------

            This software and its documentation were developed at the
            EMSL at Pacific Northwest National Laboratory, a multiprogram
            national laboratory, operated for the U.S. Department of Energy
            by Battelle under Contract Number DE-AC05-76RL01830. Support
            for this work was provided by the Department of Energy Office
            of Biological and Environmental Research, Office of Basic
            Energy Sciences, and the Office of Advanced Scientific Computing.


           Job information
           ---------------

    hostname        = r8n3.niserhpc.org
    program         = /home/bikashp/Code/nwchem-6.6_revtpss/bin/LINUX64/nwchem
    date            = Tue Sep 25 19:16:23 2018

    compiled        = Tue_Sep_25_17:05:19_2018
    source          = /home/bikashp/Code/nwchem-6.6_revtpss
    nwchem branch   = 6.6
    nwchem revision = 27746
    ga revision     = 10594
    input           = /storage/home/bikashp/nwchem_run/rabeet/bh38/bh6/nwrevtpss/OH.nw
    prefix          = OH.
    data base       = ./OH.db
    status          = startup
    nproc           =        1
    time left       =     -1s



           Memory information
           ------------------

    heap     =   13107196 doubles =    100.0 Mbytes
    stack    =   13107201 doubles =    100.0 Mbytes
    global   =   26214400 doubles =    200.0 Mbytes (distinct from heap & stack)
    total    =   52428797 doubles =    400.0 Mbytes
    verify   = yes
    hardfail = no 


           Directory information
           ---------------------

  0 permanent = .
  0 scratch   = .




                                NWChem Input Module
                                -------------------



 Scaling coordinates for geometry "geometry" by  1.889725989
 (inverse scale =  0.529177249)


          ------
          auto-z
          ------


                             Geometry "geometry" -> ""
                             -------------------------

 Output coordinates in angstroms (scale by  1.889725989 to convert to a.u.)

  No.       Tag          Charge          X              Y              Z
 ---- ---------------- ---------- -------------- -------------- --------------
    1 O                    8.0000     0.00000000     0.00000000    -0.10765556
    2 H                    1.0000     0.00000000     0.00000000     0.86124444

      Atomic Mass 
      ----------- 

      O                 15.994910
      H                  1.007825


 Effective nuclear repulsion energy (a.u.)       4.3693033254

            Nuclear Dipole moment (a.u.) 
            ----------------------------
        X                 Y               Z
 ---------------- ---------------- ----------------
     0.0000000000     0.0000000000     0.0000000000



                                Z-matrix (autoz)
                                -------- 

 Units are Angstrom for bonds and degrees for angles

      Type          Name      I     J     K     L     M      Value
      ----------- --------  ----- ----- ----- ----- ----- ----------
    1 Stretch                  1     2                       0.96890


            XYZ format geometry
            -------------------
     2
 geometry
 O                     0.00000000     0.00000000    -0.10765556
 H                     0.00000000     0.00000000     0.86124444

 ==============================================================================
                                internuclear distances
 ------------------------------------------------------------------------------
       center one      |      center two      | atomic units |  angstroms
 ------------------------------------------------------------------------------
    2 H                |   1 O                |     1.83096  |     0.96890
 ------------------------------------------------------------------------------
                         number of included internuclear distances:          1
 ==============================================================================





 Summary of "ao basis" -> "" (cartesian)
 ------------------------------------------------------------------------------
       Tag                 Description            Shells   Functions and Types
 ---------------- ------------------------------  ------  ---------------------
 *                     6-311++G(3df,3pd)              on all atoms 



                                 NWChem DFT Module
                                 -----------------


                      Basis "ao basis" -> "ao basis" (cartesian)
                      -----
  O (Oxygen)
  ----------
            Exponent  Coefficients 
       -------------- ---------------------------------------------------------
  1 S  8.58850000E+03  0.001895
  1 S  1.29723000E+03  0.014386
  1 S  2.99296000E+02  0.070732
  1 S  8.73771000E+01  0.240001
  1 S  2.56789000E+01  0.594797
  1 S  3.74004000E+00  0.280802

  2 S  4.21175000E+01  0.113889
  2 S  9.62837000E+00  0.920811
  2 S  2.85332000E+00 -0.003274

  3 P  4.21175000E+01  0.036511
  3 P  9.62837000E+00  0.237153
  3 P  2.85332000E+00  0.819702

  4 S  9.05661000E-01  1.000000

  5 P  9.05661000E-01  1.000000

  6 S  2.55611000E-01  1.000000

  7 P  2.55611000E-01  1.000000

  8 S  8.45000000E-02  1.000000

  9 P  8.45000000E-02  1.000000

 10 D  5.16000000E+00  1.000000

 11 D  1.29200000E+00  1.000000

 12 D  3.22500000E-01  1.000000

 13 F  1.40000000E+00  1.000000

  H (Hydrogen)
  ------------
            Exponent  Coefficients 
       -------------- ---------------------------------------------------------
  1 S  3.38650000E+01  0.025494
  1 S  5.09479000E+00  0.190373
  1 S  1.15879000E+00  0.852161

  2 S  3.25840000E-01  1.000000

  3 S  1.02741000E-01  1.000000

  4 S  3.60000000E-02  1.000000

  5 P  3.00000000E+00  1.000000

  6 P  7.50000000E-01  1.000000

  7 P  1.87500000E-01  1.000000

  8 D  1.00000000E+00  1.000000



 Summary of "ao basis" -> "ao basis" (cartesian)
 ------------------------------------------------------------------------------
       Tag                 Description            Shells   Functions and Types
 ---------------- ------------------------------  ------  ---------------------
 O                     6-311++G(3df,3pd)            13       45   5s4p3d1f
 H                     6-311++G(3df,3pd)             8       19   4s3p1d




 Summary of "ao basis" -> "ao basis" (cartesian)
 ------------------------------------------------------------------------------
       Tag                 Description            Shells   Functions and Types
 ---------------- ------------------------------  ------  ---------------------
 O                     6-311++G(3df,3pd)            13       45   5s4p3d1f
 H                     6-311++G(3df,3pd)             8       19   4s3p1d


  Caching 1-el integrals 

            General Information
            -------------------
          SCF calculation type: DFT
          Wavefunction type:  spin polarized.
          No. of atoms     :     2
          No. of electrons :     9
           Alpha electrons :     5
            Beta electrons :     4
          Charge           :     0
          Spin multiplicity:     2
          Use of symmetry is: off; symmetry adaption is: off
          Maximum number of iterations: ***
          AO basis - number of functions:    64
                     number of shells:    21
          Convergence on energy requested: 1.00D-06
          Convergence on density requested: 1.00D-05
          Convergence on gradient requested: 5.00D-04

              XC Information
              --------------
                  TPSS metaGGA Exchange Functional  1.000          
             TPSS03 metaGGA Correlation Functional  1.000          

             Grid Information
             ----------------
          Grid used for XC integration:  medium    
          Radial quadrature: Mura-Knowles        
          Angular quadrature: Lebedev. 
          Tag              B.-S. Rad. Rad. Pts. Rad. Cut. Ang. Pts.
          ---              ---------- --------- --------- ---------
          O                   0.60       49           8.0       434
          H                   0.35       45           8.0       434
          Grid pruning is: on 
          Number of quadrature shells:    94
          Spatial weights used:  Erf1

          Convergence Information
          -----------------------
          Convergence aids based upon iterative change in 
          total energy or number of iterations. 
          Levelshifting, if invoked, occurs when the 
          HOMO/LUMO gap drops below (HL_TOL): 1.00D-02
          DIIS, if invoked, will attempt to extrapolate 
          using up to (NFOCK): 10 stored Fock matrices.

                    Damping( 0%)  Levelshifting(0.5)       DIIS
                  --------------- ------------------- ---------------
          dE  on:    start            ASAP                start   
          dE off:    2 iters        *** iters           *** iters 


      Screening Tolerance Information
      -------------------------------
          Density screening/tol_rho: 1.00D-10
          AO Gaussian exp screening on grid/accAOfunc:  14
          CD Gaussian exp screening on grid/accCDfunc:  20
          XC Gaussian exp screening on grid/accXCfunc:  20
          Schwarz screening/accCoul: 1.00D-08


      Superposition of Atomic Density Guess
      -------------------------------------

 Sum of atomic energies:         -75.27760388

      Non-variational initial energy
      ------------------------------

 Total energy =     -75.076479
 1-e energy   =    -112.025408
 2-e energy   =      32.579626
 HOMO         =      -0.428671
 LUMO         =       0.036547

   Time after variat. SCF:      0.2
   Time prior to 1st pass:      0.2

 Integral file          = ./OH.aoints.0
 Record size in doubles =    65536    No. of integs per rec  =    43688
 Max. records in memory =       70    Max. records in file   = ********
 No. of bits per label  =        8    No. of bits per value  =       64


 #quartets = 2.680D+04 #integrals = 5.635D+05 #direct =  0.0% #cached =100.0%


 Grid_pts file          = ./OH.gridpts.0
 Record size in doubles =  12289        No. of grid_pts per rec  =   3070
 Max. records in memory =     16        Max. recs in file   = 995335675


           Memory utilization after 1st SCF pass: 
           Heap Space remaining (MW):        8.32             8320444
          Stack Space remaining (MW):       13.11            13106556

   convergence    iter        energy       DeltaE   RMS-Dens  Diis-err    time
 ---------------- ----- ----------------- --------- --------- ---------  ------
 d= 0,ls=0.0,diis     1    -75.7221254937 -8.01D+01  2.68D-03  7.92D-02     1.5
                                                     2.73D-03  5.62D-02
 d= 0,ls=0.0,diis     2    -75.7372085045 -1.51D-02  1.22D-03  9.07D-03     2.4
                                                     1.17D-03  6.65D-03
 d= 0,ls=0.0,diis     3    -75.7392706592 -2.06D-03  4.56D-04  4.21D-03     3.3
                                                     4.83D-04  3.76D-03
 d= 0,ls=0.0,diis     4    -75.7404480168 -1.18D-03  1.36D-04  5.31D-04     4.1
                                                     9.87D-05  3.11D-04
 d= 0,ls=0.0,diis     5    -75.7406297031 -1.82D-04  6.99D-06  2.36D-06     5.0
                                                     2.27D-05  6.66D-06
  Resetting Diis
 d= 0,ls=0.0,diis     6    -75.7406277974  1.91D-06  5.55D-06  2.46D-07     5.9
                                                     2.26D-06  3.43D-08
 d= 0,ls=0.0,diis     7    -75.7406283646 -5.67D-07  4.09D-07  2.71D-09     6.8
                                                     9.88D-07  5.28D-09


         Total DFT energy =      -75.740628364637
      One electron energy =     -112.589514621603
           Coulomb energy =       41.339191107612
          Exchange energy =       -8.567228046680
       Correlation energy =       -0.292380129384
 Nuclear repulsion energy =        4.369303325418

 Numeric. integr. density =        8.999999865593

     Total iterative time =      6.6s



                    DFT Final Alpha Molecular Orbital Analysis
                    ------------------------------------------

 Vector    1  Occ=1.000000D+00  E=-1.899517D+01
              MO Center=  2.8D-13,  3.0D-13, -1.1D-01, r^2= 1.5D-02
   Bfn.  Coefficient  Atom+Function         Bfn.  Coefficient  Atom+Function  
  ----- ------------  ---------------      ----- ------------  ---------------
     1      0.551836  1 O  s                  2      0.470290  1 O  s          

 Vector    2  Occ=1.000000D+00  E=-9.647886D-01
              MO Center=  1.7D-09, -1.6D-09,  8.8D-02, r^2= 4.6D-01
   Bfn.  Coefficient  Atom+Function         Bfn.  Coefficient  Atom+Function  
  ----- ------------  ---------------      ----- ------------  ---------------
     6      0.607855  1 O  s                 10      0.591309  1 O  s          
     2     -0.215958  1 O  s          

 Vector    3  Occ=1.000000D+00  E=-4.375239D-01
              MO Center=  2.1D-09, -1.5D-09, -4.1D-02, r^2= 7.3D-01
   Bfn.  Coefficient  Atom+Function         Bfn.  Coefficient  Atom+Function  
  ----- ------------  ---------------      ----- ------------  ---------------
     9      0.359955  1 O  pz                10     -0.305067  1 O  s          
    13      0.301093  1 O  pz                 5      0.257365  1 O  pz         
     6     -0.212802  1 O  s                 46      0.175296  2 H  s          

 Vector    4  Occ=1.000000D+00  E=-3.742317D-01
              MO Center= -5.7D-12,  1.3D-09, -7.8D-02, r^2= 5.8D-01
   Bfn.  Coefficient  Atom+Function         Bfn.  Coefficient  Atom+Function  
  ----- ------------  ---------------      ----- ------------  ---------------
     8      0.467368  1 O  py                12      0.379819  1 O  py         
     4      0.312717  1 O  py         

 Vector    5  Occ=1.000000D+00  E=-2.990463D-01
              MO Center= -1.3D-09, -2.6D-10, -7.4D-02, r^2= 6.5D-01
   Bfn.  Coefficient  Atom+Function         Bfn.  Coefficient  Atom+Function  
  ----- ------------  ---------------      ----- ------------  ---------------
     7      0.439516  1 O  px                11      0.388863  1 O  px         
     3      0.304654  1 O  px         

 Vector    6  Occ=0.000000D+00  E=-2.702415D-02
              MO Center=  4.4D-08, -5.8D-08,  1.2D+00, r^2= 5.9D+00
   Bfn.  Coefficient  Atom+Function         Bfn.  Coefficient  Atom+Function  
  ----- ------------  ---------------      ----- ------------  ---------------
    49      1.152461  2 H  s                 14     -0.663288  1 O  s          
    48      0.433956  2 H  s                 10     -0.285103  1 O  s          
    17     -0.176984  1 O  pz                47      0.160036  2 H  s          

 Vector    7  Occ=0.000000D+00  E= 1.111709D-01
              MO Center=  5.8D-07, -1.0D-06,  6.7D-01, r^2= 5.7D+00
   Bfn.  Coefficient  Atom+Function         Bfn.  Coefficient  Atom+Function  
  ----- ------------  ---------------      ----- ------------  ---------------
    48      3.715551  2 H  s                 14     -1.995514  1 O  s          
    49     -1.187651  2 H  s                 13     -0.650967  1 O  pz         
    17     -0.630718  1 O  pz                10     -0.478269  1 O  s          
    58     -0.263720  2 H  pz                 9     -0.225608  1 O  pz         
    47      0.194690  2 H  s                  5     -0.157957  1 O  pz         

 Vector    8  Occ=0.000000D+00  E= 1.284721D-01
              MO Center= -8.7D-09,  6.7D-08, -1.1D-01, r^2= 4.9D+00
   Bfn.  Coefficient  Atom+Function         Bfn.  Coefficient  Atom+Function  
  ----- ------------  ---------------      ----- ------------  ---------------
    16      1.214340  1 O  py                12     -0.425963  1 O  py         
    15     -0.189050  1 O  px                 8     -0.155998  1 O  py         

 Vector    9  Occ=0.000000D+00  E= 1.357278D-01
              MO Center=  8.9D-07,  1.2D-06, -2.8D-01, r^2= 6.7D+00
   Bfn.  Coefficient  Atom+Function         Bfn.  Coefficient  Atom+Function  
  ----- ------------  ---------------      ----- ------------  ---------------
    14      1.710111  1 O  s                 49     -1.173702  2 H  s          
    17     -0.858203  1 O  pz                48      0.731243  2 H  s          
     6     -0.357286  1 O  s                 13      0.344910  1 O  pz         
    30     -0.327637  1 O  dxx               33     -0.323755  1 O  dyy        
    35     -0.217225  1 O  dzz               47     -0.158048  2 H  s          

 Vector   10  Occ=0.000000D+00  E= 1.401006D-01
              MO Center= -1.5D-06, -2.3D-07, -1.2D-01, r^2= 4.9D+00
   Bfn.  Coefficient  Atom+Function         Bfn.  Coefficient  Atom+Function  
  ----- ------------  ---------------      ----- ------------  ---------------
    15      1.231228  1 O  px                11     -0.465629  1 O  px         
    16      0.191678  1 O  py                 7     -0.159462  1 O  px         

 Vector   11  Occ=0.000000D+00  E= 1.879698D-01
              MO Center=  4.7D-08, -2.9D-08, -8.6D-02, r^2= 6.7D+00
   Bfn.  Coefficient  Atom+Function         Bfn.  Coefficient  Atom+Function  
  ----- ------------  ---------------      ----- ------------  ---------------
    14      6.949796  1 O  s                 48     -6.459560  2 H  s          
    17      3.420962  1 O  pz                49     -0.987058  2 H  s          
    58      0.924501  2 H  pz                47     -0.668390  2 H  s          
    10      0.643979  1 O  s                 13      0.504910  1 O  pz         
     6     -0.162615  1 O  s                 30     -0.159958  1 O  dxx        

 Vector   12  Occ=0.000000D+00  E= 3.454337D-01
              MO Center= -4.9D-09,  3.1D-08,  7.3D-01, r^2= 2.9D+00
   Bfn.  Coefficient  Atom+Function         Bfn.  Coefficient  Atom+Function  
  ----- ------------  ---------------      ----- ------------  ---------------
    57      1.521875  2 H  py                16     -0.711482  1 O  py         
    12     -0.437706  1 O  py                56     -0.236914  2 H  px         

 Vector   13  Occ=0.000000D+00  E= 3.533812D-01
              MO Center= -1.6D-08, -2.5D-09,  7.5D-01, r^2= 2.9D+00
   Bfn.  Coefficient  Atom+Function         Bfn.  Coefficient  Atom+Function  
  ----- ------------  ---------------      ----- ------------  ---------------
    56      1.538351  2 H  px                15     -0.700342  1 O  px         
    11     -0.461096  1 O  px                57      0.239479  2 H  py         

 Vector   14  Occ=0.000000D+00  E= 4.208727D-01
              MO Center= -1.5D-08,  1.6D-08,  7.7D-01, r^2= 4.4D+00
   Bfn.  Coefficient  Atom+Function         Bfn.  Coefficient  Atom+Function  
  ----- ------------  ---------------      ----- ------------  ---------------
    48      9.726911  2 H  s                 14     -5.504114  1 O  s          
    17     -2.652874  1 O  pz                58     -2.413110  2 H  pz         
    10     -1.681330  1 O  s                 13     -1.034514  1 O  pz         
    35     -0.922773  1 O  dzz               49     -0.884827  2 H  s          
    47     -0.459372  2 H  s                 30     -0.385821  1 O  dxx        

 Vector   15  Occ=0.000000D+00  E= 6.393138D-01
              MO Center= -9.4D-09,  9.3D-09,  1.3D+00, r^2= 3.1D+00
   Bfn.  Coefficient  Atom+Function         Bfn.  Coefficient  Atom+Function  
  ----- ------------  ---------------      ----- ------------  ---------------
    48      8.927545  2 H  s                 14     -7.220042  1 O  s          
    10     -5.614802  1 O  s                 58     -4.989997  2 H  pz         
    47      4.804053  2 H  s                 13     -3.342161  1 O  pz         
    17     -2.326540  1 O  pz                35     -0.779870  1 O  dzz        
    49      0.417680  2 H  s                  6     -0.255760  1 O  s          


                     DFT Final Beta Molecular Orbital Analysis
                     -----------------------------------------

 Vector    1  Occ=1.000000D+00  E=-1.897147D+01
              MO Center=  2.5D-13,  1.8D-14, -1.1D-01, r^2= 1.5D-02
   Bfn.  Coefficient  Atom+Function         Bfn.  Coefficient  Atom+Function  
  ----- ------------  ---------------      ----- ------------  ---------------
     1      0.552414  1 O  s                  2      0.469773  1 O  s          

 Vector    2  Occ=1.000000D+00  E=-9.032955D-01
              MO Center=  1.7D-09, -1.6D-09,  1.2D-01, r^2= 4.7D-01
   Bfn.  Coefficient  Atom+Function         Bfn.  Coefficient  Atom+Function  
  ----- ------------  ---------------      ----- ------------  ---------------
     6      0.574233  1 O  s                 10      0.574212  1 O  s          
     2     -0.207092  1 O  s          

 Vector    3  Occ=1.000000D+00  E=-4.149805D-01
              MO Center=  2.6D-09, -2.8D-09, -6.2D-02, r^2= 7.6D-01
   Bfn.  Coefficient  Atom+Function         Bfn.  Coefficient  Atom+Function  
  ----- ------------  ---------------      ----- ------------  ---------------
     9      0.343737  1 O  pz                10     -0.337540  1 O  s          
    13      0.285453  1 O  pz                 5      0.250938  1 O  pz         
     6     -0.220224  1 O  s                 46      0.175522  2 H  s          
    47      0.164125  2 H  s          

 Vector    4  Occ=1.000000D+00  E=-2.781224D-01
              MO Center= -5.6D-10, -3.7D-10, -7.4D-02, r^2= 6.8D-01
   Bfn.  Coefficient  Atom+Function         Bfn.  Coefficient  Atom+Function  
  ----- ------------  ---------------      ----- ------------  ---------------
     7      0.424605  1 O  px                11      0.392543  1 O  px         
     3      0.301338  1 O  px         

 Vector    5  Occ=0.000000D+00  E=-2.185586D-01
              MO Center=  1.4D-09, -6.5D-09, -6.8D-02, r^2= 7.8D-01
   Bfn.  Coefficient  Atom+Function         Bfn.  Coefficient  Atom+Function  
  ----- ------------  ---------------      ----- ------------  ---------------
    12      0.392959  1 O  py                 8      0.389107  1 O  py         
     4      0.290185  1 O  py         

 Vector    6  Occ=0.000000D+00  E=-2.183600D-02
              MO Center=  6.5D-08, -9.5D-08,  1.3D+00, r^2= 6.1D+00
   Bfn.  Coefficient  Atom+Function         Bfn.  Coefficient  Atom+Function  
  ----- ------------  ---------------      ----- ------------  ---------------
    49      1.212817  2 H  s                 14     -0.817177  1 O  s          
    48      0.512260  2 H  s                 10     -0.293234  1 O  s          
    17     -0.222874  1 O  pz                13     -0.155063  1 O  pz         
    47      0.155126  2 H  s          

 Vector    7  Occ=0.000000D+00  E= 1.188020D-01
              MO Center=  7.1D-07, -6.9D-07,  6.5D-01, r^2= 5.6D+00
   Bfn.  Coefficient  Atom+Function         Bfn.  Coefficient  Atom+Function  
  ----- ------------  ---------------      ----- ------------  ---------------
    48      3.721343  2 H  s                 14     -2.012757  1 O  s          
    49     -1.165464  2 H  s                 13     -0.656372  1 O  pz         
    17     -0.607153  1 O  pz                10     -0.453756  1 O  s          
    58     -0.247979  2 H  pz                 9     -0.217153  1 O  pz         
     5     -0.158363  1 O  pz         

 Vector    8  Occ=0.000000D+00  E= 1.416144D-01
              MO Center=  2.9D-06, -4.3D-07, -4.2D-01, r^2= 6.5D+00
   Bfn.  Coefficient  Atom+Function         Bfn.  Coefficient  Atom+Function  
  ----- ------------  ---------------      ----- ------------  ---------------
    14      1.271666  1 O  s                 48      1.209114  2 H  s          
    49     -1.126722  2 H  s                 17     -1.074598  1 O  pz         
     6     -0.348235  1 O  s                 30     -0.329658  1 O  dxx        
    33     -0.328322  1 O  dyy               13      0.310959  1 O  pz         
    35     -0.232692  1 O  dzz        

 Vector    9  Occ=0.000000D+00  E= 1.437973D-01
              MO Center= -3.3D-06, -5.2D-07, -1.2D-01, r^2= 4.9D+00
   Bfn.  Coefficient  Atom+Function         Bfn.  Coefficient  Atom+Function  
  ----- ------------  ---------------      ----- ------------  ---------------
    15      1.236015  1 O  px                11     -0.481741  1 O  px         
    16      0.192505  1 O  py                 7     -0.157219  1 O  px         

 Vector   10  Occ=0.000000D+00  E= 1.566867D-01
              MO Center= -2.2D-07,  1.5D-06, -1.2D-01, r^2= 4.9D+00
   Bfn.  Coefficient  Atom+Function         Bfn.  Coefficient  Atom+Function  
  ----- ------------  ---------------      ----- ------------  ---------------
    16      1.238609  1 O  py                12     -0.518457  1 O  py         
    15     -0.192907  1 O  px                 8     -0.163657  1 O  py         

 Vector   11  Occ=0.000000D+00  E= 1.939360D-01
              MO Center= -1.9D-08,  1.8D-07,  2.6D-02, r^2= 6.7D+00
   Bfn.  Coefficient  Atom+Function         Bfn.  Coefficient  Atom+Function  
  ----- ------------  ---------------      ----- ------------  ---------------
    14      7.089175  1 O  s                 48     -6.471930  2 H  s          
    17      3.386818  1 O  pz                49     -1.025686  2 H  s          
    58      0.954203  2 H  pz                47     -0.675871  2 H  s          
    10      0.642073  1 O  s                 13      0.524331  1 O  pz         
    33     -0.178033  1 O  dyy                6     -0.176810  1 O  s          

 Vector   12  Occ=0.000000D+00  E= 3.537531D-01
              MO Center= -2.3D-08, -3.6D-09,  7.6D-01, r^2= 2.9D+00
   Bfn.  Coefficient  Atom+Function         Bfn.  Coefficient  Atom+Function  
  ----- ------------  ---------------      ----- ------------  ---------------
    56      1.542649  2 H  px                15     -0.697095  1 O  px         
    11     -0.469791  1 O  px                57      0.240241  2 H  py         

 Vector   13  Occ=0.000000D+00  E= 3.558957D-01
              MO Center= -6.5D-09,  4.2D-08,  7.6D-01, r^2= 2.9D+00
   Bfn.  Coefficient  Atom+Function         Bfn.  Coefficient  Atom+Function  
  ----- ------------  ---------------      ----- ------------  ---------------
    57      1.549934  2 H  py                16     -0.693463  1 O  py         
    12     -0.488984  1 O  py                56     -0.241374  2 H  px         
    34     -0.160152  1 O  dyz        

 Vector   14  Occ=0.000000D+00  E= 4.296005D-01
              MO Center= -1.8D-08,  2.7D-08,  7.6D-01, r^2= 4.3D+00
   Bfn.  Coefficient  Atom+Function         Bfn.  Coefficient  Atom+Function  
  ----- ------------  ---------------      ----- ------------  ---------------
    48      9.851327  2 H  s                 14     -5.598899  1 O  s          
    17     -2.680103  1 O  pz                58     -2.518943  2 H  pz         
    10     -1.771319  1 O  s                 13     -1.083548  1 O  pz         
    35     -0.946106  1 O  dzz               49     -0.869337  2 H  s          
    33     -0.391442  1 O  dyy               47     -0.378960  2 H  s          

 Vector   15  Occ=0.000000D+00  E= 6.492667D-01
              MO Center= -1.1D-08,  1.5D-08,  1.3D+00, r^2= 3.0D+00
   Bfn.  Coefficient  Atom+Function         Bfn.  Coefficient  Atom+Function  
  ----- ------------  ---------------      ----- ------------  ---------------
    48      8.844911  2 H  s                 14     -7.073031  1 O  s          
    10     -5.655973  1 O  s                 58     -5.014712  2 H  pz         
    47      4.905991  2 H  s                 13     -3.397105  1 O  pz         
    17     -2.273159  1 O  pz                35     -0.808895  1 O  dzz        
    49      0.392790  2 H  s                  6     -0.253583  1 O  s          


   alpha - beta orbital overlaps 
   ----------------------------- 


   alpha      1      2      3      4      5      6      7      8      9     10
    beta      1      2      3      5      4      6      7     10      8      9
 overlap   1.000  0.999  0.999  0.993  1.000  0.999  0.999  0.994  0.998  1.000


   alpha     11     12     13     14     15     16     17     18     19     20
    beta     11     13     12     14     15     17     16     18     21     20
 overlap   0.998  0.999  1.000  0.999  0.999  0.991  1.000  0.994  0.963  0.998


   alpha     21     22     23     24     25     26     27     28     29     30
    beta     19     23     22     24     25     26     27     28     29     30
 overlap   0.998  0.963  0.998  1.000  1.000  1.000  1.000  0.999  0.999  0.997


   alpha     31     32     33     34     35     36     37     38     39     40
    beta     31     32     33     35     34     36     37     38     39     40
 overlap   0.996  0.999  1.000  0.990  0.997  0.993  0.999  1.000  0.999  0.999


   alpha     41     42     43     44     45     46     47     48     49     50
    beta     41     42     43     44     46     45     47     48     49     50
 overlap   1.000  1.000  1.000  1.000  1.000  1.000  1.000  1.000  1.000  1.000


   alpha     51     52     53     54     55     56     57     58     59     60
    beta     51     52     53     54     56     55     57     58     59     60
 overlap   1.000  1.000  1.000  1.000  1.000  1.000  1.000  1.000  1.000  1.000


   alpha     61     62     63     64
    beta     61     62     63     64
 overlap   1.000  1.000  1.000  1.000

     --------------------------
     Expectation value of S2:  
     --------------------------
      <S2> =      0.7526 (Exact =     0.7500)


 center of mass
 --------------
 x =   0.00000000 y =   0.00000000 z =  -0.09491092

 moments of inertia (a.u.)
 ------------------
           3.178364675049           0.000000000000           0.000000000000
           0.000000000000           3.178364675049           0.000000000000
           0.000000000000           0.000000000000           0.000000000000

     Multipole analysis of the density
     ---------------------------------

     L   x y z        total         alpha         beta         nuclear
     -   - - -        -----         -----         ----         -------
     0   0 0 0     -0.000000     -5.000000     -4.000000      9.000000

     1   1 0 0     -0.000000     -0.000000     -0.000000      0.000000
     1   0 1 0      0.000000      0.000000      0.000000      0.000000
     1   0 0 1      0.634969      0.401395      0.233574      0.000000

     2   2 0 0     -5.143518     -2.731198     -2.412320      0.000000
     2   1 1 0     -0.156305     -0.006571     -0.149734      0.000000
     2   1 0 1      0.000000      0.000000      0.000000      0.000000
     2   0 2 0     -4.163783     -2.690009     -1.473774      0.000000
     2   0 1 1     -0.000000     -0.000000     -0.000000      0.000000
     2   0 0 2     -3.559305     -3.415780     -3.123434      2.979909


 Parallel integral file used      13 records with       0 large values


 Task  times  cpu:        6.8s     wall:        7.2s


                                NWChem Input Module
                                -------------------


 Summary of allocated global arrays
-----------------------------------
  No active global arrays



                         GA Statistics for process    0
                         ------------------------------

       create   destroy   get      put      acc     scatter   gather  read&inc
calls:  255      255     7606     4031     2319        0        0      220     
number of processes/call 1.00e+00 1.00e+00 1.00e+00 0.00e+00 0.00e+00
bytes total:             4.30e+07 7.93e+06 2.38e+07 0.00e+00 0.00e+00 1.76e+03
bytes remote:            0.00e+00 0.00e+00 0.00e+00 0.00e+00 0.00e+00 0.00e+00
Max memory consumed for GA by this process: 2129920 bytes

MA_summarize_allocated_blocks: starting scan ...
MA_summarize_allocated_blocks: scan completed: 0 heap blocks, 0 stack blocks
MA usage statistics:

	allocation statistics:
					      heap	     stack
					      ----	     -----
	current number of blocks	         0	         0
	maximum number of blocks	        23	        51
	current total bytes		         0	         0
	maximum total bytes		  38293608	  22513896
	maximum total K-bytes		     38294	     22514
	maximum total M-bytes		        39	        23


                                     CITATION
                                     --------
                Please cite the following reference when publishing
                           results obtained with NWChem:

                 M. Valiev, E.J. Bylaska, N. Govind, K. Kowalski,
              T.P. Straatsma, H.J.J. van Dam, D. Wang, J. Nieplocha,
                        E. Apra, T.L. Windus, W.A. de Jong
                 "NWChem: a comprehensive and scalable open-source
                  solution for large scale molecular simulations"
                      Comput. Phys. Commun. 181, 1477 (2010)
                           doi:10.1016/j.cpc.2010.04.018

                                      AUTHORS
                                      -------
          E. Apra, E. J. Bylaska, W. A. de Jong, N. Govind, K. Kowalski,
       T. P. Straatsma, M. Valiev, H. J. J. van Dam, D. Wang, T. L. Windus,
        J. Hammond, J. Autschbach, K. Bhaskaran-Nair, J. Brabec, K. Lopata,
       S. A. Fischer, S. Krishnamoorthy, W. Ma, M. Klemm, O. Villa, Y. Chen,
    V. Anisimov, F. Aquino, S. Hirata, M. T. Hackler, T. Risthaus, M. Malagoli,
       A. Marenich, A. Otero-de-la-Roza, J. Mullin, P. Nichols, R. Peverati,
     J. Pittner, Y. Zhao, P.-D. Fan, A. Fonari, M. Williamson, R. J. Harrison,
       J. R. Rehr, M. Dupuis, D. Silverstein, D. M. A. Smith, J. Nieplocha,
        V. Tipparaju, M. Krishnan, B. E. Van Kuiken, A. Vazquez-Mayagoitia,
        L. Jensen, M. Swart, Q. Wu, T. Van Voorhis, A. A. Auer, M. Nooijen,
      L. D. Crosby, E. Brown, G. Cisneros, G. I. Fann, H. Fruchtl, J. Garza,
        K. Hirao, R. A. Kendall, J. A. Nichols, K. Tsemekhman, K. Wolinski,
     J. Anchell, D. E. Bernholdt, P. Borowski, T. Clark, D. Clerc, H. Dachsel,
   M. J. O. Deegan, K. Dyall, D. Elwood, E. Glendening, M. Gutowski, A. C. Hess,
         J. Jaffe, B. G. Johnson, J. Ju, R. Kobayashi, R. Kutteh, Z. Lin,
   R. Littlefield, X. Long, B. Meng, T. Nakajima, S. Niu, L. Pollack, M. Rosing,
   K. Glaesemann, G. Sandrone, M. Stave, H. Taylor, G. Thomas, J. H. van Lenthe,
                               A. T. Wong, Z. Zhang.

 Total times  cpu:        6.8s     wall:        7.5s
