[1537883403.160450] [r8n3:27288:0]         sys.c:744  MXM  WARN  Conflicting CPU frequencies detected, using: 2499.99
[1537883403.166969] [r8n3:27288:0]         mxm.c:196  MXM  WARN  The 'ulimit -s' on the system is set to 'unlimited'. This may have negative performance implications. Please set the stack size to the default value (10240) 
[1537883403.169123] [r8n3:27288:0]         mxm.c:196  MXM  WARN  The 'ulimit -s' on the system is set to 'unlimited'. This may have negative performance implications. Please set the stack size to the default value (10240) 
 argument  1 = /storage/home/bikashp/nwchem_run/rabeet/bh38/bh6/nwrevtpss/TS3.nw
                                         
                                         


              Northwest Computational Chemistry Package (NWChem) 6.6
              ------------------------------------------------------


                    Environmental Molecular Sciences Laboratory
                       Pacific Northwest National Laboratory
                                Richland, WA 99352

                              Copyright (c) 1994-2015
                       Pacific Northwest National Laboratory
                            Battelle Memorial Institute

             NWChem is an open-source computational chemistry package
                        distributed under the terms of the
                      Educational Community License (ECL) 2.0
             A copy of the license is included with this distribution
                              in the LICENSE.TXT file

                                  ACKNOWLEDGMENT
                                  --------------

            This software and its documentation were developed at the
            EMSL at Pacific Northwest National Laboratory, a multiprogram
            national laboratory, operated for the U.S. Department of Energy
            by Battelle under Contract Number DE-AC05-76RL01830. Support
            for this work was provided by the Department of Energy Office
            of Biological and Environmental Research, Office of Basic
            Energy Sciences, and the Office of Advanced Scientific Computing.


           Job information
           ---------------

    hostname        = r8n3.niserhpc.org
    program         = /home/bikashp/Code/nwchem-6.6_revtpss/bin/LINUX64/nwchem
    date            = Tue Sep 25 19:20:03 2018

    compiled        = Tue_Sep_25_17:05:19_2018
    source          = /home/bikashp/Code/nwchem-6.6_revtpss
    nwchem branch   = 6.6
    nwchem revision = 27746
    ga revision     = 10594
    input           = /storage/home/bikashp/nwchem_run/rabeet/bh38/bh6/nwrevtpss/TS3.nw
    prefix          = TS3.
    data base       = ./TS3.db
    status          = startup
    nproc           =        1
    time left       =     -1s



           Memory information
           ------------------

    heap     =   13107196 doubles =    100.0 Mbytes
    stack    =   13107201 doubles =    100.0 Mbytes
    global   =   26214400 doubles =    200.0 Mbytes (distinct from heap & stack)
    total    =   52428797 doubles =    400.0 Mbytes
    verify   = yes
    hardfail = no 


           Directory information
           ---------------------

  0 permanent = .
  0 scratch   = .




                                NWChem Input Module
                                -------------------



 Scaling coordinates for geometry "geometry" by  1.889725989
 (inverse scale =  0.529177249)


          ------
          auto-z
          ------
  autoz: The atoms group into disjoint clusters
 cluster   1:    1    2    3
 cluster   2:    4
 Connecting clusters   1   2 via atoms    3    4 r = 1.15
  autoz: regenerating connections with new bonds


                             Geometry "geometry" -> ""
                             -------------------------

 Output coordinates in angstroms (scale by  1.889725989 to convert to a.u.)

  No.       Tag          Charge          X              Y              Z
 ---- ---------------- ---------- -------------- -------------- --------------
    1 H                    1.0000     1.26210000    -0.22009684     0.00000000
    2 S                   16.0000     0.00000000     0.22315316     0.00000000
    3 H                    1.0000    -0.50058000    -1.11544684     0.00000000
    4 H                    1.0000    -0.76152000    -2.23490684     0.00000000

      Atomic Mass 
      ----------- 

      H                  1.007825
      S                 31.972070


 Effective nuclear repulsion energy (a.u.)      16.4575511934

            Nuclear Dipole moment (a.u.) 
            ----------------------------
        X                 Y               Z
 ---------------- ---------------- ----------------
     0.0000000000     0.0000000000     0.0000000000



                                Z-matrix (autoz)
                                -------- 

 Units are Angstrom for bonds and degrees for angles

      Type          Name      I     J     K     L     M      Value
      ----------- --------  ----- ----- ----- ----- ----- ----------
    1 Stretch                  1     2                       1.33767
    2 Stretch                  2     3                       1.42914
    3 Stretch                  3     4                       1.14947
    4 Bend                     1     2     3                91.15238
    5 Bend                     2     3     4               172.61737
    6 Torsion                  1     2     3     4           0.00000


            XYZ format geometry
            -------------------
     4
 geometry
 H                     1.26210000    -0.22009684     0.00000000
 S                     0.00000000     0.22315316     0.00000000
 H                    -0.50058000    -1.11544684     0.00000000
 H                    -0.76152000    -2.23490684     0.00000000

 ==============================================================================
                                internuclear distances
 ------------------------------------------------------------------------------
       center one      |      center two      | atomic units |  angstroms
 ------------------------------------------------------------------------------
    2 S                |   1 H                |     2.52783  |     1.33767
    3 H                |   2 S                |     2.70068  |     1.42914
 ------------------------------------------------------------------------------
                         number of included internuclear distances:          2
 ==============================================================================



 ==============================================================================
                                 internuclear angles
 ------------------------------------------------------------------------------
        center 1       |       center 2       |       center 3       |  degrees
 ------------------------------------------------------------------------------
    1 H                |   2 S                |   3 H                |    91.15
 ------------------------------------------------------------------------------
                            number of included internuclear angles:          1
 ==============================================================================





 Summary of "ao basis" -> "" (cartesian)
 ------------------------------------------------------------------------------
       Tag                 Description            Shells   Functions and Types
 ---------------- ------------------------------  ------  ---------------------
 *                     6-311++G(3df,3pd)              on all atoms 



                                 NWChem DFT Module
                                 -----------------


                      Basis "ao basis" -> "ao basis" (cartesian)
                      -----
  H (Hydrogen)
  ------------
            Exponent  Coefficients 
       -------------- ---------------------------------------------------------
  1 S  3.38650000E+01  0.025494
  1 S  5.09479000E+00  0.190373
  1 S  1.15879000E+00  0.852161

  2 S  3.25840000E-01  1.000000

  3 S  1.02741000E-01  1.000000

  4 S  3.60000000E-02  1.000000

  5 P  3.00000000E+00  1.000000

  6 P  7.50000000E-01  1.000000

  7 P  1.87500000E-01  1.000000

  8 D  1.00000000E+00  1.000000

  S (Sulphur)
  -----------
            Exponent  Coefficients 
       -------------- ---------------------------------------------------------
  1 S  9.34134000E+04  0.000743
  1 S  1.39617000E+04  0.005793
  1 S  3.16991000E+03  0.029954
  1 S  9.02456000E+02  0.119028
  1 S  2.97158000E+02  0.368432
  1 S  1.08702000E+02  0.577299

  2 S  1.08702000E+02  0.143186
  2 S  4.31553000E+01  0.624465
  2 S  1.81079000E+01  0.283366

  3 S  5.56009000E+00  1.000000

  4 S  2.13183000E+00  1.000000

  5 S  4.20403000E-01  1.000000

  6 S  1.36045000E-01  1.000000

  7 P  4.95040000E+02  0.008309
  7 P  1.17221000E+02  0.064024
  7 P  3.77749000E+01  0.277614
  7 P  1.40584000E+01  0.745076

  8 P  5.56574000E+00  0.613712
  8 P  2.26297000E+00  0.443818

  9 P  8.07994000E-01  1.000000

 10 P  2.77460000E-01  1.000000

 11 P  7.71410000E-02  1.000000

 12 S  4.05000000E-02  1.000000

 13 P  4.05000000E-02  1.000000

 14 D  2.60000000E+00  1.000000

 15 D  6.50000000E-01  1.000000

 16 D  1.62500000E-01  1.000000

 17 F  5.50000000E-01  1.000000



 Summary of "ao basis" -> "ao basis" (cartesian)
 ------------------------------------------------------------------------------
       Tag                 Description            Shells   Functions and Types
 ---------------- ------------------------------  ------  ---------------------
 H                     6-311++G(3df,3pd)             8       19   4s3p1d
 S                     6-311++G(3df,3pd)            17       53   7s6p3d1f




 Summary of "ao basis" -> "ao basis" (cartesian)
 ------------------------------------------------------------------------------
       Tag                 Description            Shells   Functions and Types
 ---------------- ------------------------------  ------  ---------------------
 H                     6-311++G(3df,3pd)             8       19   4s3p1d
 S                     6-311++G(3df,3pd)            17       53   7s6p3d1f


  Caching 1-el integrals 

            General Information
            -------------------
          SCF calculation type: DFT
          Wavefunction type:  spin polarized.
          No. of atoms     :     4
          No. of electrons :    19
           Alpha electrons :    10
            Beta electrons :     9
          Charge           :     0
          Spin multiplicity:     2
          Use of symmetry is: off; symmetry adaption is: off
          Maximum number of iterations: ***
          AO basis - number of functions:   110
                     number of shells:    41
          Convergence on energy requested: 1.00D-06
          Convergence on density requested: 1.00D-05
          Convergence on gradient requested: 5.00D-04

              XC Information
              --------------
                  TPSS metaGGA Exchange Functional  1.000          
             TPSS03 metaGGA Correlation Functional  1.000          

             Grid Information
             ----------------
          Grid used for XC integration:  medium    
          Radial quadrature: Mura-Knowles        
          Angular quadrature: Lebedev. 
          Tag              B.-S. Rad. Rad. Pts. Rad. Cut. Ang. Pts.
          ---              ---------- --------- --------- ---------
          H                   0.35       45          13.0       434
          S                   1.00       88          12.0       590
          Grid pruning is: on 
          Number of quadrature shells:   223
          Spatial weights used:  Erf1

          Convergence Information
          -----------------------
          Convergence aids based upon iterative change in 
          total energy or number of iterations. 
          Levelshifting, if invoked, occurs when the 
          HOMO/LUMO gap drops below (HL_TOL): 1.00D-02
          DIIS, if invoked, will attempt to extrapolate 
          using up to (NFOCK): 10 stored Fock matrices.

                    Damping( 0%)  Levelshifting(0.5)       DIIS
                  --------------- ------------------- ---------------
          dE  on:    start            ASAP                start   
          dE off:    2 iters        *** iters           *** iters 


      Screening Tolerance Information
      -------------------------------
          Density screening/tol_rho: 1.00D-10
          AO Gaussian exp screening on grid/accAOfunc:  14
          CD Gaussian exp screening on grid/accCDfunc:  20
          XC Gaussian exp screening on grid/accXCfunc:  20
          Schwarz screening/accCoul: 1.00D-08


      Superposition of Atomic Density Guess
      -------------------------------------

 Sum of atomic energies:        -398.97970550

      Non-variational initial energy
      ------------------------------

 Total energy =    -399.042313
 1-e energy   =    -583.289605
 2-e energy   =     167.789741
 HOMO         =      -0.207979
 LUMO         =       0.037684

   Time after variat. SCF:      0.7
   Time prior to 1st pass:      0.7

 Integral file          = ./TS3.aoints.0
 Record size in doubles =    65536    No. of integs per rec  =    43688
 Max. records in memory =        0    Max. records in file   = ********
 No. of bits per label  =        8    No. of bits per value  =       64


 #quartets = 3.443D+05 #integrals = 8.554D+06 #direct =  0.0% #cached =100.0%


 Grid_pts file          = ./TS3.gridpts.0
 Record size in doubles =  12289        No. of grid_pts per rec  =   3070
 Max. records in memory =     49        Max. recs in file   = 995323637


           Memory utilization after 1st SCF pass: 
           Heap Space remaining (MW):       12.50            12500852
          Stack Space remaining (MW):       13.11            13106156

   convergence    iter        energy       DeltaE   RMS-Dens  Diis-err    time
 ---------------- ----- ----------------- --------- --------- ---------  ------
 d= 0,ls=0.0,diis     1   -399.7565595741 -4.16D+02  3.22D-03  1.56D-01     7.3
                                                     2.35D-03  1.43D-01
 d= 0,ls=0.0,diis     2   -399.7715974451 -1.50D-02  2.11D-03  2.61D-02    11.7
                                                     1.91D-03  2.44D-02
 d= 0,ls=0.0,diis     3   -399.7729935451 -1.40D-03  1.04D-03  2.60D-02    16.3
                                                     9.63D-04  2.50D-02
 d= 0,ls=0.0,diis     4   -399.7887716317 -1.58D-02  1.57D-04  2.29D-04    20.9
                                                     1.50D-04  2.21D-04
 d= 0,ls=0.0,diis     5   -399.7889277483 -1.56D-04  4.92D-05  4.75D-05    25.6
                                                     4.71D-05  5.12D-05
  Resetting Diis
 d= 0,ls=0.0,diis     6   -399.7889473793 -1.96D-05  1.90D-05  1.97D-06    30.1
                                                     1.61D-05  1.53D-06
 d= 0,ls=0.0,diis     7   -399.7889432576  4.12D-06  1.57D-05  9.41D-07    34.0
                                                     1.54D-05  9.60D-07
 d= 0,ls=0.0,diis     8   -399.7889443490 -1.09D-06  9.14D-06  1.85D-06    38.4
                                                     8.44D-06  1.67D-06
 d= 0,ls=0.0,diis     9   -399.7889449867 -6.38D-07  8.01D-07  9.88D-09    42.9
                                                     8.77D-07  1.08D-08


         Total DFT energy =     -399.788944986731
      One electron energy =     -584.132527571431
           Coulomb energy =      194.467648191354
          Exchange energy =      -25.874701690729
       Correlation energy =       -0.706915109289
 Nuclear repulsion energy =       16.457551193363

 Numeric. integr. density =       19.000003122352

     Total iterative time =     42.3s



                    DFT Final Alpha Molecular Orbital Analysis
                    ------------------------------------------

 Vector    1  Occ=1.000000D+00  E=-8.841396D+01
              MO Center=  2.7D-06,  2.2D-01,  3.2D-13, r^2= 3.6D-03
   Bfn.  Coefficient  Atom+Function         Bfn.  Coefficient  Atom+Function  
  ----- ------------  ---------------      ----- ------------  ---------------
    21      0.653423  2 S  s                 20      0.411744  2 S  s          

 Vector    2  Occ=1.000000D+00  E=-7.768444D+00
              MO Center=  1.1D-03,  2.2D-01,  2.5D-11, r^2= 7.7D-02
   Bfn.  Coefficient  Atom+Function         Bfn.  Coefficient  Atom+Function  
  ----- ------------  ---------------      ----- ------------  ---------------
    23      0.586659  2 S  s                 22      0.514717  2 S  s          
    21     -0.320824  2 S  s          

 Vector    3  Occ=1.000000D+00  E=-5.731293D+00
              MO Center=  4.4D-04,  2.2D-01,  1.3D-11, r^2= 6.9D-02
   Bfn.  Coefficient  Atom+Function         Bfn.  Coefficient  Atom+Function  
  ----- ------------  ---------------      ----- ------------  ---------------
    30      0.542150  2 S  py                29      0.454671  2 S  px         
    27      0.288380  2 S  py                26      0.241751  2 S  px         

 Vector    4  Occ=1.000000D+00  E=-5.727132D+00
              MO Center= -1.2D-03,  2.2D-01, -1.6D-11, r^2= 6.9D-02
   Bfn.  Coefficient  Atom+Function         Bfn.  Coefficient  Atom+Function  
  ----- ------------  ---------------      ----- ------------  ---------------
    29      0.542300  2 S  px                30     -0.454700  2 S  py         
    26      0.288314  2 S  px                27     -0.241839  2 S  py         

 Vector    5  Occ=1.000000D+00  E=-5.718446D+00
              MO Center=  1.3D-04,  2.2D-01, -1.6D-11, r^2= 6.9D-02
   Bfn.  Coefficient  Atom+Function         Bfn.  Coefficient  Atom+Function  
  ----- ------------  ---------------      ----- ------------  ---------------
    31      0.707972  2 S  pz                28      0.376641  2 S  pz         

 Vector    6  Occ=1.000000D+00  E=-7.021624D-01
              MO Center=  1.4D-01, -7.3D-02, -1.0D-08, r^2= 1.1D+00
   Bfn.  Coefficient  Atom+Function         Bfn.  Coefficient  Atom+Function  
  ----- ------------  ---------------      ----- ------------  ---------------
    24      0.579878  2 S  s                 25      0.506247  2 S  s          
    23     -0.343556  2 S  s                 22     -0.200027  2 S  s          

 Vector    7  Occ=1.000000D+00  E=-4.490759D-01
              MO Center= -1.3D-01, -8.0D-01, -1.1D-09, r^2= 2.0D+00
   Bfn.  Coefficient  Atom+Function         Bfn.  Coefficient  Atom+Function  
  ----- ------------  ---------------      ----- ------------  ---------------
    93      0.241960  4 H  s                 74      0.230011  3 H  s          
    35     -0.183745  2 S  px                 2     -0.151072  1 H  s          

 Vector    8  Occ=1.000000D+00  E=-3.685681D-01
              MO Center=  5.2D-02, -9.2D-03, -7.3D-09, r^2= 2.0D+00
   Bfn.  Coefficient  Atom+Function         Bfn.  Coefficient  Atom+Function  
  ----- ------------  ---------------      ----- ------------  ---------------
    25      0.403318  2 S  s                 35     -0.274311  2 S  px         
    24      0.272455  2 S  s                  2     -0.239990  1 H  s          
    36      0.222781  2 S  py                32     -0.177212  2 S  px         
    23     -0.155574  2 S  s          

 Vector    9  Occ=1.000000D+00  E=-2.626567D-01
              MO Center= -3.9D-01, -1.1D+00, -6.8D-10, r^2= 3.0D+00
   Bfn.  Coefficient  Atom+Function         Bfn.  Coefficient  Atom+Function  
  ----- ------------  ---------------      ----- ------------  ---------------
    93      0.378678  4 H  s                 36      0.364799  2 S  py         
    94      0.330365  4 H  s                 33      0.213167  2 S  py         
    92      0.184795  4 H  s                 39      0.153624  2 S  py         

 Vector   10  Occ=1.000000D+00  E=-2.421646D-01
              MO Center=  2.5D-02,  1.7D-01,  2.4D-08, r^2= 1.5D+00
   Bfn.  Coefficient  Atom+Function         Bfn.  Coefficient  Atom+Function  
  ----- ------------  ---------------      ----- ------------  ---------------
    37      0.616994  2 S  pz                40      0.289725  2 S  pz         
    34      0.272274  2 S  pz                31     -0.196821  2 S  pz         

 Vector   11  Occ=0.000000D+00  E=-2.919010D-02
              MO Center=  5.9D-01, -3.6D-01, -5.3D-08, r^2= 7.6D+00
   Bfn.  Coefficient  Atom+Function         Bfn.  Coefficient  Atom+Function  
  ----- ------------  ---------------      ----- ------------  ---------------
     4      1.919680  1 H  s                 41     -1.216730  2 S  s          
    42     -0.728592  2 S  px                35     -0.364553  2 S  px         
    95      0.336556  4 H  s                 43      0.261147  2 S  py         
    75     -0.216595  3 H  s                 24     -0.169186  2 S  s          
    39     -0.161774  2 S  py                94     -0.155749  4 H  s          

 Vector   12  Occ=0.000000D+00  E= 1.387059D-03
              MO Center=  4.6D-01, -1.3D-02, -6.7D-08, r^2= 1.2D+01
   Bfn.  Coefficient  Atom+Function         Bfn.  Coefficient  Atom+Function  
  ----- ------------  ---------------      ----- ------------  ---------------
    76      4.669906  3 H  s                 41     -2.705949  2 S  s          
    95     -2.520146  4 H  s                 43      1.515065  2 S  py         
     4      0.669768  1 H  s                 42      0.566288  2 S  px         
    39     -0.459749  2 S  py                 3     -0.312732  1 H  s          
    94      0.282120  4 H  s                 60      0.264963  2 S  dyy        

 Vector   13  Occ=0.000000D+00  E= 2.366906D-02
              MO Center= -3.6D-01,  5.1D-02,  1.0D-07, r^2= 1.3D+01
   Bfn.  Coefficient  Atom+Function         Bfn.  Coefficient  Atom+Function  
  ----- ------------  ---------------      ----- ------------  ---------------
    76      5.446131  3 H  s                 95     -1.974037  4 H  s          
    41     -1.816142  2 S  s                 43      1.634023  2 S  py         
     4     -1.556843  1 H  s                 75     -0.857927  3 H  s          
    39     -0.748990  2 S  py                 3      0.477308  1 H  s          
    35     -0.206284  2 S  px                84     -0.178838  3 H  py         

 Vector   14  Occ=0.000000D+00  E= 2.901815D-02
              MO Center= -3.9D-01, -1.7D+00, -6.1D-08, r^2= 1.2D+01
   Bfn.  Coefficient  Atom+Function         Bfn.  Coefficient  Atom+Function  
  ----- ------------  ---------------      ----- ------------  ---------------
    95      2.250722  4 H  s                  3     -1.406645  1 H  s          
    25      1.062476  2 S  s                 76     -0.993950  3 H  s          
    94     -0.989432  4 H  s                 39     -0.836975  2 S  py         
    43      0.678441  2 S  py                41      0.641470  2 S  s          
    38      0.574978  2 S  px                84     -0.471720  3 H  py         

 Vector   15  Occ=0.000000D+00  E= 3.699899D-02
              MO Center= -1.4D-02,  1.3D-01,  7.6D-08, r^2= 1.2D+01
   Bfn.  Coefficient  Atom+Function         Bfn.  Coefficient  Atom+Function  
  ----- ------------  ---------------      ----- ------------  ---------------
    44      1.747153  2 S  pz                40     -1.088638  2 S  pz         
    34     -0.165063  2 S  pz         

 Vector   16  Occ=0.000000D+00  E= 6.571791D-02
              MO Center= -3.8D-01, -7.4D-01,  2.5D-08, r^2= 1.3D+01
   Bfn.  Coefficient  Atom+Function         Bfn.  Coefficient  Atom+Function  
  ----- ------------  ---------------      ----- ------------  ---------------
    76      5.457869  3 H  s                 95     -3.471319  4 H  s          
    41     -1.915216  2 S  s                  3     -1.216825  1 H  s          
    43     -1.100760  2 S  py                38      0.921987  2 S  px         
    39      0.768850  2 S  py                35      0.338421  2 S  px         
    25      0.309777  2 S  s                 94     -0.288982  4 H  s          

 Vector   17  Occ=0.000000D+00  E= 8.212762D-02
              MO Center=  5.5D-01, -4.0D-01, -5.9D-08, r^2= 1.2D+01
   Bfn.  Coefficient  Atom+Function         Bfn.  Coefficient  Atom+Function  
  ----- ------------  ---------------      ----- ------------  ---------------
     4      5.563942  1 H  s                 41     -5.576765  2 S  s          
    75      3.404427  3 H  s                 42     -3.384034  2 S  px         
    76     -2.279507  3 H  s                 39      1.565901  2 S  py         
    38      1.474929  2 S  px                95      1.337192  4 H  s          
    94     -1.224346  4 H  s                 25     -0.575817  2 S  s          

 Vector   18  Occ=0.000000D+00  E= 9.340952D-02
              MO Center= -1.8D-01, -5.4D-02,  3.6D-09, r^2= 1.2D+01
   Bfn.  Coefficient  Atom+Function         Bfn.  Coefficient  Atom+Function  
  ----- ------------  ---------------      ----- ------------  ---------------
    76     10.252061  3 H  s                  4     -5.255262  1 H  s          
    42      4.000711  2 S  px                41     -3.443708  2 S  s          
     3      2.614449  1 H  s                 95     -2.548996  4 H  s          
    38     -2.058167  2 S  px                94     -1.414347  4 H  s          
    43      1.189208  2 S  py                75      0.978987  3 H  s          

 Vector   19  Occ=0.000000D+00  E= 1.164571D-01
              MO Center= -7.2D-03, -3.6D-01, -1.4D-08, r^2= 1.3D+01
   Bfn.  Coefficient  Atom+Function         Bfn.  Coefficient  Atom+Function  
  ----- ------------  ---------------      ----- ------------  ---------------
    76     15.783679  3 H  s                 41    -11.649294  2 S  s          
    95     -6.010422  4 H  s                 43      3.995081  2 S  py         
    42      1.910956  2 S  px                75     -1.421177  3 H  s          
    39     -1.144171  2 S  py                38     -0.868595  2 S  px         
    94      0.777905  4 H  s                 25      0.760276  2 S  s          

 Vector   20  Occ=0.000000D+00  E= 1.415364D-01
              MO Center= -1.9D-01, -4.7D-01, -3.6D-09, r^2= 8.1D+00
   Bfn.  Coefficient  Atom+Function         Bfn.  Coefficient  Atom+Function  
  ----- ------------  ---------------      ----- ------------  ---------------
    76     15.780500  3 H  s                 41    -10.567807  2 S  s          
    95     -5.398335  4 H  s                 43      3.297585  2 S  py         
    42      2.347827  2 S  px                 3      2.108019  1 H  s          
     4     -1.616295  1 H  s                 38     -1.362791  2 S  px         
    60      0.535878  2 S  dyy               35     -0.397518  2 S  px         

 Vector   21  Occ=0.000000D+00  E= 1.485317D-01
              MO Center= -2.4D-01, -5.7D-01,  1.2D-08, r^2= 3.7D+00
   Bfn.  Coefficient  Atom+Function         Bfn.  Coefficient  Atom+Function  
  ----- ------------  ---------------      ----- ------------  ---------------
    61      0.901880  2 S  dyz              104     -0.454478  4 H  pz         
    59      0.384405  2 S  dxz               44      0.305991  2 S  pz         
    55      0.256800  2 S  dyz               40     -0.155990  2 S  pz         

 Vector   22  Occ=0.000000D+00  E= 1.818231D-01
              MO Center=  2.4D-01,  1.3D-01,  1.3D-08, r^2= 2.7D+00
   Bfn.  Coefficient  Atom+Function         Bfn.  Coefficient  Atom+Function  
  ----- ------------  ---------------      ----- ------------  ---------------
    59      1.005928  2 S  dxz               61     -0.440216  2 S  dyz        
    13      0.359063  1 H  pz                53      0.330909  2 S  dxz        
    37     -0.194906  2 S  pz         

 Vector   23  Occ=0.000000D+00  E= 2.557491D-01
              MO Center= -5.1D-01,  2.4D-01,  2.8D-08, r^2= 9.4D+00
   Bfn.  Coefficient  Atom+Function         Bfn.  Coefficient  Atom+Function  
  ----- ------------  ---------------      ----- ------------  ---------------
    39     -4.790586  2 S  py                25      4.548465  2 S  s          
    75     -4.414350  3 H  s                  3     -3.312139  1 H  s          
    41      3.039061  2 S  s                 76     -2.182221  3 H  s          
    84     -1.885133  3 H  py                95      1.686385  4 H  s          
    43      1.266396  2 S  py                38      1.207610  2 S  px         

 Vector   24  Occ=0.000000D+00  E= 2.625788D-01
              MO Center=  1.1D-01, -1.5D-01, -2.0D-08, r^2= 9.0D+00
   Bfn.  Coefficient  Atom+Function         Bfn.  Coefficient  Atom+Function  
  ----- ------------  ---------------      ----- ------------  ---------------
    41      2.152474  2 S  s                 42      1.933805  2 S  px         
     3     -1.897915  1 H  s                 38     -1.777783  2 S  px         
    94     -1.760734  4 H  s                 76     -1.714703  3 H  s          
    95      1.409467  4 H  s                 35      1.200955  2 S  px         
    84     -0.914059  3 H  py                25      0.900397  2 S  s          

 Vector   25  Occ=0.000000D+00  E= 2.790119D-01
              MO Center=  1.4D-03, -8.2D-01,  1.9D-08, r^2= 6.8D+00
   Bfn.  Coefficient  Atom+Function         Bfn.  Coefficient  Atom+Function  
  ----- ------------  ---------------      ----- ------------  ---------------
    41      2.741175  2 S  s                 43     -1.930805  2 S  py         
     3     -1.796774  1 H  s                 39      1.609851  2 S  py         
    94      1.468104  4 H  s                 76     -1.287277  3 H  s          
    95     -0.870725  4 H  s                 84      0.839127  3 H  py         
    35      0.659462  2 S  px                57      0.586978  2 S  dxx        

 Vector   26  Occ=0.000000D+00  E= 2.846724D-01
              MO Center= -1.4D-01, -2.5D-01,  3.0D-08, r^2= 7.6D+00
   Bfn.  Coefficient  Atom+Function         Bfn.  Coefficient  Atom+Function  
  ----- ------------  ---------------      ----- ------------  ---------------
    40      2.303938  2 S  pz                44     -1.557314  2 S  pz         
    37     -1.403294  2 S  pz               104      0.636318  4 H  pz         
    61      0.562481  2 S  dyz               70      0.335911  2 S  fyyz       
    65      0.333554  2 S  fxxz              72      0.330949  2 S  fzzz       
    59      0.312518  2 S  dxz               55      0.231842  2 S  dyz        

 Vector   27  Occ=0.000000D+00  E= 3.052216D-01
              MO Center= -2.6D-01, -9.0D-01,  1.8D-08, r^2= 1.0D+01
   Bfn.  Coefficient  Atom+Function         Bfn.  Coefficient  Atom+Function  
  ----- ------------  ---------------      ----- ------------  ---------------
    75      5.941927  3 H  s                 94     -4.933017  4 H  s          
     3     -3.982096  1 H  s                 38      3.903041  2 S  px         
    39      2.763249  2 S  py                42     -1.989440  2 S  px         
     4      1.904288  1 H  s                 25      1.751774  2 S  s          
    76     -1.711067  3 H  s                 43     -1.510607  2 S  py         

 Vector   28  Occ=0.000000D+00  E= 3.118982D-01
              MO Center= -3.3D-01, -7.9D-01,  6.9D-08, r^2= 5.9D+00
   Bfn.  Coefficient  Atom+Function         Bfn.  Coefficient  Atom+Function  
  ----- ------------  ---------------      ----- ------------  ---------------
    40      2.109453  2 S  pz                37     -1.478380  2 S  pz         
    44     -1.111408  2 S  pz                61     -0.741630  2 S  dyz        
   104     -0.687598  4 H  pz                72      0.357899  2 S  fzzz       
    65      0.343164  2 S  fxxz              70      0.332971  2 S  fyyz       
    59     -0.321870  2 S  dxz               55     -0.187883  2 S  dyz        

 Vector   29  Occ=0.000000D+00  E= 3.194417D-01
              MO Center= -5.1D-01, -7.5D-01, -1.2D-07, r^2= 7.1D+00
   Bfn.  Coefficient  Atom+Function         Bfn.  Coefficient  Atom+Function  
  ----- ------------  ---------------      ----- ------------  ---------------
    41      8.399348  2 S  s                 76     -7.800153  3 H  s          
     3     -4.989268  1 H  s                 75     -4.601221  3 H  s          
    38      2.854516  2 S  px                94      2.783692  4 H  s          
    25      2.375967  2 S  s                 43     -2.300483  2 S  py         
    39     -1.864021  2 S  py                42     -1.789879  2 S  px         

 Vector   30  Occ=0.000000D+00  E= 3.686992D-01
              MO Center=  2.7D-01, -5.1D-01, -1.3D-08, r^2= 8.8D+00
   Bfn.  Coefficient  Atom+Function         Bfn.  Coefficient  Atom+Function  
  ----- ------------  ---------------      ----- ------------  ---------------
    76      6.816487  3 H  s                 75     -6.551860  3 H  s          
     3      6.095394  1 H  s                 38     -5.854112  2 S  px         
     4     -5.586402  1 H  s                 42      4.328253  2 S  px         
    84     -2.644077  3 H  py                25      2.378099  2 S  s          
    36     -2.245957  2 S  py                39     -1.768941  2 S  py         

 Vector   31  Occ=0.000000D+00  E= 4.326719D-01
              MO Center=  1.8D-01, -6.3D-01,  1.3D-08, r^2= 6.4D+00
   Bfn.  Coefficient  Atom+Function         Bfn.  Coefficient  Atom+Function  
  ----- ------------  ---------------      ----- ------------  ---------------
    76      8.444612  3 H  s                 41     -6.057728  2 S  s          
    75     -5.297459  3 H  s                 95     -3.628965  4 H  s          
    94      3.434592  4 H  s                 43      1.811509  2 S  py         
    62      1.751423  2 S  dzz               60      1.411885  2 S  dyy        
    39     -1.288131  2 S  py                84      1.048631  3 H  py         

 Vector   32  Occ=0.000000D+00  E= 4.665912D-01
              MO Center=  6.0D-01, -2.2D-01,  1.1D-09, r^2= 5.1D+00
   Bfn.  Coefficient  Atom+Function         Bfn.  Coefficient  Atom+Function  
  ----- ------------  ---------------      ----- ------------  ---------------
    25      3.025434  2 S  s                 76      2.761357  3 H  s          
    41     -2.337807  2 S  s                 58      1.938948  2 S  dxy        
     3     -1.892819  1 H  s                 84     -1.855760  3 H  py         
    75     -1.688751  3 H  s                 12     -1.386456  1 H  py         
    36     -1.279234  2 S  py               103     -1.202440  4 H  py         

 Vector   33  Occ=0.000000D+00  E= 4.810247D-01
              MO Center=  8.9D-01, -1.1D-01, -2.3D-08, r^2= 3.6D+00
   Bfn.  Coefficient  Atom+Function         Bfn.  Coefficient  Atom+Function  
  ----- ------------  ---------------      ----- ------------  ---------------
    59     -2.033930  2 S  dxz               13      1.914084  1 H  pz         
    40     -1.063956  2 S  pz                61      0.721571  2 S  dyz        
    37     -0.559102  2 S  pz                44      0.252295  2 S  pz         
    53     -0.195197  2 S  dxz              104      0.177757  4 H  pz         
    65      0.161572  2 S  fxxz       

 Vector   34  Occ=0.000000D+00  E= 5.111305D-01
              MO Center= -1.3D-02, -3.1D-01,  1.9D-08, r^2= 6.4D+00
   Bfn.  Coefficient  Atom+Function         Bfn.  Coefficient  Atom+Function  
  ----- ------------  ---------------      ----- ------------  ---------------
    76      7.683535  3 H  s                 41     -6.565518  2 S  s          
    75     -3.839841  3 H  s                 39     -2.608808  2 S  py         
    43      2.537391  2 S  py                57      2.332588  2 S  dxx        
    95     -2.276249  4 H  s                 60      2.123953  2 S  dyy        
    84     -1.936556  3 H  py                62      1.352158  2 S  dzz        


                     DFT Final Beta Molecular Orbital Analysis
                     -----------------------------------------

 Vector    1  Occ=1.000000D+00  E=-8.841203D+01
              MO Center=  2.8D-06,  2.2D-01,  3.1D-13, r^2= 3.6D-03
   Bfn.  Coefficient  Atom+Function         Bfn.  Coefficient  Atom+Function  
  ----- ------------  ---------------      ----- ------------  ---------------
    21      0.653431  2 S  s                 20      0.411749  2 S  s          

 Vector    2  Occ=1.000000D+00  E=-7.766691D+00
              MO Center=  1.1D-03,  2.2D-01, -1.8D-11, r^2= 7.7D-02
   Bfn.  Coefficient  Atom+Function         Bfn.  Coefficient  Atom+Function  
  ----- ------------  ---------------      ----- ------------  ---------------
    23      0.588232  2 S  s                 22      0.514068  2 S  s          
    21     -0.320764  2 S  s          

 Vector    3  Occ=1.000000D+00  E=-5.727135D+00
              MO Center= -5.5D-04,  2.2D-01,  1.6D-11, r^2= 6.9D-02
   Bfn.  Coefficient  Atom+Function         Bfn.  Coefficient  Atom+Function  
  ----- ------------  ---------------      ----- ------------  ---------------
    29      0.692676  2 S  px                26      0.368081  2 S  px         

 Vector    4  Occ=1.000000D+00  E=-5.724204D+00
              MO Center= -1.8D-04,  2.2D-01, -1.5D-11, r^2= 6.9D-02
   Bfn.  Coefficient  Atom+Function         Bfn.  Coefficient  Atom+Function  
  ----- ------------  ---------------      ----- ------------  ---------------
    30      0.692829  2 S  py                27      0.368075  2 S  py         

 Vector    5  Occ=1.000000D+00  E=-5.717109D+00
              MO Center=  1.3D-04,  2.2D-01, -3.3D-12, r^2= 6.9D-02
   Bfn.  Coefficient  Atom+Function         Bfn.  Coefficient  Atom+Function  
  ----- ------------  ---------------      ----- ------------  ---------------
    31      0.708155  2 S  pz                28      0.376596  2 S  pz         

 Vector    6  Occ=1.000000D+00  E=-6.891185D-01
              MO Center=  1.6D-01, -7.3D-02, -1.1D-08, r^2= 1.1D+00
   Bfn.  Coefficient  Atom+Function         Bfn.  Coefficient  Atom+Function  
  ----- ------------  ---------------      ----- ------------  ---------------
    24      0.569635  2 S  s                 25      0.510287  2 S  s          
    23     -0.340920  2 S  s                 22     -0.197935  2 S  s          

 Vector    7  Occ=1.000000D+00  E=-4.265627D-01
              MO Center=  4.6D-02, -5.1D-01, -9.2D-10, r^2= 1.7D+00
   Bfn.  Coefficient  Atom+Function         Bfn.  Coefficient  Atom+Function  
  ----- ------------  ---------------      ----- ------------  ---------------
    74      0.278279  3 H  s                 35     -0.232588  2 S  px         
     2     -0.196425  1 H  s                 32     -0.172388  2 S  px         
    73      0.155855  3 H  s          

 Vector    8  Occ=1.000000D+00  E=-3.542791D-01
              MO Center= -2.5D-02,  1.1D-01, -7.6D-09, r^2= 1.8D+00
   Bfn.  Coefficient  Atom+Function         Bfn.  Coefficient  Atom+Function  
  ----- ------------  ---------------      ----- ------------  ---------------
    25      0.459365  2 S  s                 24      0.290607  2 S  s          
    36      0.279526  2 S  py                35     -0.229286  2 S  px         
     2     -0.207525  1 H  s                 23     -0.169266  2 S  s          
    33      0.166517  2 S  py                74     -0.159236  3 H  s          

 Vector    9  Occ=1.000000D+00  E=-2.379419D-01
              MO Center=  2.3D-02,  1.7D-01,  2.5D-08, r^2= 1.6D+00
   Bfn.  Coefficient  Atom+Function         Bfn.  Coefficient  Atom+Function  
  ----- ------------  ---------------      ----- ------------  ---------------
    37      0.618593  2 S  pz                40      0.294387  2 S  pz         
    34      0.270107  2 S  pz                31     -0.196128  2 S  pz         

 Vector   10  Occ=0.000000D+00  E=-1.583206D-01
              MO Center= -4.4D-01, -1.2D+00, -3.2D-09, r^2= 3.2D+00
   Bfn.  Coefficient  Atom+Function         Bfn.  Coefficient  Atom+Function  
  ----- ------------  ---------------      ----- ------------  ---------------
    36      0.365962  2 S  py                94      0.324625  4 H  s          
    93      0.263927  4 H  s                 76      0.245805  3 H  s          
    39      0.208164  2 S  py                33      0.181781  2 S  py         

 Vector   11  Occ=0.000000D+00  E=-2.393215D-02
              MO Center=  7.8D-01, -2.3D-01, -4.8D-08, r^2= 7.5D+00
   Bfn.  Coefficient  Atom+Function         Bfn.  Coefficient  Atom+Function  
  ----- ------------  ---------------      ----- ------------  ---------------
     4      2.096253  1 H  s                 41     -1.458546  2 S  s          
    42     -0.758239  2 S  px                35     -0.345730  2 S  px         
    43      0.323654  2 S  py                76      0.273234  3 H  s          
    75     -0.200219  3 H  s                 24     -0.181288  2 S  s          
    39     -0.179305  2 S  py         

 Vector   12  Occ=0.000000D+00  E= 1.447032D-02
              MO Center=  6.0D-01,  4.9D-01, -5.6D-08, r^2= 1.1D+01
   Bfn.  Coefficient  Atom+Function         Bfn.  Coefficient  Atom+Function  
  ----- ------------  ---------------      ----- ------------  ---------------
    76      3.189129  3 H  s                 41     -1.887048  2 S  s          
    95     -1.644542  4 H  s                 43      1.489094  2 S  py         
    39     -0.685708  2 S  py                 4      0.681752  1 H  s          
    42      0.627704  2 S  px                 3     -0.591067  1 H  s          
    75     -0.400198  3 H  s                 60      0.298692  2 S  dyy        

 Vector   13  Occ=0.000000D+00  E= 2.808306D-02
              MO Center= -4.7D-01,  3.6D-01,  1.0D-07, r^2= 1.3D+01
   Bfn.  Coefficient  Atom+Function         Bfn.  Coefficient  Atom+Function  
  ----- ------------  ---------------      ----- ------------  ---------------
    76      4.698201  3 H  s                 43      1.687876  2 S  py         
    95     -1.612593  4 H  s                  4     -1.382537  1 H  s          
    41     -1.304564  2 S  s                 75     -1.021988  3 H  s          
    39     -0.966576  2 S  py                25      0.257123  2 S  s          
    38      0.257943  2 S  px                84     -0.223377  3 H  py         

 Vector   14  Occ=0.000000D+00  E= 4.022246D-02
              MO Center=  1.1D-03,  1.7D-01,  3.7D-08, r^2= 1.2D+01
   Bfn.  Coefficient  Atom+Function         Bfn.  Coefficient  Atom+Function  
  ----- ------------  ---------------      ----- ------------  ---------------
    44      1.758377  2 S  pz                40     -1.090642  2 S  pz         
    34     -0.162277  2 S  pz         

 Vector   15  Occ=0.000000D+00  E= 4.950485D-02
              MO Center= -1.5D-01, -1.4D+00, -2.9D-08, r^2= 9.2D+00
   Bfn.  Coefficient  Atom+Function         Bfn.  Coefficient  Atom+Function  
  ----- ------------  ---------------      ----- ------------  ---------------
     3      2.013268  1 H  s                 25     -1.424702  2 S  s          
    95     -1.418204  4 H  s                 41     -1.034682  2 S  s          
    94      0.955548  4 H  s                 39      0.842787  2 S  py         
    38     -0.823995  2 S  px                36      0.655939  2 S  py         
    75      0.603172  3 H  s                 84      0.502322  3 H  py         

 Vector   16  Occ=0.000000D+00  E= 7.993587D-02
              MO Center= -5.6D-01, -1.4D+00,  9.0D-09, r^2= 1.5D+01
   Bfn.  Coefficient  Atom+Function         Bfn.  Coefficient  Atom+Function  
  ----- ------------  ---------------      ----- ------------  ---------------
    76      4.578192  3 H  s                 95     -3.788870  4 H  s          
    43     -1.379548  2 S  py                 3     -0.885345  1 H  s          
    41     -0.878690  2 S  s                 39      0.799190  2 S  py         
    38      0.767929  2 S  px                42     -0.337971  2 S  px         
    35      0.264572  2 S  px                84      0.198238  3 H  py         

 Vector   17  Occ=0.000000D+00  E= 8.831582D-02
              MO Center=  9.2D-01, -1.3D-01, -3.9D-08, r^2= 1.4D+01
   Bfn.  Coefficient  Atom+Function         Bfn.  Coefficient  Atom+Function  
  ----- ------------  ---------------      ----- ------------  ---------------
     4      7.222025  1 H  s                 41     -4.876714  2 S  s          
    42     -4.515336  2 S  px                76     -4.438228  3 H  s          
    75      2.637096  3 H  s                 38      2.212829  2 S  px         
    95      1.617346  4 H  s                  3     -1.297233  1 H  s          
    39      0.972880  2 S  py                94     -0.597829  4 H  s          

 Vector   18  Occ=0.000000D+00  E= 1.100839D-01
              MO Center= -7.6D-01, -4.9D-01,  5.5D-09, r^2= 9.4D+00
   Bfn.  Coefficient  Atom+Function         Bfn.  Coefficient  Atom+Function  
  ----- ------------  ---------------      ----- ------------  ---------------
    76     14.094378  3 H  s                 41     -9.063451  2 S  s          
    95     -3.797303  4 H  s                 42      2.961340  2 S  px         
     4     -2.589038  1 H  s                 43      2.455651  2 S  py         
     3      2.081751  1 H  s                 94     -1.952580  4 H  s          
    75      1.802870  3 H  s                 38     -1.395596  2 S  px         

 Vector   19  Occ=0.000000D+00  E= 1.358620D-01
              MO Center= -7.5D-02, -7.9D-01, -1.5D-08, r^2= 1.4D+01
   Bfn.  Coefficient  Atom+Function         Bfn.  Coefficient  Atom+Function  
  ----- ------------  ---------------      ----- ------------  ---------------
    76     15.190483  3 H  s                 41    -10.487714  2 S  s          
    95     -6.439194  4 H  s                 43      3.932070  2 S  py         
    75     -2.730282  3 H  s                 94      1.845261  4 H  s          
    42      1.828707  2 S  px                39     -1.750567  2 S  py         
    38     -0.966501  2 S  px                25      0.911702  2 S  s          

 Vector   20  Occ=0.000000D+00  E= 1.537501D-01
              MO Center= -1.6D-01, -4.7D-01,  4.5D-09, r^2= 6.9D+00
   Bfn.  Coefficient  Atom+Function         Bfn.  Coefficient  Atom+Function  
  ----- ------------  ---------------      ----- ------------  ---------------
    76     13.619796  3 H  s                 41     -8.904861  2 S  s          
    95     -4.548627  4 H  s                 43      2.655460  2 S  py         
    42      2.050929  2 S  px                 3      1.935324  1 H  s          
     4     -1.633465  1 H  s                 38     -1.131181  2 S  px         
    39      0.493422  2 S  py                60      0.463394  2 S  dyy        

 Vector   21  Occ=0.000000D+00  E= 1.657309D-01
              MO Center= -1.9D-01, -4.2D-01,  4.2D-09, r^2= 3.4D+00
   Bfn.  Coefficient  Atom+Function         Bfn.  Coefficient  Atom+Function  
  ----- ------------  ---------------      ----- ------------  ---------------
    61      0.931054  2 S  dyz               59      0.454046  2 S  dxz        
   104     -0.346091  4 H  pz                55      0.254360  2 S  dyz        
    44      0.234250  2 S  pz                85     -0.196521  3 H  pz         

 Vector   22  Occ=0.000000D+00  E= 1.833235D-01
              MO Center=  2.4D-01,  1.3D-01,  1.2D-08, r^2= 2.7D+00
   Bfn.  Coefficient  Atom+Function         Bfn.  Coefficient  Atom+Function  
  ----- ------------  ---------------      ----- ------------  ---------------
    59      0.981154  2 S  dxz               61     -0.493865  2 S  dyz        
    13      0.359793  1 H  pz                53      0.319995  2 S  dxz        
    37     -0.208708  2 S  pz         

 Vector   23  Occ=0.000000D+00  E= 2.672502D-01
              MO Center= -6.0D-01,  6.5D-01,  1.3D-08, r^2= 8.5D+00
   Bfn.  Coefficient  Atom+Function         Bfn.  Coefficient  Atom+Function  
  ----- ------------  ---------------      ----- ------------  ---------------
    75      3.859718  3 H  s                 39      3.657252  2 S  py         
    25     -2.933946  2 S  s                 38     -2.237536  2 S  px         
    42      1.850314  2 S  px                43     -1.316626  2 S  py         
    76      1.239401  3 H  s                  3      1.104223  1 H  s          
    35      1.044517  2 S  px                41     -0.964677  2 S  s          

 Vector   24  Occ=0.000000D+00  E= 2.692528D-01
              MO Center=  3.6D-01, -5.5D-02,  3.7D-08, r^2= 8.6D+00
   Bfn.  Coefficient  Atom+Function         Bfn.  Coefficient  Atom+Function  
  ----- ------------  ---------------      ----- ------------  ---------------
    41      5.508126  2 S  s                  3     -4.483696  1 H  s          
    76     -4.429680  3 H  s                 25      3.948390  2 S  s          
    39     -3.718370  2 S  py                75     -3.387792  3 H  s          
    95      2.292348  4 H  s                 84     -1.692898  3 H  py         
    94     -1.025630  4 H  s                 36     -0.994386  2 S  py         

 Vector   25  Occ=0.000000D+00  E= 2.957367D-01
              MO Center= -6.8D-03,  2.5D-01,  1.8D-07, r^2= 8.2D+00
   Bfn.  Coefficient  Atom+Function         Bfn.  Coefficient  Atom+Function  
  ----- ------------  ---------------      ----- ------------  ---------------
    40      2.995395  2 S  pz                37     -1.927138  2 S  pz         
    44     -1.883898  2 S  pz                70      0.458883  2 S  fyyz       
    72      0.456257  2 S  fzzz              65      0.453103  2 S  fxxz       
   104      0.272802  4 H  pz                61      0.173476  2 S  dyz        

 Vector   26  Occ=0.000000D+00  E= 2.997150D-01
              MO Center=  4.9D-02, -3.5D-01, -2.0D-07, r^2= 7.7D+00
   Bfn.  Coefficient  Atom+Function         Bfn.  Coefficient  Atom+Function  
  ----- ------------  ---------------      ----- ------------  ---------------
    41      4.105844  2 S  s                  3     -3.719807  1 H  s          
    76     -3.454817  3 H  s                 38      3.018226  2 S  px         
    43     -2.611940  2 S  py                42     -1.790749  2 S  px         
    39      1.584358  2 S  py                94      1.220302  4 H  s          
     4      0.964037  1 H  s                 84      0.814391  3 H  py         

 Vector   27  Occ=0.000000D+00  E= 3.331913D-01
              MO Center= -5.4D-02, -7.6D-01,  1.7D-08, r^2= 7.9D+00
   Bfn.  Coefficient  Atom+Function         Bfn.  Coefficient  Atom+Function  
  ----- ------------  ---------------      ----- ------------  ---------------
     3      6.033605  1 H  s                 38     -4.877430  2 S  px         
    76      4.803955  3 H  s                 75     -4.106836  3 H  s          
     4     -3.000724  1 H  s                 42      2.792762  2 S  px         
    94      2.753261  4 H  s                 25     -1.980912  2 S  s          
    95     -1.872894  4 H  s                 43      1.637284  2 S  py         

 Vector   28  Occ=0.000000D+00  E= 3.445803D-01
              MO Center= -5.0D-01, -1.4D+00, -7.8D-09, r^2= 4.1D+00
   Bfn.  Coefficient  Atom+Function         Bfn.  Coefficient  Atom+Function  
  ----- ------------  ---------------      ----- ------------  ---------------
    40      0.916720  2 S  pz                61     -0.895712  2 S  dyz        
   104     -0.897553  4 H  pz                37     -0.679437  2 S  pz         
    59     -0.483524  2 S  dxz               44     -0.342515  2 S  pz         
    55     -0.242195  2 S  dyz               72      0.170309  2 S  fzzz       
    65      0.157830  2 S  fxxz              85     -0.155160  3 H  pz         

 Vector   29  Occ=0.000000D+00  E= 3.534146D-01
              MO Center= -4.5D-01, -1.2D+00, -3.8D-08, r^2= 7.2D+00
   Bfn.  Coefficient  Atom+Function         Bfn.  Coefficient  Atom+Function  
  ----- ------------  ---------------      ----- ------------  ---------------
    75     -7.196327  3 H  s                 41      7.129628  2 S  s          
    94      4.146317  4 H  s                 76     -3.853645  3 H  s          
    39     -2.455918  2 S  py                 4     -1.823002  1 H  s          
    38     -1.236766  2 S  px                43     -1.113937  2 S  py         
    25      1.003028  2 S  s                103      0.868953  4 H  py         

 Vector   30  Occ=0.000000D+00  E= 3.846692D-01
              MO Center= -1.5D-01, -8.3D-01, -4.3D-10, r^2= 8.2D+00
   Bfn.  Coefficient  Atom+Function         Bfn.  Coefficient  Atom+Function  
  ----- ------------  ---------------      ----- ------------  ---------------
    76      8.515746  3 H  s                 75     -5.046484  3 H  s          
     3      4.921160  1 H  s                 38     -4.900309  2 S  px         
     4     -4.659309  1 H  s                 42      3.897956  2 S  px         
    84     -2.941870  3 H  py                25      2.778899  2 S  s          
    36     -2.624565  2 S  py                94     -2.120713  4 H  s          

 Vector   31  Occ=0.000000D+00  E= 4.493862D-01
              MO Center=  1.6D-01, -9.0D-01,  1.5D-08, r^2= 7.2D+00
   Bfn.  Coefficient  Atom+Function         Bfn.  Coefficient  Atom+Function  
  ----- ------------  ---------------      ----- ------------  ---------------
    76      7.284455  3 H  s                 41     -5.787209  2 S  s          
    75     -5.242962  3 H  s                 94      4.471857  4 H  s          
    95     -3.523041  4 H  s                 62      1.942983  2 S  dzz        
    84      1.845660  3 H  py                43      1.757490  2 S  py         
    60      1.597204  2 S  dyy                3     -1.491434  1 H  s          

 Vector   32  Occ=0.000000D+00  E= 4.760057D-01
              MO Center=  6.6D-01, -1.9D-01, -6.7D-09, r^2= 4.8D+00
   Bfn.  Coefficient  Atom+Function         Bfn.  Coefficient  Atom+Function  
  ----- ------------  ---------------      ----- ------------  ---------------
    25      3.133340  2 S  s                 76      2.326992  3 H  s          
    58      2.041669  2 S  dxy               75     -2.035169  3 H  s          
     3     -1.679938  1 H  s                 84     -1.687740  3 H  py         
    41     -1.590129  2 S  s                 12     -1.514368  1 H  py         
    36     -1.244067  2 S  py               103     -0.967856  4 H  py         

 Vector   33  Occ=0.000000D+00  E= 4.820692D-01
              MO Center=  8.9D-01, -1.1D-01, -1.5D-08, r^2= 3.6D+00
   Bfn.  Coefficient  Atom+Function         Bfn.  Coefficient  Atom+Function  
  ----- ------------  ---------------      ----- ------------  ---------------
    59     -2.017930  2 S  dxz               13      1.915721  1 H  pz         
    40     -1.090067  2 S  pz                61      0.777493  2 S  dyz        
    37     -0.573211  2 S  pz                44      0.257978  2 S  pz         
    53     -0.191233  2 S  dxz              104      0.190528  4 H  pz         
    65      0.164219  2 S  fxxz       

 Vector   34  Occ=0.000000D+00  E= 5.214704D-01
              MO Center= -8.2D-03, -3.5D-01,  2.0D-08, r^2= 6.4D+00
   Bfn.  Coefficient  Atom+Function         Bfn.  Coefficient  Atom+Function  
  ----- ------------  ---------------      ----- ------------  ---------------
    76      8.095812  3 H  s                 41     -6.517466  2 S  s          
    75     -5.136607  3 H  s                 95     -2.599048  4 H  s          
    39     -2.523925  2 S  py                43      2.498034  2 S  py         
    57      2.459264  2 S  dxx               60      2.029273  2 S  dyy        
    84     -1.614651  3 H  py                 3      1.516494  1 H  s          


   alpha - beta orbital overlaps 
   ----------------------------- 


   alpha      1      2      3      4      5      6      7      8      9     10
    beta      1      2      3      4      5      6      7      8     10      9
 overlap   1.000  1.000  0.787  0.787  1.000  1.000  0.968  0.966  0.961  1.000


   alpha     11     12     13     14     15     16     17     18     19     20
    beta     11     12     13     15     14     16     17     18     19     20
 overlap   0.993  0.967  0.990  0.916  0.999  0.944  0.902  0.867  0.924  0.985


   alpha     21     22     23     24     25     26     27     28     29     30
    beta     21     22     24     24     26     25     27     28     29     30
 overlap   0.994  0.999  0.696  0.682  0.861  0.897  0.763  0.893  0.815  0.918


   alpha     31     32     33     34     35     36     37     38     39     40
    beta     31     32     33     34     35     36     37     38     39     40
 overlap   0.966  0.990  0.999  0.983  0.979  0.999  0.997  0.917  0.919  0.985


   alpha     41     42     43     44     45     46     47     48     49     50
    beta     41     42     43     44     45     46     47     48     49     50
 overlap   0.943  0.976  0.943  0.978  0.995  1.000  1.000  0.995  0.996  0.996


   alpha     51     52     53     54     55     56     57     58     59     60
    beta     52     51     54     53     55     56     57     58     59     60
 overlap   0.990  0.990  0.834  0.956  0.854  0.837  0.905  0.987  0.985  0.985


   alpha     61     62     63     64     65     66     67     68     69     70
    beta     61     62     63     64     65     66     67     68     69     70
 overlap   0.982  0.983  0.989  0.984  0.996  0.976  0.971  0.999  0.995  0.999


   alpha     71     72     73     74     75     76     77     78     79     80
    beta     71     72     74     73     75     76     77     78     79     80
 overlap   0.998  0.853  0.909  0.992  0.853  0.914  0.997  0.997  0.996  1.000


   alpha     81     82     83     84     85     86     87     88     89     90
    beta     81     82     83     84     85     86     87     88     89     90
 overlap   1.000  0.993  0.964  0.998  0.949  0.967  0.965  0.965  1.000  0.994


   alpha     91     92     93     94     95     96     97     98     99    100
    beta     91     92     93     94     95     98    101     96     97    100
 overlap   0.998  0.999  0.997  0.992  0.993  0.736  0.609  0.948  0.826  0.787


   alpha    101    102    103    104    105    106    107    108    109    110
    beta    101    102    103    104    105    106    107    108    109    110
 overlap   0.725  0.833  0.742  0.863  0.948  1.000  0.960  0.960  1.000  1.000


     --------------------------
     Expectation value of S2:  
     --------------------------
      <S2> =      0.7593 (Exact =     0.7500)


 center of mass
 --------------
 x =  -0.00000000 y =   0.19095569 z =   0.00000000

 moments of inertia (a.u.)
 ------------------
          27.038160669308          -7.135077821037           0.000000000000
          -7.135077821037           8.721797775943           0.000000000000
           0.000000000000           0.000000000000          35.759958445251

     Multipole analysis of the density
     ---------------------------------

     L   x y z        total         alpha         beta         nuclear
     -   - - -        -----         -----         ----         -------
     0   0 0 0     -0.000000    -10.000000     -9.000000     19.000000

     1   1 0 0      0.183409      0.563512     -0.380103      0.000000
     1   0 1 0     -0.283631      1.250302     -1.533933      0.000000
     1   0 0 1     -0.000000     -0.000000     -0.000000      0.000000

     2   2 0 0    -10.379766    -10.754126     -8.279719      8.654080
     2   1 1 0      0.181154     -5.886885     -1.011641      7.079679
     2   1 0 1     -0.000000     -0.000000     -0.000000      0.000000
     2   0 2 0    -11.300425    -25.868992    -10.729674     25.298242
     2   0 1 1     -0.000000     -0.000000     -0.000000      0.000000
     2   0 0 2    -13.339989     -7.084280     -6.255709      0.000000


------------------------------------------------------------
EAF file 0: "./TS3.aoints.0" size=102760448 bytes
------------------------------------------------------------
               write      read    awrite     aread      wait
               -----      ----    ------     -----      ----
     calls:      196         8         0      1560      1560
   data(b): 1.03e+08  4.19e+06  0.00e+00  8.18e+08
   time(s): 0.00e+00  0.00e+00  0.00e+00  0.00e+00  0.00e+00
rate(mb/s): 0.00e+00  0.00e+00
------------------------------------------------------------


 Parallel integral file used     196 records with       0 large values


 Task  times  cpu:       43.1s     wall:       44.4s


                                NWChem Input Module
                                -------------------


 Summary of allocated global arrays
-----------------------------------
  No active global arrays



                         GA Statistics for process    0
                         ------------------------------

       create   destroy   get      put      acc     scatter   gather  read&inc
calls:  291      291     4.00e+04 9197     2.14e+04    0        0      774     
number of processes/call 1.00e+00 1.00e+00 1.00e+00 0.00e+00 0.00e+00
bytes total:             2.70e+08 2.86e+07 1.55e+08 0.00e+00 0.00e+00 6.19e+03
bytes remote:            0.00e+00 0.00e+00 0.00e+00 0.00e+00 0.00e+00 0.00e+00
Max memory consumed for GA by this process: 6292000 bytes

MA_summarize_allocated_blocks: starting scan ...
MA_summarize_allocated_blocks: scan completed: 0 heap blocks, 0 stack blocks
MA usage statistics:

	allocation statistics:
					      heap	     stack
					      ----	     -----
	current number of blocks	         0	         0
	maximum number of blocks	        22	        51
	current total bytes		         0	         0
	maximum total bytes		   4850032	  24140520
	maximum total K-bytes		      4851	     24141
	maximum total M-bytes		         5	        25


                                     CITATION
                                     --------
                Please cite the following reference when publishing
                           results obtained with NWChem:

                 M. Valiev, E.J. Bylaska, N. Govind, K. Kowalski,
              T.P. Straatsma, H.J.J. van Dam, D. Wang, J. Nieplocha,
                        E. Apra, T.L. Windus, W.A. de Jong
                 "NWChem: a comprehensive and scalable open-source
                  solution for large scale molecular simulations"
                      Comput. Phys. Commun. 181, 1477 (2010)
                           doi:10.1016/j.cpc.2010.04.018

                                      AUTHORS
                                      -------
          E. Apra, E. J. Bylaska, W. A. de Jong, N. Govind, K. Kowalski,
       T. P. Straatsma, M. Valiev, H. J. J. van Dam, D. Wang, T. L. Windus,
        J. Hammond, J. Autschbach, K. Bhaskaran-Nair, J. Brabec, K. Lopata,
       S. A. Fischer, S. Krishnamoorthy, W. Ma, M. Klemm, O. Villa, Y. Chen,
    V. Anisimov, F. Aquino, S. Hirata, M. T. Hackler, T. Risthaus, M. Malagoli,
       A. Marenich, A. Otero-de-la-Roza, J. Mullin, P. Nichols, R. Peverati,
     J. Pittner, Y. Zhao, P.-D. Fan, A. Fonari, M. Williamson, R. J. Harrison,
       J. R. Rehr, M. Dupuis, D. Silverstein, D. M. A. Smith, J. Nieplocha,
        V. Tipparaju, M. Krishnan, B. E. Van Kuiken, A. Vazquez-Mayagoitia,
        L. Jensen, M. Swart, Q. Wu, T. Van Voorhis, A. A. Auer, M. Nooijen,
      L. D. Crosby, E. Brown, G. Cisneros, G. I. Fann, H. Fruchtl, J. Garza,
        K. Hirao, R. A. Kendall, J. A. Nichols, K. Tsemekhman, K. Wolinski,
     J. Anchell, D. E. Bernholdt, P. Borowski, T. Clark, D. Clerc, H. Dachsel,
   M. J. O. Deegan, K. Dyall, D. Elwood, E. Glendening, M. Gutowski, A. C. Hess,
         J. Jaffe, B. G. Johnson, J. Ju, R. Kobayashi, R. Kutteh, Z. Lin,
   R. Littlefield, X. Long, B. Meng, T. Nakajima, S. Niu, L. Pollack, M. Rosing,
   K. Glaesemann, G. Sandrone, M. Stave, H. Taylor, G. Thomas, J. H. van Lenthe,
                               A. T. Wong, Z. Zhang.

 Total times  cpu:       43.1s     wall:       44.6s
