  NWChem w/ OpenMP: maximum threads =  1
                                         
                                         
 
 
              Northwest Computational Chemistry Package (NWChem) 6.8
              ------------------------------------------------------
 
 
                    Environmental Molecular Sciences Laboratory
                       Pacific Northwest National Laboratory
                                Richland, WA 99352
 
                              Copyright (c) 1994-2018
                       Pacific Northwest National Laboratory
                            Battelle Memorial Institute
 
             NWChem is an open-source computational chemistry package
                        distributed under the terms of the
                      Educational Community License (ECL) 2.0
             A copy of the license is included with this distribution
                              in the LICENSE.TXT file
 
                                  ACKNOWLEDGMENT
                                  --------------

            This software and its documentation were developed at the
            EMSL at Pacific Northwest National Laboratory, a multiprogram
            national laboratory, operated for the U.S. Department of Energy
            by Battelle under Contract Number DE-AC05-76RL01830. Support
            for this work was provided by the Department of Energy Office
            of Biological and Environmental Research, Office of Basic
            Energy Sciences, and the Office of Advanced Scientific Computing.


           Job information
           ---------------

    hostname        = r8n4.niserhpc.org
    program         = /home/rabeet/nwchem-6.8/bin/LINUX64/nwchem
    date            = Sun Oct 27 08:43:27 2019

    compiled        = Fri_Jun_28_18:24:12_2019
    source          = /home/rabeet/nwchem-6.8
    nwchem branch   = Development
    nwchem revision = N/A
    ga revision     = 5.6.5
    use scalapack   = T
    input           = nwchem.nw
    prefix          = C.
    data base       = ./C.db
    status          = startup
    nproc           =       16
    time left       =     -1s



           Memory information
           ------------------

    heap     =   13107198 doubles =    100.0 Mbytes
    stack    =   13107195 doubles =    100.0 Mbytes
    global   =   26214400 doubles =    200.0 Mbytes (distinct from heap & stack)
    total    =   52428793 doubles =    400.0 Mbytes
    verify   = yes
    hardfail = no 


           Directory information
           ---------------------
 
  0 permanent = .
  0 scratch   = .
 
 
 
 
                                NWChem Input Module
                                -------------------
 
 

 Scaling coordinates for geometry "geometry" by  1.889725989
 (inverse scale =  0.529177249)

 
 
                             Geometry "geometry" -> ""
                             -------------------------
 
 Output coordinates in angstroms (scale by  1.889725989 to convert to a.u.)
 
  No.       Tag          Charge          X              Y              Z
 ---- ---------------- ---------- -------------- -------------- --------------
    1 C                    6.0000     0.00000000     0.00000000     0.00000000
 
      Atomic Mass 
      ----------- 
 
      C                 12.000000
 

 Effective nuclear repulsion energy (a.u.)       0.0000000000

            Nuclear Dipole moment (a.u.) 
            ----------------------------
        X                 Y               Z
 ---------------- ---------------- ----------------
     0.0000000000     0.0000000000     0.0000000000
 
 
            XYZ format geometry
            -------------------
     1
 geometry
 C                     0.00000000     0.00000000     0.00000000
 


 Summary of "ao basis" -> "" (cartesian)
 ------------------------------------------------------------------------------
       Tag                 Description            Shells   Functions and Types
 ---------------- ------------------------------  ------  ---------------------
 *                     6-311++G(3df,3pd)              on all atoms 


 
                                 NWChem DFT Module
                                 -----------------
 
 
                      Basis "ao basis" -> "ao basis" (cartesian)
                      -----
  C (Carbon)
  ----------
            Exponent  Coefficients 
       -------------- ---------------------------------------------------------
  1 S  4.56324000E+03  0.001967
  1 S  6.82024000E+02  0.015231
  1 S  1.54973000E+02  0.076127
  1 S  4.44553000E+01  0.260801
  1 S  1.30290000E+01  0.616462
  1 S  1.82773000E+00  0.221006
 
  2 S  2.09642000E+01  0.114660
  2 S  4.80331000E+00  0.919999
  2 S  1.45933000E+00 -0.003031
 
  3 P  2.09642000E+01  0.040249
  3 P  4.80331000E+00  0.237594
  3 P  1.45933000E+00  0.815854
 
  4 S  4.83456000E-01  1.000000
 
  5 P  4.83456000E-01  1.000000
 
  6 S  1.45585000E-01  1.000000
 
  7 P  1.45585000E-01  1.000000
 
  8 S  4.38000000E-02  1.000000
 
  9 P  4.38000000E-02  1.000000
 
 10 D  2.50400000E+00  1.000000
 
 11 D  6.26000000E-01  1.000000
 
 12 D  1.56500000E-01  1.000000
 
 13 F  8.00000000E-01  1.000000
 


 Summary of "ao basis" -> "ao basis" (cartesian)
 ------------------------------------------------------------------------------
       Tag                 Description            Shells   Functions and Types
 ---------------- ------------------------------  ------  ---------------------
 C                     6-311++G(3df,3pd)            13       45   5s4p3d1f




 Summary of "ao basis" -> "ao basis" (cartesian)
 ------------------------------------------------------------------------------
       Tag                 Description            Shells   Functions and Types
 ---------------- ------------------------------  ------  ---------------------
 C                     6-311++G(3df,3pd)            13       45   5s4p3d1f


  Caching 1-el integrals 
 
            General Information
            -------------------
          SCF calculation type: DFT
          Wavefunction type:  spin polarized.
          No. of atoms     :     1
          No. of electrons :     6
           Alpha electrons :     4
            Beta electrons :     2
          Charge           :     0
          Spin multiplicity:     3
          Use of symmetry is: off; symmetry adaption is: off
          Maximum number of iterations: ***
          AO basis - number of functions:    45
                     number of shells:    13
          Convergence on energy requested:  1.00D-06
          Convergence on density requested:  1.00D-05
          Convergence on gradient requested:  5.00D-04
 
              XC Information
              --------------
                  TPSS metaGGA Exchange Functional  1.000          
             TPSS03 metaGGA Correlation Functional  1.000          
 
             Grid Information
             ----------------
          Grid used for XC integration:  medium    
          Radial quadrature: Mura-Knowles        
          Angular quadrature: Lebedev. 
          Tag              B.-S. Rad. Rad. Pts. Rad. Cut. Ang. Pts.
          ---              ---------- --------- --------- ---------
          C                   0.70       49           8.0       434
          Grid pruning is: on 
          Number of quadrature shells:    49
          Spatial weights used:  Erf1
 
          Convergence Information
          -----------------------
          Convergence aids based upon iterative change in 
          total energy or number of iterations. 
          Levelshifting, if invoked, occurs when the 
          HOMO/LUMO gap drops below (HL_TOL):  1.00D-02
          DIIS, if invoked, will attempt to extrapolate 
          using up to (NFOCK): 10 stored Fock matrices.

                    Damping( 0%)  Levelshifting(0.5)       DIIS
                  --------------- ------------------- ---------------
          dE  on:    start            ASAP                start   
          dE off:    2 iters        *** iters           *** iters 

 
      Screening Tolerance Information
      -------------------------------
          Density screening/tol_rho:  1.00D-10
          AO Gaussian exp screening on grid/accAOfunc:  14
          CD Gaussian exp screening on grid/accCDfunc:  20
          XC Gaussian exp screening on grid/accXCfunc:  20
          Schwarz screening/accCoul:  1.00D-08

 
      Superposition of Atomic Density Guess
      -------------------------------------
 
 Sum of atomic energies:         -37.66911787
 
      Non-variational initial energy
      ------------------------------

 Total energy =     -37.313499
 1-e energy   =     -50.414240
 2-e energy   =      13.100741
 HOMO         =      -0.080018
 LUMO         =      -0.080018
 
   Time after variat. SCF:      1.4
   Time prior to 1st pass:      1.4

 #quartets = 4.186D+03 #integrals = 9.141D+04 #direct =  0.0% #cached =100.0%


 Integral file          = ./C.aoints.00
 Record size in doubles =    65536    No. of integs per rec  =    43688
 Max. records in memory =        3    Max. records in file   =  8903558
 No. of bits per label  =        8    No. of bits per value  =       64


File balance: exchanges=     0  moved=     0  time=   0.0


 Grid_pts file          = ./C.gridpts.00
 Record size in doubles =  12289        No. of grid_pts per rec  =   3070
 Max. records in memory =      2        Max. recs in file   =   3232797


           Memory utilization after 1st SCF pass: 
           Heap Space remaining (MW):       12.88            12883806
          Stack Space remaining (MW):       13.11            13106716

   convergence    iter        energy       DeltaE   RMS-Dens  Diis-err    time
 ---------------- ----- ----------------- --------- --------- ---------  ------
 d= 0,ls=0.0,diis     1    -37.8099914977 -3.78D+01  8.78D-03  9.68D-02     3.0
                                                     2.71D-03  1.87D-02
 d= 0,ls=0.0,diis     2    -37.8465240151 -3.65D-02  3.38D-03  3.73D-02     3.1
                                                     2.77D-03  1.80D-02
 d= 0,ls=0.0,diis     3    -37.8633680210 -1.68D-02  2.82D-04  6.81D-05     3.1
                                                     6.23D-04  2.14D-04
 d= 0,ls=0.0,diis     4    -37.8634364445 -6.84D-05  5.93D-05  8.28D-06     3.2
                                                     4.87D-05  1.94D-06
 d= 0,ls=0.0,diis     5    -37.8634404421 -4.00D-06  4.74D-06  2.87D-08     3.3
                                                     7.19D-06  3.83D-08
 d= 0,ls=0.0,diis     6    -37.8634404619 -1.99D-08  2.61D-07  5.08D-11     3.4
                                                     1.46D-07  6.44D-11


         Total DFT energy =      -37.863440461914
      One electron energy =      -50.459580149365
           Coulomb energy =       17.835061506403
          Exchange energy =       -5.091512027349
       Correlation energy =       -0.147409791602
 Nuclear repulsion energy =        0.000000000000

 Numeric. integr. density =        5.999999987821

     Total iterative time =      2.0s


 
                    DFT Final Alpha Molecular Orbital Analysis
                    ------------------------------------------
 
 Vector    1  Occ=1.000000D+00  E=-1.012432D+01
              MO Center=  5.0D-18, -9.4D-18, -7.7D-18, r^2= 2.8D-02
   Bfn.  Coefficient  Atom+Function         Bfn.  Coefficient  Atom+Function  
  ----- ------------  ---------------      ----- ------------  ---------------
     1      0.563086  1 C  s                  2      0.464912  1 C  s          
 
 Vector    2  Occ=1.000000D+00  E=-5.480959D-01
              MO Center= -6.0D-16, -7.5D-15, -1.8D-15, r^2= 8.1D-01
   Bfn.  Coefficient  Atom+Function         Bfn.  Coefficient  Atom+Function  
  ----- ------------  ---------------      ----- ------------  ---------------
     6      0.607694  1 C  s                 10      0.600473  1 C  s          
     2     -0.217920  1 C  s                  1     -0.130063  1 C  s          
    33     -0.052153  1 C  dyy               30     -0.044397  1 C  dxx        
    35     -0.044276  1 C  dzz               14      0.039960  1 C  s          
 
 Vector    3  Occ=1.000000D+00  E=-2.303988D-01
              MO Center=  3.9D-15, -2.9D-16, -2.4D-15, r^2= 1.1D+00
   Bfn.  Coefficient  Atom+Function         Bfn.  Coefficient  Atom+Function  
  ----- ------------  ---------------      ----- ------------  ---------------
     7      0.377340  1 C  px                11      0.348756  1 C  px         
     3      0.255549  1 C  px                 8      0.171059  1 C  py         
     9     -0.169232  1 C  pz                12      0.158101  1 C  py         
    13     -0.156413  1 C  pz                 4      0.115848  1 C  py         
     5     -0.114610  1 C  pz                15      0.045333  1 C  px         
 
 Vector    4  Occ=1.000000D+00  E=-2.303988D-01
              MO Center=  1.5D-15, -2.5D-15,  8.2D-16, r^2= 1.1D+00
   Bfn.  Coefficient  Atom+Function         Bfn.  Coefficient  Atom+Function  
  ----- ------------  ---------------      ----- ------------  ---------------
     9      0.395956  1 C  pz                13      0.365961  1 C  pz         
     5      0.268156  1 C  pz                 7      0.201687  1 C  px         
    11      0.186409  1 C  px                 3      0.136590  1 C  px         
     8     -0.053175  1 C  py                12     -0.049147  1 C  py         
    17      0.047570  1 C  pz                 4     -0.036012  1 C  py         
 
 Vector    5  Occ=0.000000D+00  E=-1.936306D-01
              MO Center= -1.8D-15,  4.8D-15,  6.1D-16, r^2= 1.2D+00
   Bfn.  Coefficient  Atom+Function         Bfn.  Coefficient  Atom+Function  
  ----- ------------  ---------------      ----- ------------  ---------------
    12      0.395851  1 C  py                 8      0.366154  1 C  py         
     4      0.269788  1 C  py                11     -0.126671  1 C  px         
     7     -0.117168  1 C  px                13      0.117683  1 C  pz         
     9      0.108855  1 C  pz                 3     -0.086331  1 C  px         
     5      0.080206  1 C  pz                16      0.074526  1 C  py         
 
 Vector    6  Occ=0.000000D+00  E= 1.700782D-02
              MO Center=  1.9D-14, -6.1D-14, -2.3D-14, r^2= 8.2D+00
   Bfn.  Coefficient  Atom+Function         Bfn.  Coefficient  Atom+Function  
  ----- ------------  ---------------      ----- ------------  ---------------
    14      1.785872  1 C  s                  6     -0.322981  1 C  s          
    33     -0.297160  1 C  dyy               30     -0.295503  1 C  dxx        
    35     -0.295477  1 C  dzz               10     -0.257489  1 C  s          
    24     -0.078184  1 C  dxx               29     -0.078219  1 C  dzz        
    27     -0.075962  1 C  dyy                1      0.041646  1 C  s          
 
 Vector    7  Occ=0.000000D+00  E= 6.004295D-02
              MO Center= -7.1D-16, -1.5D-15,  3.8D-16, r^2= 9.3D+00
   Bfn.  Coefficient  Atom+Function         Bfn.  Coefficient  Atom+Function  
  ----- ------------  ---------------      ----- ------------  ---------------
    15      1.047004  1 C  px                16      0.431108  1 C  py         
    11     -0.340353  1 C  px                17     -0.323143  1 C  pz         
    12     -0.140141  1 C  py                 3     -0.114687  1 C  px         
    13      0.105045  1 C  pz                 7     -0.094434  1 C  px         
     4     -0.047223  1 C  py                 8     -0.038884  1 C  py         
 
 Vector    8  Occ=0.000000D+00  E= 6.004296D-02
              MO Center=  3.5D-15, -1.3D-15,  6.0D-15, r^2= 9.3D+00
   Bfn.  Coefficient  Atom+Function         Bfn.  Coefficient  Atom+Function  
  ----- ------------  ---------------      ----- ------------  ---------------
    17      1.085893  1 C  pz                15      0.413577  1 C  px         
    13     -0.352995  1 C  pz                16     -0.190481  1 C  py         
    11     -0.134443  1 C  px                 5     -0.118947  1 C  pz         
     9     -0.097942  1 C  pz                12      0.061920  1 C  py         
     3     -0.045302  1 C  px                 7     -0.037303  1 C  px         
 
 Vector    9  Occ=0.000000D+00  E= 6.630510D-02
              MO Center= -2.1D-14,  6.0D-14,  1.7D-14, r^2= 9.2D+00
   Bfn.  Coefficient  Atom+Function         Bfn.  Coefficient  Atom+Function  
  ----- ------------  ---------------      ----- ------------  ---------------
    16      1.083810  1 C  py                12     -0.379568  1 C  py         
    15     -0.346818  1 C  px                17      0.322206  1 C  pz         
     4     -0.123938  1 C  py                11      0.121461  1 C  px         
    13     -0.112842  1 C  pz                 8     -0.099648  1 C  py         
     3      0.039660  1 C  px                 5     -0.036845  1 C  pz         
 
 Vector   10  Occ=0.000000D+00  E= 3.144873D-01
              MO Center= -1.5D-15, -3.9D-17, -2.1D-15, r^2= 3.1D+00
   Bfn.  Coefficient  Atom+Function         Bfn.  Coefficient  Atom+Function  
  ----- ------------  ---------------      ----- ------------  ---------------
    35     -0.792169  1 C  dzz               30      0.775773  1 C  dxx        
    31      0.518261  1 C  dxy               34      0.447550  1 C  dyz        
    32     -0.073276  1 C  dxz        
 
 Vector   11  Occ=0.000000D+00  E= 3.144873D-01
              MO Center= -7.0D-16, -3.8D-16, -3.6D-16, r^2= 3.1D+00
   Bfn.  Coefficient  Atom+Function         Bfn.  Coefficient  Atom+Function  
  ----- ------------  ---------------      ----- ------------  ---------------
    32      1.573816  1 C  dxz               34      0.484552  1 C  dyz        
    31     -0.401202  1 C  dxy               33     -0.136212  1 C  dyy        
    30      0.104171  1 C  dxx               26      0.033042  1 C  dxz        
    35      0.032046  1 C  dzz               20      0.026333  1 C  dxz        
 
 Vector   12  Occ=0.000000D+00  E= 3.176770D-01
              MO Center=  1.6D-15, -1.8D-15,  6.2D-16, r^2= 3.1D+00
   Bfn.  Coefficient  Atom+Function         Bfn.  Coefficient  Atom+Function  
  ----- ------------  ---------------      ----- ------------  ---------------
    34      1.141014  1 C  dyz               31      1.079578  1 C  dxy        
    30     -0.346263  1 C  dxx               35      0.338502  1 C  dzz        
    32     -0.042707  1 C  dxz        
 
 Vector   13  Occ=0.000000D+00  E= 3.176770D-01
              MO Center=  1.0D-15, -1.9D-15, -9.6D-16, r^2= 3.1D+00
   Bfn.  Coefficient  Atom+Function         Bfn.  Coefficient  Atom+Function  
  ----- ------------  ---------------      ----- ------------  ---------------
    31      0.840248  1 C  dxy               34     -0.806936  1 C  dyz        
    32      0.627616  1 C  dxz               33      0.628680  1 C  dyy        
    30     -0.333275  1 C  dxx               35     -0.295483  1 C  dzz        
 
 Vector   14  Occ=0.000000D+00  E= 3.188075D-01
              MO Center=  8.6D-16, -1.1D-14, -4.7D-15, r^2= 6.5D+00
   Bfn.  Coefficient  Atom+Function         Bfn.  Coefficient  Atom+Function  
  ----- ------------  ---------------      ----- ------------  ---------------
    14      2.056731  1 C  s                 10      1.776525  1 C  s          
    30     -1.591814  1 C  dxx               35     -1.593546  1 C  dzz        
    33     -1.481602  1 C  dyy               27     -0.374199  1 C  dyy        
    24     -0.372037  1 C  dxx               29     -0.372004  1 C  dzz        
     2     -0.243263  1 C  s                 18     -0.094962  1 C  dxx        
 
 Vector   15  Occ=0.000000D+00  E= 3.233229D-01
              MO Center=  1.0D-15, -1.6D-15, -4.6D-16, r^2= 3.1D+00
   Bfn.  Coefficient  Atom+Function         Bfn.  Coefficient  Atom+Function  
  ----- ------------  ---------------      ----- ------------  ---------------
    33      0.915479  1 C  dyy               31     -0.795557  1 C  dxy        
    34      0.739133  1 C  dyz               32     -0.236514  1 C  dxz        
    10     -0.217141  1 C  s                 35     -0.217762  1 C  dzz        
    14     -0.206411  1 C  s                 30     -0.200347  1 C  dxx        
    27      0.057489  1 C  dyy               24      0.040305  1 C  dxx        
 
 Vector   16  Occ=0.000000D+00  E= 4.964948D-01
              MO Center=  3.6D-15,  5.4D-15,  7.7D-16, r^2= 3.9D+00
   Bfn.  Coefficient  Atom+Function         Bfn.  Coefficient  Atom+Function  
  ----- ------------  ---------------      ----- ------------  ---------------
    11      1.378345  1 C  px                 7     -0.834031  1 C  px         
    15     -0.637142  1 C  px                12      0.624255  1 C  py         
    13     -0.616167  1 C  pz                 8     -0.377734  1 C  py         
     9      0.372840  1 C  pz                16     -0.288563  1 C  py         
    17      0.284824  1 C  pz                 3     -0.196202  1 C  px         
 
 Vector   17  Occ=0.000000D+00  E= 4.964948D-01
              MO Center=  1.2D-15,  2.3D-15,  4.3D-15, r^2= 3.9D+00
   Bfn.  Coefficient  Atom+Function         Bfn.  Coefficient  Atom+Function  
  ----- ------------  ---------------      ----- ------------  ---------------
    13      1.446170  1 C  pz                 9     -0.875073  1 C  pz         
    11      0.734726  1 C  px                17     -0.668494  1 C  pz         
     7     -0.444580  1 C  px                15     -0.339628  1 C  px         
     5     -0.205856  1 C  pz                12     -0.194830  1 C  py         
     8      0.117891  1 C  py                 3     -0.104585  1 C  px         
 
 Vector   18  Occ=0.000000D+00  E= 5.145901D-01
              MO Center= -4.0D-15,  1.3D-14,  4.9D-15, r^2= 3.8D+00
   Bfn.  Coefficient  Atom+Function         Bfn.  Coefficient  Atom+Function  
  ----- ------------  ---------------      ----- ------------  ---------------
    12      1.489844  1 C  py                 8     -0.919816  1 C  py         
    16     -0.683114  1 C  py                11     -0.476750  1 C  px         
    13      0.442927  1 C  pz                 7      0.294342  1 C  px         
     9     -0.273459  1 C  pz                15      0.218597  1 C  px         
     4     -0.213481  1 C  py                17     -0.203088  1 C  pz         
 
 Vector   19  Occ=0.000000D+00  E= 1.101245D+00
              MO Center=  3.1D-15,  1.9D-16,  1.1D-15, r^2= 3.6D+00
   Bfn.  Coefficient  Atom+Function         Bfn.  Coefficient  Atom+Function  
  ----- ------------  ---------------      ----- ------------  ---------------
    10      7.930495  1 C  s                  6     -2.681973  1 C  s          
    30     -2.513694  1 C  dxx               33     -2.517605  1 C  dyy        
    35     -2.513633  1 C  dzz               14      1.388235  1 C  s          
    24     -1.044465  1 C  dxx               29     -1.044769  1 C  dzz        
    27     -1.025023  1 C  dyy               18     -0.249983  1 C  dxx        
 
 Vector   20  Occ=0.000000D+00  E= 1.508002D+00
              MO Center=  1.0D-15, -8.3D-16,  5.1D-17, r^2= 1.2D+00
   Bfn.  Coefficient  Atom+Function         Bfn.  Coefficient  Atom+Function  
  ----- ------------  ---------------      ----- ------------  ---------------
    28      1.307639  1 C  dyz               25      1.207778  1 C  dxy        
    34     -0.628101  1 C  dyz               31     -0.580134  1 C  dxy        
    29      0.388961  1 C  dzz               24     -0.386155  1 C  dxx        
    35     -0.186830  1 C  dzz               30      0.185482  1 C  dxx        
    26     -0.059877  1 C  dxz               32      0.028761  1 C  dxz        
 
 Vector   21  Occ=0.000000D+00  E= 1.508002D+00
              MO Center=  2.7D-16, -1.0D-15, -4.5D-16, r^2= 1.2D+00
   Bfn.  Coefficient  Atom+Function         Bfn.  Coefficient  Atom+Function  
  ----- ------------  ---------------      ----- ------------  ---------------
    25      0.971832  1 C  dxy               28     -0.893334  1 C  dyz        
    26      0.710357  1 C  dxz               27      0.712479  1 C  dyy        
    31     -0.466802  1 C  dxy               34      0.429097  1 C  dyz        
    24     -0.383934  1 C  dxx               32     -0.341207  1 C  dxz        
    33     -0.342227  1 C  dyy               29     -0.328547  1 C  dzz        
 
 Vector   22  Occ=0.000000D+00  E= 1.508817D+00
              MO Center=  1.9D-16, -1.2D-15, -2.7D-16, r^2= 1.2D+00
   Bfn.  Coefficient  Atom+Function         Bfn.  Coefficient  Atom+Function  
  ----- ------------  ---------------      ----- ------------  ---------------
    29     -0.894834  1 C  dzz               24      0.880565  1 C  dxx        
    25      0.573470  1 C  dxy               28      0.521266  1 C  dyz        
    35      0.431601  1 C  dzz               30     -0.424719  1 C  dxx        
    31     -0.276599  1 C  dxy               34     -0.251420  1 C  dyz        
    26     -0.033526  1 C  dxz        
 
 Vector   23  Occ=0.000000D+00  E= 1.508817D+00
              MO Center=  2.4D-15, -1.1D-15, -1.4D-15, r^2= 1.2D+00
   Bfn.  Coefficient  Atom+Function         Bfn.  Coefficient  Atom+Function  
  ----- ------------  ---------------      ----- ------------  ---------------
    26      1.782042  1 C  dxz               32     -0.859524  1 C  dxz        
    28      0.533929  1 C  dyz               25     -0.469996  1 C  dxy        
    34     -0.257527  1 C  dyz               31      0.226691  1 C  dxy        
    27     -0.154557  1 C  dyy               24      0.093492  1 C  dxx        
    33      0.074547  1 C  dyy               29      0.061066  1 C  dzz        
 
 Vector   24  Occ=0.000000D+00  E= 1.514875D+00
              MO Center= -5.1D-16,  6.5D-16,  9.6D-16, r^2= 1.2D+00
   Bfn.  Coefficient  Atom+Function         Bfn.  Coefficient  Atom+Function  
  ----- ------------  ---------------      ----- ------------  ---------------
    25      0.904421  1 C  dxy               27     -0.887690  1 C  dyy        
    28     -0.840264  1 C  dyz               31     -0.431426  1 C  dxy        
    29      0.400628  1 C  dzz               34      0.400822  1 C  dyz        
    24      0.380824  1 C  dxx               33      0.355701  1 C  dyy        
    26      0.268895  1 C  dxz               35     -0.258850  1 C  dzz        
 
 Vector   25  Occ=0.000000D+00  E= 2.575895D+00
              MO Center= -3.2D-15, -1.5D-15,  2.7D-15, r^2= 9.8D-01
   Bfn.  Coefficient  Atom+Function         Bfn.  Coefficient  Atom+Function  
  ----- ------------  ---------------      ----- ------------  ---------------
     3      0.912265  1 C  px                 7     -0.708302  1 C  px         
    11      0.644062  1 C  px                 5     -0.523722  1 C  pz         
     4      0.447975  1 C  py                 9      0.406631  1 C  pz         
    13     -0.369750  1 C  pz                39     -0.369864  1 C  fxyy       
     8     -0.347798  1 C  py                12      0.316270  1 C  py         
 
 Vector   26  Occ=0.000000D+00  E= 2.575895D+00
              MO Center= -4.5D-16,  3.7D-16, -1.2D-15, r^2= 9.8D-01
   Bfn.  Coefficient  Atom+Function         Bfn.  Coefficient  Atom+Function  
  ----- ------------  ---------------      ----- ------------  ---------------
     5      0.967345  1 C  pz                 9     -0.751062  1 C  pz         
    13      0.682948  1 C  pz                 3      0.602004  1 C  px         
     7     -0.467404  1 C  px                43     -0.435798  1 C  fyyz       
    11      0.425016  1 C  px                45     -0.290338  1 C  fzzz       
    39     -0.288115  1 C  fxyy              38     -0.272543  1 C  fxxz       
 
 Vector   27  Occ=0.000000D+00  E= 2.578833D+00
              MO Center=  7.3D-16, -2.2D-16, -6.2D-16, r^2= 9.6D-01
   Bfn.  Coefficient  Atom+Function         Bfn.  Coefficient  Atom+Function  
  ----- ------------  ---------------      ----- ------------  ---------------
     4      1.037959  1 C  py                 8     -0.747800  1 C  py         
    12      0.727389  1 C  py                42     -0.407288  1 C  fyyy       
     3     -0.332411  1 C  px                37     -0.325653  1 C  fxxy       
    44     -0.320693  1 C  fyzz               5      0.308826  1 C  pz         
    16     -0.246444  1 C  py                 7      0.239501  1 C  px         
 
 Vector   28  Occ=0.000000D+00  E= 2.760925D+00
              MO Center= -8.1D-16,  6.6D-16, -7.6D-16, r^2= 7.9D-01
   Bfn.  Coefficient  Atom+Function         Bfn.  Coefficient  Atom+Function  
  ----- ------------  ---------------      ----- ------------  ---------------
    43      1.481574  1 C  fyyz              39      1.247498  1 C  fxyy       
    44      1.228164  1 C  fyzz              37     -0.977509  1 C  fxxy       
    41     -0.624507  1 C  fxzz              38     -0.577695  1 C  fxxz       
    40     -0.360854  1 C  fxyz              45     -0.311177  1 C  fzzz       
    36     -0.215188  1 C  fxxx               9     -0.087734  1 C  pz         
 
 Vector   29  Occ=0.000000D+00  E= 2.760926D+00
              MO Center=  3.9D-17,  2.1D-15, -7.2D-17, r^2= 7.9D-01
   Bfn.  Coefficient  Atom+Function         Bfn.  Coefficient  Atom+Function  
  ----- ------------  ---------------      ----- ------------  ---------------
    40      1.823587  1 C  fxyz              37     -1.355368  1 C  fxxy       
    44     -0.981722  1 C  fyzz              39      0.787379  1 C  fxyy       
    42      0.774087  1 C  fyyy              43     -0.448414  1 C  fyyz       
    36     -0.263207  1 C  fxxx              45      0.212276  1 C  fzzz       
    38     -0.168192  1 C  fxxz               7     -0.081692  1 C  px         
 
 Vector   30  Occ=0.000000D+00  E= 2.762682D+00
              MO Center=  7.3D-16, -3.0D-15, -1.1D-15, r^2= 7.9D-01
   Bfn.  Coefficient  Atom+Function         Bfn.  Coefficient  Atom+Function  
  ----- ------------  ---------------      ----- ------------  ---------------
    39      1.403167  1 C  fxyy              43     -1.303679  1 C  fyyz       
    40      1.095117  1 C  fxyz              44      0.866625  1 C  fyzz       
    37      0.786168  1 C  fxxy              42     -0.544901  1 C  fyyy       
    36     -0.377201  1 C  fxxx              45      0.358415  1 C  fzzz       
    41     -0.277346  1 C  fxzz              38      0.233809  1 C  fxxz       
 
 Vector   31  Occ=0.000000D+00  E= 2.764458D+00
              MO Center= -7.1D-16,  1.1D-15,  9.2D-16, r^2= 7.9D-01
   Bfn.  Coefficient  Atom+Function         Bfn.  Coefficient  Atom+Function  
  ----- ------------  ---------------      ----- ------------  ---------------
    44     -1.345357  1 C  fyzz              37      1.287163  1 C  fxxy       
    39      1.023261  1 C  fxyy              43      0.983633  1 C  fyyz       
    41      0.528482  1 C  fxzz              36     -0.517247  1 C  fxxx       
    45     -0.486332  1 C  fzzz              38      0.475363  1 C  fxxz       
 
 Vector   32  Occ=0.000000D+00  E= 2.764458D+00
              MO Center= -1.6D-15,  3.8D-15,  5.5D-16, r^2= 7.9D-01
   Bfn.  Coefficient  Atom+Function         Bfn.  Coefficient  Atom+Function  
  ----- ------------  ---------------      ----- ------------  ---------------
    40      2.696069  1 C  fxyz              38     -1.005209  1 C  fxxz       
    41      0.922243  1 C  fxzz              43      0.870421  1 C  fyyz       
    39     -0.794713  1 C  fxyy              44      0.434961  1 C  fyzz       
    37      0.416235  1 C  fxxy              42     -0.283732  1 C  fyyy       
    45      0.044930  1 C  fzzz              36     -0.042510  1 C  fxxx       
 
 Vector   33  Occ=0.000000D+00  E= 2.783423D+00
              MO Center= -5.5D-16, -7.6D-16,  2.0D-15, r^2= 7.9D-01
   Bfn.  Coefficient  Atom+Function         Bfn.  Coefficient  Atom+Function  
  ----- ------------  ---------------      ----- ------------  ---------------
    40      1.746488  1 C  fxyz              38      1.462508  1 C  fxxz       
    41     -1.363177  1 C  fxzz              45     -0.573209  1 C  fzzz       
    36      0.532749  1 C  fxxx              43      0.257119  1 C  fyyz       
    39     -0.235070  1 C  fxyy              37      0.076648  1 C  fxxy       
    44      0.075022  1 C  fyzz              42     -0.050557  1 C  fyyy       
 
 Vector   34  Occ=0.000000D+00  E= 2.783423D+00
              MO Center= -5.2D-16, -2.2D-16,  1.9D-16, r^2= 7.9D-01
   Bfn.  Coefficient  Atom+Function         Bfn.  Coefficient  Atom+Function  
  ----- ------------  ---------------      ----- ------------  ---------------
    41      1.596305  1 C  fxzz              38      1.487111  1 C  fxxz       
    44      0.875650  1 C  fyzz              37     -0.864294  1 C  fxxy       
    36     -0.439785  1 C  fxxx              45     -0.409070  1 C  fzzz       
    39     -0.276950  1 C  fxyy              43     -0.259902  1 C  fyyz       
 
 Vector   35  Occ=0.000000D+00  E= 3.111575D+00
              MO Center=  7.6D-15,  6.8D-15,  3.3D-16, r^2= 1.7D+00
   Bfn.  Coefficient  Atom+Function         Bfn.  Coefficient  Atom+Function  
  ----- ------------  ---------------      ----- ------------  ---------------
    10      7.877095  1 C  s                  6      3.712610  1 C  s          
    24     -3.466558  1 C  dxx               27     -3.454827  1 C  dyy        
    29     -3.466741  1 C  dzz               30     -2.000177  1 C  dxx        
    33     -2.004009  1 C  dyy               35     -2.000117  1 C  dzz        
     2     -1.461069  1 C  s                 14      0.817137  1 C  s          
 
 Vector   36  Occ=0.000000D+00  E= 6.844863D+00
              MO Center= -2.0D-15, -5.3D-16, -3.3D-16, r^2= 3.5D-01
   Bfn.  Coefficient  Atom+Function         Bfn.  Coefficient  Atom+Function  
  ----- ------------  ---------------      ----- ------------  ---------------
    23     -0.915548  1 C  dzz               18      0.895175  1 C  dxx        
    19      0.602421  1 C  dxy               22      0.511527  1 C  dyz        
    29      0.501390  1 C  dzz               24     -0.490232  1 C  dxx        
    25     -0.329911  1 C  dxy               28     -0.280134  1 C  dyz        
    35     -0.152753  1 C  dzz               30      0.149354  1 C  dxx        
 
 Vector   37  Occ=0.000000D+00  E= 6.844863D+00
              MO Center= -1.8D-16, -9.5D-16,  2.9D-15, r^2= 3.5D-01
   Bfn.  Coefficient  Atom+Function         Bfn.  Coefficient  Atom+Function  
  ----- ------------  ---------------      ----- ------------  ---------------
    20      1.817100  1 C  dxz               26     -0.995116  1 C  dxz        
    22      0.564580  1 C  dyz               19     -0.458238  1 C  dxy        
    28     -0.309186  1 C  dyz               32      0.303171  1 C  dxz        
    25      0.250948  1 C  dxy               21     -0.157297  1 C  dyy        
    18      0.128443  1 C  dxx               34      0.094196  1 C  dyz        
 
 Vector   38  Occ=0.000000D+00  E= 6.847321D+00
              MO Center=  1.1D-15, -1.3D-15, -1.9D-16, r^2= 3.4D-01
   Bfn.  Coefficient  Atom+Function         Bfn.  Coefficient  Atom+Function  
  ----- ------------  ---------------      ----- ------------  ---------------
    19      1.576186  1 C  dxy               25     -0.856312  1 C  dxy        
    18     -0.554007  1 C  dxx               21      0.486087  1 C  dyy        
    20      0.441488  1 C  dxz               22      0.374359  1 C  dyz        
    24      0.300989  1 C  dxx               27     -0.264072  1 C  dyy        
    31      0.260663  1 C  dxy               26     -0.239853  1 C  dxz        
 
 Vector   39  Occ=0.000000D+00  E= 6.847322D+00
              MO Center=  2.6D-16, -1.0D-15, -1.2D-15, r^2= 3.4D-01
   Bfn.  Coefficient  Atom+Function         Bfn.  Coefficient  Atom+Function  
  ----- ------------  ---------------      ----- ------------  ---------------
    22      1.569004  1 C  dyz               28     -0.852410  1 C  dyz        
    20     -0.576808  1 C  dxz               21     -0.539331  1 C  dyy        
    23      0.514062  1 C  dzz               26      0.313370  1 C  dxz        
    27      0.292996  1 C  dyy               29     -0.279291  1 C  dzz        
    34      0.259475  1 C  dyz               19      0.095006  1 C  dxy        
 
 Vector   40  Occ=0.000000D+00  E= 6.860844D+00
              MO Center=  1.5D-17, -3.0D-15, -5.1D-16, r^2= 3.4D-01
   Bfn.  Coefficient  Atom+Function         Bfn.  Coefficient  Atom+Function  
  ----- ------------  ---------------      ----- ------------  ---------------
    19      0.921253  1 C  dxy               21     -0.878490  1 C  dyy        
    22     -0.855957  1 C  dyz               25     -0.499669  1 C  dxy        
    28      0.464254  1 C  dyz               27      0.451060  1 C  dyy        
    23      0.432941  1 C  dzz               18      0.412816  1 C  dxx        
    20      0.274069  1 C  dxz               29     -0.260232  1 C  dzz        
 
 Vector   41  Occ=0.000000D+00  E= 8.187455D+00
              MO Center= -4.7D-15,  1.2D-14,  4.1D-15, r^2= 1.7D+00
   Bfn.  Coefficient  Atom+Function         Bfn.  Coefficient  Atom+Function  
  ----- ------------  ---------------      ----- ------------  ---------------
     8     13.551299  1 C  py                37     -7.151377  1 C  fxxy       
    42     -7.147799  1 C  fyyy              44     -7.151594  1 C  fyzz       
     7     -4.336376  1 C  px                 9      4.028664  1 C  pz         
     4     -3.218375  1 C  py                36      2.288758  1 C  fxxx       
    39      2.283970  1 C  fxyy              41      2.288489  1 C  fxzz       
 
 Vector   42  Occ=0.000000D+00  E= 8.219819D+00
              MO Center= -3.1D-14,  3.2D-15, -3.9D-14, r^2= 1.7D+00
   Bfn.  Coefficient  Atom+Function         Bfn.  Coefficient  Atom+Function  
  ----- ------------  ---------------      ----- ------------  ---------------
     9     11.725222  1 C  pz                 7      8.982263  1 C  px         
    38     -6.190807  1 C  fxxz              43     -6.185029  1 C  fyyz       
    45     -6.190055  1 C  fzzz              36     -4.741913  1 C  fxxx       
    39     -4.737798  1 C  fxyy              41     -4.743061  1 C  fxzz       
     5     -2.782063  1 C  pz                 3     -2.131237  1 C  px         
 
 Vector   43  Occ=0.000000D+00  E= 8.219819D+00
              MO Center= -4.7D-14, -2.3D-14,  3.6D-14, r^2= 1.7D+00
   Bfn.  Coefficient  Atom+Function         Bfn.  Coefficient  Atom+Function  
  ----- ------------  ---------------      ----- ------------  ---------------
     7     10.911567  1 C  px                 9     -8.052015  1 C  pz         
     8      5.885453  1 C  py                36     -5.760431  1 C  fxxx       
    39     -5.757497  1 C  fxyy              41     -5.759760  1 C  fxzz       
    38      4.249807  1 C  fxxz              43      4.249002  1 C  fyyz       
    45      4.250872  1 C  fzzz              37     -3.110446  1 C  fxxy       
 
 Vector   44  Occ=0.000000D+00  E= 8.660738D+00
              MO Center=  2.2D-14,  4.5D-15, -8.1D-15, r^2= 1.1D+00
   Bfn.  Coefficient  Atom+Function         Bfn.  Coefficient  Atom+Function  
  ----- ------------  ---------------      ----- ------------  ---------------
     6     13.770425  1 C  s                 10      5.857902  1 C  s          
    24     -5.485530  1 C  dxx               27     -5.490378  1 C  dyy        
    29     -5.485454  1 C  dzz                2     -3.332946  1 C  s          
    18     -3.178802  1 C  dxx               21     -3.174849  1 C  dyy        
    23     -3.178864  1 C  dzz               30     -1.443233  1 C  dxx        
 
 Vector   45  Occ=0.000000D+00  E= 2.893026D+01
              MO Center= -7.5D-16, -2.6D-15,  1.5D-15, r^2= 9.0D-02
   Bfn.  Coefficient  Atom+Function         Bfn.  Coefficient  Atom+Function  
  ----- ------------  ---------------      ----- ------------  ---------------
     6      4.124986  1 C  s                  1     -2.003127  1 C  s          
     2      1.549561  1 C  s                 24     -1.213577  1 C  dxx        
    27     -1.214688  1 C  dyy               29     -1.213560  1 C  dzz        
    18     -1.131724  1 C  dxx               21     -1.130911  1 C  dyy        
    23     -1.131737  1 C  dzz               10      0.512281  1 C  s          
 
 
                     DFT Final Beta Molecular Orbital Analysis
                     -----------------------------------------
 
 Vector    1  Occ=1.000000D+00  E=-1.009253D+01
              MO Center=  1.3D-17, -3.0D-17, -4.2D-18, r^2= 2.7D-02
   Bfn.  Coefficient  Atom+Function         Bfn.  Coefficient  Atom+Function  
  ----- ------------  ---------------      ----- ------------  ---------------
     1      0.564898  1 C  s                  2      0.463484  1 C  s          
 
 Vector    2  Occ=1.000000D+00  E=-4.406454D-01
              MO Center=  3.3D-16, -9.2D-15, -3.8D-15, r^2= 8.9D-01
   Bfn.  Coefficient  Atom+Function         Bfn.  Coefficient  Atom+Function  
  ----- ------------  ---------------      ----- ------------  ---------------
    10      0.588338  1 C  s                  6      0.563675  1 C  s          
     2     -0.204161  1 C  s                  1     -0.125325  1 C  s          
    14      0.051833  1 C  s                 35     -0.034097  1 C  dzz        
    30     -0.033913  1 C  dxx        
 
 Vector    3  Occ=0.000000D+00  E=-1.567881D-01
              MO Center= -2.5D-15,  7.7D-15,  2.4D-15, r^2= 1.3D+00
   Bfn.  Coefficient  Atom+Function         Bfn.  Coefficient  Atom+Function  
  ----- ------------  ---------------      ----- ------------  ---------------
    12      0.410216  1 C  py                 8      0.319043  1 C  py         
     4      0.266186  1 C  py                11     -0.131265  1 C  px         
    13      0.121951  1 C  pz                 7     -0.102091  1 C  px         
    16      0.097513  1 C  py                 9      0.094847  1 C  pz         
     3     -0.085177  1 C  px                 5      0.079133  1 C  pz         
 
 Vector    4  Occ=0.000000D+00  E=-1.005114D-01
              MO Center=  2.9D-15, -4.3D-15,  2.2D-15, r^2= 1.7D+00
   Bfn.  Coefficient  Atom+Function         Bfn.  Coefficient  Atom+Function  
  ----- ------------  ---------------      ----- ------------  ---------------
    13      0.414610  1 C  pz                 9      0.263742  1 C  pz         
     5      0.244486  1 C  pz                11      0.199216  1 C  px         
    17      0.165888  1 C  pz                 7      0.126725  1 C  px         
     3      0.117473  1 C  px                15      0.079707  1 C  px         
    12     -0.059510  1 C  py                43      0.055608  1 C  fyyz       
 
 Vector    5  Occ=0.000000D+00  E=-1.005114D-01
              MO Center=  3.0D-15, -1.5D-15, -1.6D-15, r^2= 1.7D+00
   Bfn.  Coefficient  Atom+Function         Bfn.  Coefficient  Atom+Function  
  ----- ------------  ---------------      ----- ------------  ---------------
    11      0.396162  1 C  px                 7      0.252006  1 C  px         
     3      0.233607  1 C  px                12      0.175853  1 C  py         
    13     -0.165111  1 C  pz                15      0.158506  1 C  px         
     8      0.111864  1 C  py                 9     -0.105030  1 C  pz         
     4      0.103696  1 C  py                 5     -0.097362  1 C  pz         
 
 Vector    6  Occ=0.000000D+00  E= 4.103740D-02
              MO Center=  2.2D-14, -6.8D-14, -1.5D-14, r^2= 8.3D+00
   Bfn.  Coefficient  Atom+Function         Bfn.  Coefficient  Atom+Function  
  ----- ------------  ---------------      ----- ------------  ---------------
    14      1.820785  1 C  s                 30     -0.313858  1 C  dxx        
    35     -0.314013  1 C  dzz                6     -0.305218  1 C  s          
    33     -0.303920  1 C  dyy               10     -0.298051  1 C  s          
    27     -0.089803  1 C  dyy               24     -0.080117  1 C  dxx        
    29     -0.079966  1 C  dzz                1      0.042727  1 C  s          
 
 Vector    7  Occ=0.000000D+00  E= 8.160464D-02
              MO Center= -2.2D-14,  6.5D-14,  1.9D-14, r^2= 9.2D+00
   Bfn.  Coefficient  Atom+Function         Bfn.  Coefficient  Atom+Function  
  ----- ------------  ---------------      ----- ------------  ---------------
    16      1.088861  1 C  py                12     -0.409833  1 C  py         
    15     -0.348425  1 C  px                17      0.323703  1 C  pz         
     4     -0.130667  1 C  py                11      0.131143  1 C  px         
    13     -0.121838  1 C  pz                 8     -0.088104  1 C  py         
     3      0.041812  1 C  px                 5     -0.038845  1 C  pz         
 
 Vector    8  Occ=0.000000D+00  E= 9.490777D-02
              MO Center= -3.3D-15, -1.5D-16, -8.0D-15, r^2= 9.1D+00
   Bfn.  Coefficient  Atom+Function         Bfn.  Coefficient  Atom+Function  
  ----- ------------  ---------------      ----- ------------  ---------------
    17      1.068402  1 C  pz                15      0.513434  1 C  px         
    13     -0.475828  1 C  pz                11     -0.228665  1 C  px         
    16     -0.153327  1 C  py                 5     -0.145436  1 C  pz         
     9     -0.083739  1 C  pz                 3     -0.069891  1 C  px         
    12      0.068286  1 C  py                43     -0.042222  1 C  fyyz       
 
 Vector    9  Occ=0.000000D+00  E= 9.490778D-02
              MO Center= -1.4D-16, -1.8D-16,  1.1D-17, r^2= 9.1D+00
   Bfn.  Coefficient  Atom+Function         Bfn.  Coefficient  Atom+Function  
  ----- ------------  ---------------      ----- ------------  ---------------
    15      1.020856  1 C  px                11     -0.454653  1 C  px         
    16      0.453174  1 C  py                17     -0.425550  1 C  pz         
    12     -0.201827  1 C  py                13      0.189524  1 C  pz         
     3     -0.138964  1 C  px                 7     -0.080012  1 C  px         
     4     -0.061688  1 C  py                 5      0.057928  1 C  pz         
 
 Vector   10  Occ=0.000000D+00  E= 3.416148D-01
              MO Center=  3.3D-15, -5.8D-15, -2.3D-15, r^2= 3.5D+00
   Bfn.  Coefficient  Atom+Function         Bfn.  Coefficient  Atom+Function  
  ----- ------------  ---------------      ----- ------------  ---------------
    33      1.221312  1 C  dyy               31     -0.767122  1 C  dxy        
    34      0.712703  1 C  dyz               14     -0.643390  1 C  s          
    10     -0.617799  1 C  s                 32     -0.228057  1 C  dxz        
    30      0.145376  1 C  dxx               35      0.128580  1 C  dzz        
    24      0.124208  1 C  dxx               29      0.124282  1 C  dzz        
 
 Vector   11  Occ=0.000000D+00  E= 3.487454D-01
              MO Center=  1.4D-15, -8.6D-16, -1.5D-15, r^2= 3.1D+00
   Bfn.  Coefficient  Atom+Function         Bfn.  Coefficient  Atom+Function  
  ----- ------------  ---------------      ----- ------------  ---------------
    34      0.920738  1 C  dyz               31     -0.742131  1 C  dxy        
    32     -0.635441  1 C  dxz               33     -0.631709  1 C  dyy        
    35      0.329559  1 C  dzz               30      0.302165  1 C  dxx        
 
 Vector   12  Occ=0.000000D+00  E= 3.487454D-01
              MO Center=  7.3D-17,  6.0D-16,  4.7D-16, r^2= 3.1D+00
   Bfn.  Coefficient  Atom+Function         Bfn.  Coefficient  Atom+Function  
  ----- ------------  ---------------      ----- ------------  ---------------
    31      1.166269  1 C  dxy               34      1.070735  1 C  dyz        
    30     -0.380140  1 C  dxx               35      0.312320  1 C  dzz        
    33      0.067809  1 C  dyy        
 
 Vector   13  Occ=0.000000D+00  E= 3.502343D-01
              MO Center=  2.1D-15, -1.2D-14, -4.8D-15, r^2= 6.2D+00
   Bfn.  Coefficient  Atom+Function         Bfn.  Coefficient  Atom+Function  
  ----- ------------  ---------------      ----- ------------  ---------------
    10      1.966423  1 C  s                 14      1.968154  1 C  s          
    30     -1.673488  1 C  dxx               35     -1.678827  1 C  dzz        
    33     -1.331591  1 C  dyy               24     -0.382995  1 C  dxx        
    29     -0.383222  1 C  dzz               27     -0.368439  1 C  dyy        
    31     -0.243774  1 C  dxy                2     -0.235387  1 C  s          
 
 Vector   14  Occ=0.000000D+00  E= 3.603238D-01
              MO Center=  7.2D-16,  5.0D-16, -1.5D-15, r^2= 3.1D+00
   Bfn.  Coefficient  Atom+Function         Bfn.  Coefficient  Atom+Function  
  ----- ------------  ---------------      ----- ------------  ---------------
    32      1.591329  1 C  dxz               34      0.519999  1 C  dyz        
    31     -0.373733  1 C  dxy               30      0.155233  1 C  dxx        
    33     -0.137090  1 C  dyy               20      0.026240  1 C  dxz        
 
 Vector   15  Occ=0.000000D+00  E= 3.603238D-01
              MO Center= -1.8D-17,  1.3D-16, -8.1D-16, r^2= 3.1D+00
   Bfn.  Coefficient  Atom+Function         Bfn.  Coefficient  Atom+Function  
  ----- ------------  ---------------      ----- ------------  ---------------
    35     -0.805390  1 C  dzz               30      0.780057  1 C  dxx        
    31      0.551222  1 C  dxy               34      0.422890  1 C  dyz        
    32     -0.174918  1 C  dxz               33      0.025334  1 C  dyy        
 
 Vector   16  Occ=0.000000D+00  E= 5.437090D-01
              MO Center= -6.4D-15,  1.8D-14,  6.5D-15, r^2= 3.8D+00
   Bfn.  Coefficient  Atom+Function         Bfn.  Coefficient  Atom+Function  
  ----- ------------  ---------------      ----- ------------  ---------------
    12      1.482492  1 C  py                 8     -0.894193  1 C  py         
    16     -0.673594  1 C  py                11     -0.474384  1 C  px         
    13      0.440725  1 C  pz                 7      0.286133  1 C  px         
     9     -0.265831  1 C  pz                 4     -0.216766  1 C  py         
    15      0.215544  1 C  px                17     -0.200250  1 C  pz         
 
 Vector   17  Occ=0.000000D+00  E= 5.768298D-01
              MO Center=  5.9D-16,  3.3D-15,  4.3D-15, r^2= 3.6D+00
   Bfn.  Coefficient  Atom+Function         Bfn.  Coefficient  Atom+Function  
  ----- ------------  ---------------      ----- ------------  ---------------
    13      1.434865  1 C  pz                 9     -0.891611  1 C  pz         
    11      0.650140  1 C  px                17     -0.639154  1 C  pz         
     7     -0.403991  1 C  px                15     -0.289602  1 C  px         
     5     -0.223705  1 C  pz                12     -0.218527  1 C  py         
     8      0.135791  1 C  py                 3     -0.101361  1 C  px         
 
 Vector   18  Occ=0.000000D+00  E= 5.768298D-01
              MO Center= -1.2D-15,  2.8D-15,  1.0D-15, r^2= 3.6D+00
   Bfn.  Coefficient  Atom+Function         Bfn.  Coefficient  Atom+Function  
  ----- ------------  ---------------      ----- ------------  ---------------
    11      1.374445  1 C  px                 7     -0.854067  1 C  px         
    15     -0.612240  1 C  px                12      0.597880  1 C  py         
    13     -0.531708  1 C  pz                 8     -0.371517  1 C  py         
     9      0.330399  1 C  pz                16     -0.266323  1 C  py         
    17      0.236847  1 C  pz                 3     -0.214285  1 C  px         
 
 Vector   19  Occ=0.000000D+00  E= 1.163541D+00
              MO Center= -1.4D-16, -2.3D-16, -2.0D-17, r^2= 3.5D+00
   Bfn.  Coefficient  Atom+Function         Bfn.  Coefficient  Atom+Function  
  ----- ------------  ---------------      ----- ------------  ---------------
    10      7.993815  1 C  s                  6     -2.666823  1 C  s          
    30     -2.498423  1 C  dxx               33     -2.491493  1 C  dyy        
    35     -2.498531  1 C  dzz               14      1.347842  1 C  s          
    27     -1.094439  1 C  dyy               24     -1.067586  1 C  dxx        
    29     -1.067167  1 C  dzz               21     -0.252538  1 C  dyy        
 
 Vector   20  Occ=0.000000D+00  E= 1.578448D+00
              MO Center=  1.9D-16, -1.1D-15, -5.2D-16, r^2= 1.2D+00
   Bfn.  Coefficient  Atom+Function         Bfn.  Coefficient  Atom+Function  
  ----- ------------  ---------------      ----- ------------  ---------------
    25      0.905502  1 C  dxy               27     -0.851259  1 C  dyy        
    28     -0.841253  1 C  dyz               29      0.438582  1 C  dzz        
    31     -0.421546  1 C  dxy               33      0.423294  1 C  dyy        
    24      0.418752  1 C  dxx               34      0.391636  1 C  dyz        
    26      0.269193  1 C  dxz               35     -0.177177  1 C  dzz        
 
 Vector   21  Occ=0.000000D+00  E= 1.595465D+00
              MO Center=  6.0D-16, -1.3D-15,  6.3D-16, r^2= 1.2D+00
   Bfn.  Coefficient  Atom+Function         Bfn.  Coefficient  Atom+Function  
  ----- ------------  ---------------      ----- ------------  ---------------
    28      1.572622  1 C  dyz               34     -0.727666  1 C  dyz        
    25      0.649375  1 C  dxy               29      0.495885  1 C  dzz        
    26     -0.371239  1 C  dxz               27     -0.320955  1 C  dyy        
    31     -0.300471  1 C  dxy               35     -0.229450  1 C  dzz        
    24     -0.174930  1 C  dxx               32      0.171775  1 C  dxz        
 
 Vector   22  Occ=0.000000D+00  E= 1.595465D+00
              MO Center=  8.5D-16, -9.5D-16, -3.7D-16, r^2= 1.2D+00
   Bfn.  Coefficient  Atom+Function         Bfn.  Coefficient  Atom+Function  
  ----- ------------  ---------------      ----- ------------  ---------------
    25      1.411854  1 C  dxy               31     -0.653278  1 C  dxy        
    27      0.638067  1 C  dyy               26      0.610613  1 C  dxz        
    24     -0.517115  1 C  dxx               33     -0.295239  1 C  dyy        
    32     -0.282536  1 C  dxz               30      0.239274  1 C  dxx        
    28     -0.217166  1 C  dyz               29     -0.120952  1 C  dzz        
 
 Vector   23  Occ=0.000000D+00  E= 1.640725D+00
              MO Center=  1.5D-17, -6.3D-16, -1.4D-15, r^2= 1.1D+00
   Bfn.  Coefficient  Atom+Function         Bfn.  Coefficient  Atom+Function  
  ----- ------------  ---------------      ----- ------------  ---------------
    26      1.453100  1 C  dxz               28      0.740032  1 C  dyz        
    32     -0.660373  1 C  dxz               24      0.582117  1 C  dxx        
    29     -0.462606  1 C  dzz               34     -0.336313  1 C  dyz        
    30     -0.264548  1 C  dxx               35      0.210235  1 C  dzz        
    27     -0.119511  1 C  dyy               25     -0.059442  1 C  dxy        
 
 Vector   24  Occ=0.000000D+00  E= 1.640725D+00
              MO Center=  6.4D-16, -1.2D-15, -3.2D-16, r^2= 1.1D+00
   Bfn.  Coefficient  Atom+Function         Bfn.  Coefficient  Atom+Function  
  ----- ------------  ---------------      ----- ------------  ---------------
    26      1.049475  1 C  dxz               29      0.774314  1 C  dzz        
    25     -0.743283  1 C  dxy               24     -0.673908  1 C  dxx        
    32     -0.476942  1 C  dxz               35     -0.351893  1 C  dzz        
    31      0.337791  1 C  dxy               30      0.306263  1 C  dxx        
    28     -0.124563  1 C  dyz               27     -0.100406  1 C  dyy        
 
 Vector   25  Occ=0.000000D+00  E= 2.659410D+00
              MO Center=  8.9D-16, -2.1D-15, -6.5D-16, r^2= 9.4D-01
   Bfn.  Coefficient  Atom+Function         Bfn.  Coefficient  Atom+Function  
  ----- ------------  ---------------      ----- ------------  ---------------
     4      1.075943  1 C  py                 8     -0.885154  1 C  py         
    12      0.726063  1 C  py                 3     -0.344294  1 C  px         
    42     -0.343567  1 C  fyyy               5      0.319865  1 C  pz         
     7      0.283243  1 C  px                 9     -0.263146  1 C  pz         
    16     -0.244141  1 C  py                11     -0.232335  1 C  px         
 
 Vector   26  Occ=0.000000D+00  E= 2.705650D+00
              MO Center=  1.1D-16, -2.5D-16,  9.4D-16, r^2= 9.3D-01
   Bfn.  Coefficient  Atom+Function         Bfn.  Coefficient  Atom+Function  
  ----- ------------  ---------------      ----- ------------  ---------------
     5      1.054172  1 C  pz                 9     -0.878279  1 C  pz         
    13      0.704671  1 C  pz                 3      0.503243  1 C  px         
     7     -0.419275  1 C  px                43     -0.420950  1 C  fyyz       
    11      0.336397  1 C  px                45     -0.246096  1 C  fzzz       
    17     -0.236312  1 C  pz                38     -0.229830  1 C  fxxz       
 
 Vector   27  Occ=0.000000D+00  E= 2.705650D+00
              MO Center=  1.1D-15,  8.7D-16,  5.2D-16, r^2= 9.3D-01
   Bfn.  Coefficient  Atom+Function         Bfn.  Coefficient  Atom+Function  
  ----- ------------  ---------------      ----- ------------  ---------------
     3      1.007551  1 C  px                 7     -0.839437  1 C  px         
    11      0.673507  1 C  px                 4      0.446228  1 C  py         
     5     -0.416494  1 C  pz                 8     -0.371773  1 C  py         
    39     -0.362358  1 C  fxyy               9      0.347000  1 C  pz         
    12      0.298285  1 C  py                13     -0.278409  1 C  pz         
 
 Vector   28  Occ=0.000000D+00  E= 2.846664D+00
              MO Center= -1.9D-16,  1.7D-15,  9.0D-16, r^2= 7.9D-01
   Bfn.  Coefficient  Atom+Function         Bfn.  Coefficient  Atom+Function  
  ----- ------------  ---------------      ----- ------------  ---------------
    39      1.392285  1 C  fxyy              43     -1.293501  1 C  fyyz       
    40      1.093307  1 C  fxyz              44      0.887535  1 C  fyzz       
    37      0.807001  1 C  fxxy              42     -0.520067  1 C  fyyy       
    36     -0.383756  1 C  fxxx              45      0.364508  1 C  fzzz       
    41     -0.284003  1 C  fxzz              38      0.239911  1 C  fxxz       
 
 Vector   29  Occ=0.000000D+00  E= 2.854053D+00
              MO Center= -7.7D-16,  1.7D-15,  6.8D-16, r^2= 7.9D-01
   Bfn.  Coefficient  Atom+Function         Bfn.  Coefficient  Atom+Function  
  ----- ------------  ---------------      ----- ------------  ---------------
    44     -1.568417  1 C  fyzz              40      1.533945  1 C  fxyz       
    43     -1.350058  1 C  fyyz              42      0.595308  1 C  fyyy       
    41      0.425276  1 C  fxzz              45      0.388725  1 C  fzzz       
    39     -0.338727  1 C  fxyy              38      0.312102  1 C  fxxz       
    37     -0.259418  1 C  fxxy               5     -0.099566  1 C  pz         
 
 Vector   30  Occ=0.000000D+00  E= 2.854053D+00
              MO Center=  3.5D-16,  1.1D-15,  5.8D-16, r^2= 7.9D-01
   Bfn.  Coefficient  Atom+Function         Bfn.  Coefficient  Atom+Function  
  ----- ------------  ---------------      ----- ------------  ---------------
    37      1.654980  1 C  fxxy              39     -1.415274  1 C  fxyy       
    40     -1.045407  1 C  fxyz              43     -0.715244  1 C  fyyz       
    38      0.527799  1 C  fxxz              42     -0.488172  1 C  fyyy       
    41      0.474137  1 C  fxzz              36      0.356685  1 C  fxxx       
    44     -0.156096  1 C  fyzz               3     -0.100109  1 C  px         
 
 Vector   31  Occ=0.000000D+00  E= 2.874190D+00
              MO Center= -5.3D-16,  9.7D-16,  2.0D-16, r^2= 7.9D-01
   Bfn.  Coefficient  Atom+Function         Bfn.  Coefficient  Atom+Function  
  ----- ------------  ---------------      ----- ------------  ---------------
    40      1.423536  1 C  fxyz              37      1.313897  1 C  fxxy       
    43      1.294327  1 C  fyyz              41      0.933900  1 C  fxzz       
    44     -0.916636  1 C  fyzz              36     -0.462562  1 C  fxxx       
    39      0.453786  1 C  fxyy              45     -0.390375  1 C  fzzz       
    42     -0.132420  1 C  fyyy              38     -0.123203  1 C  fxxz       
 
 Vector   32  Occ=0.000000D+00  E= 2.874190D+00
              MO Center= -2.1D-16,  1.6D-15,  1.5D-16, r^2= 7.9D-01
   Bfn.  Coefficient  Atom+Function         Bfn.  Coefficient  Atom+Function  
  ----- ------------  ---------------      ----- ------------  ---------------
    40      2.289455  1 C  fxyz              39     -1.213843  1 C  fxyy       
    38     -1.105112  1 C  fxxz              44      1.076311  1 C  fyzz       
    41      0.507563  1 C  fxzz              37     -0.321548  1 C  fxxy       
    45      0.293516  1 C  fzzz              42     -0.251588  1 C  fyyy       
    36      0.235427  1 C  fxxx              43      0.224564  1 C  fyyz       
 
 Vector   33  Occ=0.000000D+00  E= 2.907803D+00
              MO Center= -3.4D-16, -3.5D-16,  8.1D-16, r^2= 7.9D-01
   Bfn.  Coefficient  Atom+Function         Bfn.  Coefficient  Atom+Function  
  ----- ------------  ---------------      ----- ------------  ---------------
    40      1.746220  1 C  fxyz              38      1.438502  1 C  fxxz       
    41     -1.388564  1 C  fxzz              45     -0.566586  1 C  fzzz       
    36      0.539725  1 C  fxxx              43      0.261257  1 C  fyyz       
    39     -0.230613  1 C  fxyy              37      0.090475  1 C  fxxy       
    44      0.060987  1 C  fyzz              42     -0.050487  1 C  fyyy       
 
 Vector   34  Occ=0.000000D+00  E= 2.907803D+00
              MO Center= -1.1D-16, -1.5D-16,  3.7D-16, r^2= 7.9D-01
   Bfn.  Coefficient  Atom+Function         Bfn.  Coefficient  Atom+Function  
  ----- ------------  ---------------      ----- ------------  ---------------
    41      1.574275  1 C  fxzz              38      1.510345  1 C  fxxz       
    44      0.876730  1 C  fyzz              37     -0.862945  1 C  fxxy       
    36     -0.431199  1 C  fxxx              45     -0.418199  1 C  fzzz       
    39     -0.280679  1 C  fxyy              43     -0.255749  1 C  fyyz       
    40      0.030573  1 C  fxyz       
 
 Vector   35  Occ=0.000000D+00  E= 3.202087D+00
              MO Center= -2.2D-15,  1.8D-15,  1.1D-15, r^2= 1.7D+00
   Bfn.  Coefficient  Atom+Function         Bfn.  Coefficient  Atom+Function  
  ----- ------------  ---------------      ----- ------------  ---------------
    10      7.812257  1 C  s                  6      3.981501  1 C  s          
    24     -3.526428  1 C  dxx               27     -3.522496  1 C  dyy        
    29     -3.526489  1 C  dzz               30     -1.978831  1 C  dxx        
    33     -1.980023  1 C  dyy               35     -1.978813  1 C  dzz        
     2     -1.504381  1 C  s                 18     -0.841603  1 C  dxx        
 
 Vector   36  Occ=0.000000D+00  E= 7.027204D+00
              MO Center= -5.8D-17,  4.4D-16,  1.0D-16, r^2= 3.4D-01
   Bfn.  Coefficient  Atom+Function         Bfn.  Coefficient  Atom+Function  
  ----- ------------  ---------------      ----- ------------  ---------------
    19      0.920938  1 C  dxy               21     -0.882581  1 C  dyy        
    22     -0.855595  1 C  dyz               25     -0.497070  1 C  dxy        
    28      0.461802  1 C  dyz               23      0.429205  1 C  dzz        
    27      0.430202  1 C  dyy               18      0.409037  1 C  dxx        
    29     -0.277827  1 C  dzz               20      0.273789  1 C  dxz        
 
 Vector   37  Occ=0.000000D+00  E= 7.040100D+00
              MO Center= -3.2D-16,  5.0D-16, -3.0D-16, r^2= 3.4D-01
   Bfn.  Coefficient  Atom+Function         Bfn.  Coefficient  Atom+Function  
  ----- ------------  ---------------      ----- ------------  ---------------
    22      1.554422  1 C  dyz               19      0.844922  1 C  dxy        
    28     -0.838056  1 C  dyz               23      0.483055  1 C  dzz        
    25     -0.455534  1 C  dxy               20     -0.291302  1 C  dxz        
    29     -0.260436  1 C  dzz               34      0.253173  1 C  dyz        
    18     -0.246101  1 C  dxx               21     -0.236953  1 C  dyy        
 
 Vector   38  Occ=0.000000D+00  E= 7.040100D+00
              MO Center= -3.5D-16, -1.8D-16,  1.5D-16, r^2= 3.4D-01
   Bfn.  Coefficient  Atom+Function         Bfn.  Coefficient  Atom+Function  
  ----- ------------  ---------------      ----- ------------  ---------------
    19      1.334053  1 C  dxy               25     -0.719246  1 C  dxy        
    21      0.686017  1 C  dyy               20      0.665155  1 C  dxz        
    18     -0.497140  1 C  dxx               22     -0.431362  1 C  dyz        
    27     -0.369862  1 C  dyy               26     -0.358614  1 C  dxz        
    24      0.268030  1 C  dxx               28      0.232566  1 C  dyz        
 
 Vector   39  Occ=0.000000D+00  E= 7.078028D+00
              MO Center=  3.0D-16,  9.5D-17, -1.3D-16, r^2= 3.4D-01
   Bfn.  Coefficient  Atom+Function         Bfn.  Coefficient  Atom+Function  
  ----- ------------  ---------------      ----- ------------  ---------------
    18      0.903768  1 C  dxx               23     -0.906795  1 C  dzz        
    22      0.570683  1 C  dyz               19      0.549107  1 C  dxy        
    24     -0.486017  1 C  dxx               29      0.487644  1 C  dzz        
    28     -0.306894  1 C  dyz               25     -0.295291  1 C  dxy        
    30      0.146487  1 C  dxx               35     -0.146978  1 C  dzz        
 
 Vector   40  Occ=0.000000D+00  E= 7.078028D+00
              MO Center= -1.4D-16, -3.7D-18, -1.2D-16, r^2= 3.4D-01
   Bfn.  Coefficient  Atom+Function         Bfn.  Coefficient  Atom+Function  
  ----- ------------  ---------------      ----- ------------  ---------------
    20      1.817447  1 C  dxz               26     -0.977363  1 C  dxz        
    19     -0.521327  1 C  dxy               22      0.504978  1 C  dyz        
    32      0.294581  1 C  dxz               25      0.280352  1 C  dxy        
    28     -0.271561  1 C  dyz               21     -0.158473  1 C  dyy        
    23      0.128817  1 C  dzz               27      0.085221  1 C  dyy        
 
 Vector   41  Occ=0.000000D+00  E= 8.265935D+00
              MO Center=  4.7D-16, -8.2D-16, -6.5D-17, r^2= 1.7D+00
   Bfn.  Coefficient  Atom+Function         Bfn.  Coefficient  Atom+Function  
  ----- ------------  ---------------      ----- ------------  ---------------
     8     13.545949  1 C  py                37     -7.153151  1 C  fxxy       
    42     -7.152993  1 C  fyyy              44     -7.153161  1 C  fyzz       
     7     -4.334610  1 C  px                 9      4.027056  1 C  pz         
     4     -3.205170  1 C  py                36      2.288974  1 C  fxxx       
    39      2.288762  1 C  fxyy              41      2.288962  1 C  fxzz       
 
 Vector   42  Occ=0.000000D+00  E= 8.299832D+00
              MO Center= -6.2D-16, -7.1D-17, -7.6D-16, r^2= 1.7D+00
   Bfn.  Coefficient  Atom+Function         Bfn.  Coefficient  Atom+Function  
  ----- ------------  ---------------      ----- ------------  ---------------
     9     12.889735  1 C  pz                 7      7.061206  1 C  px         
    38     -6.807309  1 C  fxxz              43     -6.806756  1 C  fyyz       
    45     -6.807255  1 C  fzzz              36     -3.729120  1 C  fxxx       
    39     -3.728781  1 C  fxyy              41     -3.729238  1 C  fxzz       
     5     -3.048591  1 C  pz                 3     -1.670067  1 C  px         
 
 Vector   43  Occ=0.000000D+00  E= 8.299832D+00
              MO Center= -4.0D-15, -1.7D-15,  1.9D-15, r^2= 1.7D+00
   Bfn.  Coefficient  Atom+Function         Bfn.  Coefficient  Atom+Function  
  ----- ------------  ---------------      ----- ------------  ---------------
     7     12.240536  1 C  px                36     -6.464396  1 C  fxxx       
    39     -6.464057  1 C  fxyy              41     -6.464351  1 C  fxzz       
     9     -6.009784  1 C  pz                 8      5.703527  1 C  py         
    38      3.173742  1 C  fxxz              43      3.173757  1 C  fyyz       
    45      3.173854  1 C  fzzz              37     -3.012473  1 C  fxxy       
 
 Vector   44  Occ=0.000000D+00  E= 8.816205D+00
              MO Center=  4.2D-15,  3.7D-15, -1.0D-15, r^2= 1.0D+00
   Bfn.  Coefficient  Atom+Function         Bfn.  Coefficient  Atom+Function  
  ----- ------------  ---------------      ----- ------------  ---------------
     6     13.688022  1 C  s                 10      5.768851  1 C  s          
    24     -5.433927  1 C  dxx               27     -5.437574  1 C  dyy        
    29     -5.433870  1 C  dzz                2     -3.318043  1 C  s          
    18     -3.163347  1 C  dxx               21     -3.159528  1 C  dyy        
    23     -3.163406  1 C  dzz               30     -1.421388  1 C  dxx        
 
 Vector   45  Occ=0.000000D+00  E= 2.902689D+01
              MO Center=  7.5D-17, -3.1D-17,  9.0D-19, r^2= 9.1D-02
   Bfn.  Coefficient  Atom+Function         Bfn.  Coefficient  Atom+Function  
  ----- ------------  ---------------      ----- ------------  ---------------
     6      4.164228  1 C  s                  1     -1.999835  1 C  s          
     2      1.540609  1 C  s                 24     -1.227537  1 C  dxx        
    27     -1.227442  1 C  dyy               29     -1.227539  1 C  dzz        
    18     -1.141952  1 C  dxx               21     -1.141760  1 C  dyy        
    23     -1.141955  1 C  dzz               10      0.523957  1 C  s          
 

   alpha - beta orbital overlaps 
   ----------------------------- 


   alpha      1      2      3      4      5      6      7      8      9     10
    beta      1      2      5      4      3      6      9      8      7     15
 overlap   1.000  0.998  0.985  0.985  0.999  0.999  0.983  0.983  0.999  0.998


   alpha     11     12     13     14     15     16     17     18     19     20
    beta     14     12     11     13     10     18     17     16     19     21
 overlap   0.998  0.995  0.995  0.975  0.976  0.995  0.995  1.000  0.998  0.895


   alpha     21     22     23     24     25     26     27     28     29     30
    beta     22     24     23     20     27     26     25     29     30     28
 overlap   0.895  0.821  0.821  0.998  0.992  0.992  0.999  0.713  0.713  0.999


   alpha     31     32     33     34     35     36     37     38     39     40
    beta     31     32     33     34     35     39     40     38     37     36
 overlap   0.851  0.851  1.000  1.000  1.000  0.994  0.994  0.875  0.875  1.000


   alpha     41     42     43     44     45
    beta     41     42     43     44     45
 overlap   1.000  0.986  0.986  1.000  1.000

     --------------------------
     Expectation value of S2:  
     --------------------------
      <S2> =      2.0042 (Exact =     2.0000)
 

 Parallel integral file used      16 records with       0 large values


 Task  times  cpu:        1.5s     wall:        2.8s
 
 
                                NWChem Input Module
                                -------------------
 
 
 Summary of allocated global arrays
-----------------------------------
  No active global arrays



                         GA Statistics for process    0
                         ------------------------------

       create   destroy   get      put      acc     scatter   gather  read&inc
calls:  221      221      813      500      154        0        0       28     
number of processes/call 1.62e+00 1.45e+00 3.84e+00 0.00e+00 0.00e+00
bytes total:             7.37e+06 2.80e+06 2.49e+06 0.00e+00 0.00e+00 2.24e+02
bytes remote:            5.01e+05 8.93e+04 5.71e+05 0.00e+00 0.00e+00 0.00e+00
Max memory consumed for GA by this process: 1053000 bytes
 
MA_summarize_allocated_blocks: starting scan ...
MA_summarize_allocated_blocks: scan completed: 0 heap blocks, 0 stack blocks
MA usage statistics:

	allocation statistics:
					      heap	     stack
					      ----	     -----
	current number of blocks	         0	         0
	maximum number of blocks	        21	        53
	current total bytes		         0	         0
	maximum total bytes		   1787144	  22512568
	maximum total K-bytes		      1788	     22513
	maximum total M-bytes		         2	        23
 
 
                                     CITATION
                                     --------
                Please cite the following reference when publishing
                           results obtained with NWChem:
 
                 M. Valiev, E.J. Bylaska, N. Govind, K. Kowalski,
              T.P. Straatsma, H.J.J. van Dam, D. Wang, J. Nieplocha,
                        E. Apra, T.L. Windus, W.A. de Jong
                 "NWChem: a comprehensive and scalable open-source
                  solution for large scale molecular simulations"
                      Comput. Phys. Commun. 181, 1477 (2010)
                           doi:10.1016/j.cpc.2010.04.018
 
                                      AUTHORS
                                      -------
          E. Apra, E. J. Bylaska, W. A. de Jong, N. Govind, K. Kowalski,
       T. P. Straatsma, M. Valiev, H. J. J. van Dam, D. Wang, T. L. Windus,
        J. Hammond, J. Autschbach, K. Bhaskaran-Nair, J. Brabec, K. Lopata,
    S. A. Fischer, S. Krishnamoorthy, M. Jacquelin, W. Ma, M. Klemm, O. Villa,
      Y. Chen, V. Anisimov, F. Aquino, S. Hirata, M. T. Hackler, V. Konjkov,
            D. Mejia-Rodriguez, T. Risthaus, M. Malagoli, A. Marenich,
   A. Otero-de-la-Roza, J. Mullin, P. Nichols, R. Peverati, J. Pittner, Y. Zhao,
        P.-D. Fan, A. Fonari, M. J. Williamson, R. J. Harrison, J. R. Rehr,
      M. Dupuis, D. Silverstein, D. M. A. Smith, J. Nieplocha, V. Tipparaju,
    M. Krishnan, B. E. Van Kuiken, A. Vazquez-Mayagoitia, L. Jensen, M. Swart,
      Q. Wu, T. Van Voorhis, A. A. Auer, M. Nooijen, L. D. Crosby, E. Brown,
      G. Cisneros, G. I. Fann, H. Fruchtl, J. Garza, K. Hirao, R. A. Kendall,
      J. A. Nichols, K. Tsemekhman, K. Wolinski, J. Anchell, D. E. Bernholdt,
      P. Borowski, T. Clark, D. Clerc, H. Dachsel, M. J. O. Deegan, K. Dyall,
    D. Elwood, E. Glendening, M. Gutowski, A. C. Hess, J. Jaffe, B. G. Johnson,
     J. Ju, R. Kobayashi, R. Kutteh, Z. Lin, R. Littlefield, X. Long, B. Meng,
      T. Nakajima, S. Niu, L. Pollack, M. Rosing, K. Glaesemann, G. Sandrone,
      M. Stave, H. Taylor, G. Thomas, J. H. van Lenthe, A. T. Wong, Z. Zhang.

 Total times  cpu:        1.5s     wall:        3.6s
