  NWChem w/ OpenMP: maximum threads =  1
                                         
                                         
 
 
              Northwest Computational Chemistry Package (NWChem) 6.8
              ------------------------------------------------------
 
 
                    Environmental Molecular Sciences Laboratory
                       Pacific Northwest National Laboratory
                                Richland, WA 99352
 
                              Copyright (c) 1994-2018
                       Pacific Northwest National Laboratory
                            Battelle Memorial Institute
 
             NWChem is an open-source computational chemistry package
                        distributed under the terms of the
                      Educational Community License (ECL) 2.0
             A copy of the license is included with this distribution
                              in the LICENSE.TXT file
 
                                  ACKNOWLEDGMENT
                                  --------------

            This software and its documentation were developed at the
            EMSL at Pacific Northwest National Laboratory, a multiprogram
            national laboratory, operated for the U.S. Department of Energy
            by Battelle under Contract Number DE-AC05-76RL01830. Support
            for this work was provided by the Department of Energy Office
            of Biological and Environmental Research, Office of Basic
            Energy Sciences, and the Office of Advanced Scientific Computing.


           Job information
           ---------------

    hostname        = r8n4.niserhpc.org
    program         = /home/rabeet/nwchem-6.8/bin/LINUX64/nwchem
    date            = Sun Oct 27 08:43:33 2019

    compiled        = Fri_Jun_28_18:24:12_2019
    source          = /home/rabeet/nwchem-6.8
    nwchem branch   = Development
    nwchem revision = N/A
    ga revision     = 5.6.5
    use scalapack   = T
    input           = nwchem.nw
    prefix          = O.
    data base       = ./O.db
    status          = startup
    nproc           =       16
    time left       =     -1s



           Memory information
           ------------------

    heap     =   13107198 doubles =    100.0 Mbytes
    stack    =   13107195 doubles =    100.0 Mbytes
    global   =   26214400 doubles =    200.0 Mbytes (distinct from heap & stack)
    total    =   52428793 doubles =    400.0 Mbytes
    verify   = yes
    hardfail = no 


           Directory information
           ---------------------
 
  0 permanent = .
  0 scratch   = .
 
 
 
 
                                NWChem Input Module
                                -------------------
 
 

 Scaling coordinates for geometry "geometry" by  1.889725989
 (inverse scale =  0.529177249)

 
 
                             Geometry "geometry" -> ""
                             -------------------------
 
 Output coordinates in angstroms (scale by  1.889725989 to convert to a.u.)
 
  No.       Tag          Charge          X              Y              Z
 ---- ---------------- ---------- -------------- -------------- --------------
    1 O                    8.0000     0.00000000     0.00000000     0.00000000
 
      Atomic Mass 
      ----------- 
 
      O                 15.994910
 

 Effective nuclear repulsion energy (a.u.)       0.0000000000

            Nuclear Dipole moment (a.u.) 
            ----------------------------
        X                 Y               Z
 ---------------- ---------------- ----------------
     0.0000000000     0.0000000000     0.0000000000
 
 
            XYZ format geometry
            -------------------
     1
 geometry
 O                     0.00000000     0.00000000     0.00000000
 


 Summary of "ao basis" -> "" (cartesian)
 ------------------------------------------------------------------------------
       Tag                 Description            Shells   Functions and Types
 ---------------- ------------------------------  ------  ---------------------
 *                     6-311++G(3df,3pd)              on all atoms 


 
                                 NWChem DFT Module
                                 -----------------
 
 
                      Basis "ao basis" -> "ao basis" (cartesian)
                      -----
  O (Oxygen)
  ----------
            Exponent  Coefficients 
       -------------- ---------------------------------------------------------
  1 S  8.58850000E+03  0.001895
  1 S  1.29723000E+03  0.014386
  1 S  2.99296000E+02  0.070732
  1 S  8.73771000E+01  0.240001
  1 S  2.56789000E+01  0.594797
  1 S  3.74004000E+00  0.280802
 
  2 S  4.21175000E+01  0.113889
  2 S  9.62837000E+00  0.920811
  2 S  2.85332000E+00 -0.003274
 
  3 P  4.21175000E+01  0.036511
  3 P  9.62837000E+00  0.237153
  3 P  2.85332000E+00  0.819702
 
  4 S  9.05661000E-01  1.000000
 
  5 P  9.05661000E-01  1.000000
 
  6 S  2.55611000E-01  1.000000
 
  7 P  2.55611000E-01  1.000000
 
  8 S  8.45000000E-02  1.000000
 
  9 P  8.45000000E-02  1.000000
 
 10 D  5.16000000E+00  1.000000
 
 11 D  1.29200000E+00  1.000000
 
 12 D  3.22500000E-01  1.000000
 
 13 F  1.40000000E+00  1.000000
 


 Summary of "ao basis" -> "ao basis" (cartesian)
 ------------------------------------------------------------------------------
       Tag                 Description            Shells   Functions and Types
 ---------------- ------------------------------  ------  ---------------------
 O                     6-311++G(3df,3pd)            13       45   5s4p3d1f




 Summary of "ao basis" -> "ao basis" (cartesian)
 ------------------------------------------------------------------------------
       Tag                 Description            Shells   Functions and Types
 ---------------- ------------------------------  ------  ---------------------
 O                     6-311++G(3df,3pd)            13       45   5s4p3d1f


  Caching 1-el integrals 
 
            General Information
            -------------------
          SCF calculation type: DFT
          Wavefunction type:  spin polarized.
          No. of atoms     :     1
          No. of electrons :     8
           Alpha electrons :     5
            Beta electrons :     3
          Charge           :     0
          Spin multiplicity:     3
          Use of symmetry is: off; symmetry adaption is: off
          Maximum number of iterations: ***
          AO basis - number of functions:    45
                     number of shells:    13
          Convergence on energy requested:  1.00D-06
          Convergence on density requested:  1.00D-05
          Convergence on gradient requested:  5.00D-04
 
              XC Information
              --------------
                  TPSS metaGGA Exchange Functional  1.000          
             TPSS03 metaGGA Correlation Functional  1.000          
 
             Grid Information
             ----------------
          Grid used for XC integration:  medium    
          Radial quadrature: Mura-Knowles        
          Angular quadrature: Lebedev. 
          Tag              B.-S. Rad. Rad. Pts. Rad. Cut. Ang. Pts.
          ---              ---------- --------- --------- ---------
          O                   0.60       49           6.0       434
          Grid pruning is: on 
          Number of quadrature shells:    49
          Spatial weights used:  Erf1
 
          Convergence Information
          -----------------------
          Convergence aids based upon iterative change in 
          total energy or number of iterations. 
          Levelshifting, if invoked, occurs when the 
          HOMO/LUMO gap drops below (HL_TOL):  1.00D-02
          DIIS, if invoked, will attempt to extrapolate 
          using up to (NFOCK): 10 stored Fock matrices.

                    Damping( 0%)  Levelshifting(0.5)       DIIS
                  --------------- ------------------- ---------------
          dE  on:    start            ASAP                start   
          dE off:    2 iters        *** iters           *** iters 

 
      Screening Tolerance Information
      -------------------------------
          Density screening/tol_rho:  1.00D-10
          AO Gaussian exp screening on grid/accAOfunc:  14
          CD Gaussian exp screening on grid/accCDfunc:  20
          XC Gaussian exp screening on grid/accXCfunc:  20
          Schwarz screening/accCoul:  1.00D-08

 
      Superposition of Atomic Density Guess
      -------------------------------------
 
 Sum of atomic energies:         -74.77778571
 
      Non-variational initial energy
      ------------------------------

 Total energy =     -74.276656
 1-e energy   =    -103.202565
 2-e energy   =      28.925909
 HOMO         =      -0.377599
 LUMO         =      -0.377599
 
   Time after variat. SCF:      0.4
   Time prior to 1st pass:      0.4

 #quartets = 4.186D+03 #integrals = 9.141D+04 #direct =  0.0% #cached =100.0%


 Integral file          = ./O.aoints.00
 Record size in doubles =  65536        No. of integs per rec  =  43688
 Max. records in memory =      3        Max. records in file   = 523747
 No. of bits per label  =      8        No. of bits per value  =     64


File balance: exchanges=     0  moved=     0  time=   0.0


 Grid_pts file          = ./O.gridpts.00
 Record size in doubles =  12289        No. of grid_pts per rec  =   3070
 Max. records in memory =      2        Max. recs in file   =  54262735


           Memory utilization after 1st SCF pass: 
           Heap Space remaining (MW):       12.88            12883806
          Stack Space remaining (MW):       13.11            13106716

   convergence    iter        energy       DeltaE   RMS-Dens  Diis-err    time
 ---------------- ----- ----------------- --------- --------- ---------  ------
 d= 0,ls=0.0,diis     1    -75.0724516182 -7.51D+01  5.11D-03  1.61D-01     2.5
                                                     1.90D-03  5.88D-02
 d= 0,ls=0.0,diis     2    -75.0819963145 -9.54D-03  2.74D-03  7.44D-02     2.6
                                                     2.37D-03  4.62D-02
 d= 0,ls=0.0,diis     3    -75.1006724588 -1.87D-02  5.21D-04  3.20D-03     2.6
                                                     2.77D-04  1.08D-03
 d= 0,ls=0.0,diis     4    -75.1014274951 -7.55D-04  1.85D-05  4.24D-06     2.7
                                                     5.29D-05  1.04D-05
 d= 0,ls=0.0,diis     5    -75.1014306259 -3.13D-06  6.94D-06  2.93D-07     2.8
                                                     2.72D-06  2.84D-08
 d= 0,ls=0.0,diis     6    -75.1014306998 -7.38D-08  3.48D-07  1.54D-09     2.9
                                                     8.46D-07  3.08D-09


         Total DFT energy =      -75.101430699758
      One electron energy =     -103.202560318801
           Coulomb energy =       36.584645033340
          Exchange energy =       -8.247184116619
       Correlation energy =       -0.236331297678
 Nuclear repulsion energy =        0.000000000000

 Numeric. integr. density =        7.999999976014

     Total iterative time =      2.4s


 
                    DFT Final Alpha Molecular Orbital Analysis
                    ------------------------------------------
 
 Vector    1  Occ=1.000000D+00  E=-1.903121D+01
              MO Center=  9.5D-18, -2.6D-17, -1.1D-18, r^2= 1.5D-02
   Bfn.  Coefficient  Atom+Function         Bfn.  Coefficient  Atom+Function  
  ----- ------------  ---------------      ----- ------------  ---------------
     1      0.551108  1 O  s                  2      0.470427  1 O  s          
 
 Vector    2  Occ=1.000000D+00  E=-9.499075D-01
              MO Center= -2.2D-15,  1.8D-15, -1.2D-15, r^2= 4.3D-01
   Bfn.  Coefficient  Atom+Function         Bfn.  Coefficient  Atom+Function  
  ----- ------------  ---------------      ----- ------------  ---------------
    10      0.682007  1 O  s                  6      0.668957  1 O  s          
     2     -0.234882  1 O  s                  1     -0.129963  1 O  s          
    35     -0.078715  1 O  dzz               30     -0.075396  1 O  dxx        
    33     -0.073934  1 O  dyy               29     -0.053158  1 O  dzz        
    24     -0.046741  1 O  dxx               27     -0.043915  1 O  dyy        
 
 Vector    3  Occ=1.000000D+00  E=-4.057883D-01
              MO Center=  1.0D-15, -1.5D-15,  1.5D-15, r^2= 5.4D-01
   Bfn.  Coefficient  Atom+Function         Bfn.  Coefficient  Atom+Function  
  ----- ------------  ---------------      ----- ------------  ---------------
     8      0.325151  1 O  py                 9     -0.303307  1 O  pz         
    12      0.256071  1 O  py                13     -0.238867  1 O  pz         
     4      0.223636  1 O  py                 5     -0.208612  1 O  pz         
     7     -0.185118  1 O  px                11     -0.145788  1 O  px         
     3     -0.127322  1 O  px                16      0.025948  1 O  py         
 
 Vector    4  Occ=1.000000D+00  E=-4.057883D-01
              MO Center=  7.6D-16,  4.9D-16,  5.3D-16, r^2= 5.4D-01
   Bfn.  Coefficient  Atom+Function         Bfn.  Coefficient  Atom+Function  
  ----- ------------  ---------------      ----- ------------  ---------------
     7      0.364026  1 O  px                 8      0.299490  1 O  py         
    11      0.286687  1 O  px                 3      0.250374  1 O  px         
    12      0.235861  1 O  py                 4      0.205986  1 O  py         
     9      0.098882  1 O  pz                13      0.077874  1 O  pz         
     5      0.068010  1 O  pz                15      0.029050  1 O  px         
 
 Vector    5  Occ=1.000000D+00  E=-3.263834D-01
              MO Center=  7.0D-16, -4.5D-16, -2.7D-16, r^2= 6.0D-01
   Bfn.  Coefficient  Atom+Function         Bfn.  Coefficient  Atom+Function  
  ----- ------------  ---------------      ----- ------------  ---------------
     9      0.339665  1 O  pz                13      0.297715  1 O  pz         
     5      0.242643  1 O  pz                 7     -0.240356  1 O  px         
    11     -0.210672  1 O  px                 8      0.180004  1 O  py         
     3     -0.171701  1 O  px                12      0.157773  1 O  py         
     4      0.128588  1 O  py                17      0.050295  1 O  pz         
 
 Vector    6  Occ=0.000000D+00  E= 6.158805D-02
              MO Center=  2.0D-14,  4.1D-15, -6.6D-15, r^2= 4.2D+00
   Bfn.  Coefficient  Atom+Function         Bfn.  Coefficient  Atom+Function  
  ----- ------------  ---------------      ----- ------------  ---------------
    14      1.760873  1 O  s                  6     -0.363433  1 O  s          
    35     -0.307869  1 O  dzz               30     -0.304883  1 O  dxx        
    33     -0.303568  1 O  dyy               10     -0.211382  1 O  s          
    27     -0.068171  1 O  dyy               24     -0.067275  1 O  dxx        
    29     -0.065240  1 O  dzz                2      0.043068  1 O  s          
 
 Vector    7  Occ=0.000000D+00  E= 1.310184D-01
              MO Center= -1.0D-14, -1.3D-14, -8.5D-16, r^2= 4.9D+00
   Bfn.  Coefficient  Atom+Function         Bfn.  Coefficient  Atom+Function  
  ----- ------------  ---------------      ----- ------------  ---------------
    16      0.918025  1 O  py                15      0.786526  1 O  px         
    12     -0.304791  1 O  py                11     -0.261132  1 O  px         
     8     -0.114773  1 O  py                 7     -0.098333  1 O  px         
     4     -0.091448  1 O  py                 3     -0.078349  1 O  px         
    17      0.070069  1 O  pz         
 
 Vector    8  Occ=0.000000D+00  E= 1.310184D-01
              MO Center=  1.2D-16, -1.7D-16, -1.9D-16, r^2= 4.9D+00
   Bfn.  Coefficient  Atom+Function         Bfn.  Coefficient  Atom+Function  
  ----- ------------  ---------------      ----- ------------  ---------------
    17      0.798974  1 O  pz                15      0.659963  1 O  px         
    16     -0.626411  1 O  py                13     -0.265265  1 O  pz         
    11     -0.219113  1 O  px                12      0.207973  1 O  py         
     9     -0.099889  1 O  pz                 7     -0.082510  1 O  px         
     5     -0.079589  1 O  pz                 8      0.078315  1 O  py         
 
 Vector    9  Occ=0.000000D+00  E= 1.425027D-01
              MO Center= -5.7D-15,  4.2D-15,  7.9D-15, r^2= 4.9D+00
   Bfn.  Coefficient  Atom+Function         Bfn.  Coefficient  Atom+Function  
  ----- ------------  ---------------      ----- ------------  ---------------
    17      0.916577  1 O  pz                15     -0.648599  1 O  px         
    16      0.485734  1 O  py                13     -0.333785  1 O  pz         
    11      0.236197  1 O  px                12     -0.176887  1 O  py         
     9     -0.114776  1 O  pz                 5     -0.096313  1 O  pz         
     7      0.081219  1 O  px                 3      0.068154  1 O  px         
 
 Vector   10  Occ=0.000000D+00  E= 6.946162D-01
              MO Center=  7.0D-16, -6.9D-16,  8.0D-16, r^2= 1.5D+00
   Bfn.  Coefficient  Atom+Function         Bfn.  Coefficient  Atom+Function  
  ----- ------------  ---------------      ----- ------------  ---------------
    34      0.837670  1 O  dyz               32      0.763229  1 O  dxz        
    33     -0.660298  1 O  dyy               30      0.612214  1 O  dxx        
    31      0.194769  1 O  dxy               35      0.048082  1 O  dzz        
 
 Vector   11  Occ=0.000000D+00  E= 6.946163D-01
              MO Center=  9.4D-16,  2.0D-15, -3.8D-16, r^2= 1.5D+00
   Bfn.  Coefficient  Atom+Function         Bfn.  Coefficient  Atom+Function  
  ----- ------------  ---------------      ----- ------------  ---------------
    31      1.321971  1 O  dxy               34      0.622795  1 O  dyz        
    32     -0.589401  1 O  dxz               35     -0.373567  1 O  dzz        
    33      0.294998  1 O  dyy               30      0.078543  1 O  dxx        
 
 Vector   12  Occ=0.000000D+00  E= 7.009645D-01
              MO Center= -2.1D-15,  1.5D-15,  2.4D-15, r^2= 2.9D+00
   Bfn.  Coefficient  Atom+Function         Bfn.  Coefficient  Atom+Function  
  ----- ------------  ---------------      ----- ------------  ---------------
    10      2.243034  1 O  s                 14      1.691734  1 O  s          
    33     -1.694113  1 O  dyy               30     -1.639825  1 O  dxx        
    35     -1.516579  1 O  dzz               29     -0.350336  1 O  dzz        
    24     -0.347636  1 O  dxx               32     -0.349367  1 O  dxz        
    27     -0.346447  1 O  dyy               34      0.261636  1 O  dyz        
 
 Vector   13  Occ=0.000000D+00  E= 7.159333D-01
              MO Center= -1.9D-15,  1.2D-15,  2.5D-15, r^2= 1.5D+00
   Bfn.  Coefficient  Atom+Function         Bfn.  Coefficient  Atom+Function  
  ----- ------------  ---------------      ----- ------------  ---------------
    34      1.040179  1 O  dyz               32      0.756545  1 O  dxz        
    33      0.571657  1 O  dyy               30     -0.498947  1 O  dxx        
    31     -0.389675  1 O  dxy               35     -0.072721  1 O  dzz        
 
 Vector   14  Occ=0.000000D+00  E= 7.159333D-01
              MO Center= -1.7D-15,  1.3D-15,  2.5D-15, r^2= 1.5D+00
   Bfn.  Coefficient  Atom+Function         Bfn.  Coefficient  Atom+Function  
  ----- ------------  ---------------      ----- ------------  ---------------
    35      0.851830  1 O  dzz               31      0.790113  1 O  dxy        
    30     -0.592320  1 O  dxx               33     -0.259517  1 O  dyy        
    32      0.234264  1 O  dxz               34     -0.038279  1 O  dyz        
 
 Vector   15  Occ=0.000000D+00  E= 7.262287D-01
              MO Center= -8.8D-16,  5.3D-16,  1.2D-15, r^2= 1.6D+00
   Bfn.  Coefficient  Atom+Function         Bfn.  Coefficient  Atom+Function  
  ----- ------------  ---------------      ----- ------------  ---------------
    32      1.133988  1 O  dxz               34     -0.849245  1 O  dyz        
    35     -0.829898  1 O  dzz               10      0.721114  1 O  s          
    31      0.600952  1 O  dxy               14      0.509618  1 O  s          
    30     -0.429859  1 O  dxx               33     -0.253664  1 O  dyy        
    29     -0.110591  1 O  dzz               24     -0.107217  1 O  dxx        
 
 Vector   16  Occ=0.000000D+00  E= 8.990652D-01
              MO Center=  3.4D-15, -3.1D-15, -1.1D-15, r^2= 2.2D+00
   Bfn.  Coefficient  Atom+Function         Bfn.  Coefficient  Atom+Function  
  ----- ------------  ---------------      ----- ------------  ---------------
    13      1.087963  1 O  pz                12     -0.925019  1 O  py         
    11      0.844727  1 O  px                17     -0.548723  1 O  pz         
    16      0.466541  1 O  py                 9     -0.449916  1 O  pz         
    15     -0.426046  1 O  px                 8      0.382532  1 O  py         
     7     -0.349328  1 O  px                 5     -0.189710  1 O  pz         
 
 Vector   17  Occ=0.000000D+00  E= 8.990652D-01
              MO Center= -8.6D-16, -1.3D-15, -3.1D-15, r^2= 2.2D+00
   Bfn.  Coefficient  Atom+Function         Bfn.  Coefficient  Atom+Function  
  ----- ------------  ---------------      ----- ------------  ---------------
    12      1.209658  1 O  py                11      1.124981  1 O  px         
    16     -0.610102  1 O  py                15     -0.567394  1 O  px         
     8     -0.500242  1 O  py                 7     -0.465224  1 O  px         
     4     -0.210931  1 O  py                 3     -0.196165  1 O  px         
    13      0.155019  1 O  pz                17     -0.078185  1 O  pz         
 
 Vector   18  Occ=0.000000D+00  E= 9.373558D-01
              MO Center=  3.3D-15, -2.7D-15, -5.1D-15, r^2= 2.1D+00
   Bfn.  Coefficient  Atom+Function         Bfn.  Coefficient  Atom+Function  
  ----- ------------  ---------------      ----- ------------  ---------------
    13      1.233883  1 O  pz                11     -0.873132  1 O  px         
    12      0.653889  1 O  py                17     -0.612654  1 O  pz         
     9     -0.515091  1 O  pz                15      0.433532  1 O  px         
     7      0.364493  1 O  px                16     -0.324672  1 O  py         
     8     -0.272969  1 O  py                 5     -0.222492  1 O  pz         
 
 Vector   19  Occ=0.000000D+00  E= 2.416346D+00
              MO Center=  7.6D-16, -4.6D-16,  1.4D-16, r^2= 1.6D+00
   Bfn.  Coefficient  Atom+Function         Bfn.  Coefficient  Atom+Function  
  ----- ------------  ---------------      ----- ------------  ---------------
    10     10.261572  1 O  s                  6     -3.442667  1 O  s          
    30     -3.320148  1 O  dxx               33     -3.320123  1 O  dyy        
    35     -3.320206  1 O  dzz               14      1.039325  1 O  s          
    24     -0.981925  1 O  dxx               27     -0.983892  1 O  dyy        
    29     -0.977459  1 O  dzz               18     -0.232303  1 O  dxx        
 
 Vector   20  Occ=0.000000D+00  E= 3.143251D+00
              MO Center=  3.5D-16,  5.5D-16, -5.0D-16, r^2= 5.8D-01
   Bfn.  Coefficient  Atom+Function         Bfn.  Coefficient  Atom+Function  
  ----- ------------  ---------------      ----- ------------  ---------------
    26      0.925446  1 O  dxz               28      0.866860  1 O  dyz        
    27     -0.775446  1 O  dyy               24      0.677704  1 O  dxx        
    32     -0.441899  1 O  dxz               34     -0.413924  1 O  dyz        
    33      0.370274  1 O  dyy               30     -0.323603  1 O  dxx        
    29      0.097742  1 O  dzz               25      0.063553  1 O  dxy        
 
 Vector   21  Occ=0.000000D+00  E= 3.143251D+00
              MO Center=  4.5D-16,  1.9D-15, -2.3D-16, r^2= 5.8D-01
   Bfn.  Coefficient  Atom+Function         Bfn.  Coefficient  Atom+Function  
  ----- ------------  ---------------      ----- ------------  ---------------
    25      1.506100  1 O  dxy               28      0.796980  1 O  dyz        
    31     -0.719161  1 O  dxy               26     -0.571837  1 O  dxz        
    29     -0.413502  1 O  dzz               34     -0.380557  1 O  dyz        
    32      0.273051  1 O  dxz               27      0.253592  1 O  dyy        
    35      0.197446  1 O  dzz               24      0.159910  1 O  dxx        
 
 Vector   22  Occ=0.000000D+00  E= 3.202432D+00
              MO Center=  5.1D-16, -3.4D-16, -7.9D-16, r^2= 5.7D-01
   Bfn.  Coefficient  Atom+Function         Bfn.  Coefficient  Atom+Function  
  ----- ------------  ---------------      ----- ------------  ---------------
    28     -0.927225  1 O  dyz               25      0.905305  1 O  dxy        
    27     -0.681101  1 O  dyy               29      0.675547  1 O  dzz        
    26     -0.485884  1 O  dxz               34      0.437533  1 O  dyz        
    31     -0.427189  1 O  dxy               33      0.321393  1 O  dyy        
    35     -0.318773  1 O  dzz               32      0.229276  1 O  dxz        
 
 Vector   23  Occ=0.000000D+00  E= 3.202432D+00
              MO Center=  6.9D-16,  7.9D-16,  1.1D-15, r^2= 5.7D-01
   Bfn.  Coefficient  Atom+Function         Bfn.  Coefficient  Atom+Function  
  ----- ------------  ---------------      ----- ------------  ---------------
    24      0.871167  1 O  dxx               26     -0.746747  1 O  dxz        
    28     -0.715004  1 O  dyz               29     -0.684486  1 O  dzz        
    30     -0.411080  1 O  dxx               25     -0.403147  1 O  dxy        
    32      0.352370  1 O  dxz               34      0.337391  1 O  dyz        
    35      0.322991  1 O  dzz               31      0.190234  1 O  dxy        
 
 Vector   24  Occ=0.000000D+00  E= 3.224020D+00
              MO Center=  1.9D-16,  1.1D-16,  3.9D-16, r^2= 5.7D-01
   Bfn.  Coefficient  Atom+Function         Bfn.  Coefficient  Atom+Function  
  ----- ------------  ---------------      ----- ------------  ---------------
    26      1.333266  1 O  dxz               28     -0.998488  1 O  dyz        
    25      0.706559  1 O  dxy               32     -0.626575  1 O  dxz        
    34      0.469244  1 O  dyz               29     -0.377604  1 O  dzz        
    31     -0.332051  1 O  dxy               27      0.299891  1 O  dyy        
    35      0.167651  1 O  dzz               33     -0.150741  1 O  dyy        
 
 Vector   25  Occ=0.000000D+00  E= 4.437218D+00
              MO Center= -7.8D-16, -5.7D-16,  6.3D-16, r^2= 5.7D-01
   Bfn.  Coefficient  Atom+Function         Bfn.  Coefficient  Atom+Function  
  ----- ------------  ---------------      ----- ------------  ---------------
    38      0.765854  1 O  fxxz              43      0.741107  1 O  fyyz       
    41      0.732723  1 O  fxzz              36      0.691855  1 O  fxxx       
    39      0.682324  1 O  fxyy              45      0.682376  1 O  fzzz       
    13     -0.501891  1 O  pz                 5     -0.493074  1 O  pz         
    11     -0.492927  1 O  px                 3     -0.484268  1 O  px         
 
 Vector   26  Occ=0.000000D+00  E= 4.437218D+00
              MO Center= -7.6D-16, -1.1D-15,  4.5D-16, r^2= 5.7D-01
   Bfn.  Coefficient  Atom+Function         Bfn.  Coefficient  Atom+Function  
  ----- ------------  ---------------      ----- ------------  ---------------
    37      0.919246  1 O  fxxy              42      0.904099  1 O  fyyy       
    44      0.867842  1 O  fyzz              12     -0.635380  1 O  py         
    39      0.633441  1 O  fxyy               4     -0.624219  1 O  py         
    36      0.583439  1 O  fxxx              41      0.559864  1 O  fxzz       
    11     -0.415683  1 O  px                 3     -0.408381  1 O  px         
 
 Vector   27  Occ=0.000000D+00  E= 4.506667D+00
              MO Center= -7.5D-16,  6.5D-16, -5.8D-16, r^2= 5.6D-01
   Bfn.  Coefficient  Atom+Function         Bfn.  Coefficient  Atom+Function  
  ----- ------------  ---------------      ----- ------------  ---------------
    43      0.816749  1 O  fyyz              45      0.807567  1 O  fzzz       
    38      0.778283  1 O  fxxz              36     -0.592058  1 O  fxxx       
    39     -0.577955  1 O  fxyy               5     -0.561431  1 O  pz         
    13     -0.563921  1 O  pz                41     -0.488934  1 O  fxzz       
    42      0.450188  1 O  fyyy              37      0.412447  1 O  fxxy       
 
 Vector   28  Occ=0.000000D+00  E= 4.857462D+00
              MO Center=  2.0D-17, -3.1D-16,  1.8D-16, r^2= 4.5D-01
   Bfn.  Coefficient  Atom+Function         Bfn.  Coefficient  Atom+Function  
  ----- ------------  ---------------      ----- ------------  ---------------
    39      1.693906  1 O  fxyy              40     -1.177706  1 O  fxyz       
    38     -1.099965  1 O  fxxz              43      0.943999  1 O  fyyz       
    44     -0.916957  1 O  fyzz              41     -0.466306  1 O  fxzz       
    37      0.436422  1 O  fxxy              36     -0.409200  1 O  fxxx       
    42      0.160178  1 O  fyyy              45      0.051988  1 O  fzzz       
 
 Vector   29  Occ=0.000000D+00  E= 4.857463D+00
              MO Center= -4.0D-16, -4.7D-16, -3.3D-17, r^2= 4.5D-01
   Bfn.  Coefficient  Atom+Function         Bfn.  Coefficient  Atom+Function  
  ----- ------------  ---------------      ----- ------------  ---------------
    40      2.142614  1 O  fxyz              37      1.502868  1 O  fxxy       
    43      0.927297  1 O  fyyz              41     -0.748907  1 O  fxzz       
    42     -0.589846  1 O  fyyy              44      0.266671  1 O  fyzz       
    38     -0.256029  1 O  fxxz              36      0.254564  1 O  fxxx       
    45     -0.223756  1 O  fzzz       
 
 Vector   30  Occ=0.000000D+00  E= 4.900727D+00
              MO Center=  2.1D-17, -1.2D-15, -2.7D-16, r^2= 4.5D-01
   Bfn.  Coefficient  Atom+Function         Bfn.  Coefficient  Atom+Function  
  ----- ------------  ---------------      ----- ------------  ---------------
    44      1.317768  1 O  fyzz              37     -1.186510  1 O  fxxy       
    39      1.185975  1 O  fxyy              40      0.854406  1 O  fxyz       
    38      0.797000  1 O  fxxz              43      0.761700  1 O  fyyz       
    45     -0.519566  1 O  fzzz              36     -0.426082  1 O  fxxx       
    41      0.092272  1 O  fxzz              42     -0.043753  1 O  fyyy       
 
 Vector   31  Occ=0.000000D+00  E= 4.900727D+00
              MO Center= -9.8D-16,  5.7D-16, -6.3D-17, r^2= 4.5D-01
   Bfn.  Coefficient  Atom+Function         Bfn.  Coefficient  Atom+Function  
  ----- ------------  ---------------      ----- ------------  ---------------
    41      1.345984  1 O  fxzz              37      0.986481  1 O  fxxy       
    44      0.952044  1 O  fyzz              43     -0.818039  1 O  fyyz       
    42     -0.646175  1 O  fyyy              36     -0.602684  1 O  fxxx       
    39      0.462069  1 O  fxyy              40     -0.440900  1 O  fxyz       
    45      0.367628  1 O  fzzz              38     -0.284846  1 O  fxxz       
 
 Vector   32  Occ=0.000000D+00  E= 4.928509D+00
              MO Center=  4.4D-16, -9.6D-17, -6.9D-16, r^2= 4.5D-01
   Bfn.  Coefficient  Atom+Function         Bfn.  Coefficient  Atom+Function  
  ----- ------------  ---------------      ----- ------------  ---------------
    40      1.548266  1 O  fxyz              43     -1.339866  1 O  fyyz       
    41     -1.106736  1 O  fxzz              39      0.881471  1 O  fxyy       
    45      0.710385  1 O  fzzz              38     -0.654570  1 O  fxxz       
    37     -0.649270  1 O  fxxy              44      0.311719  1 O  fyzz       
    36      0.100432  1 O  fxxx              42      0.060362  1 O  fyyy       
 
 Vector   33  Occ=0.000000D+00  E= 4.928509D+00
              MO Center= -2.5D-16, -5.1D-16, -5.7D-16, r^2= 4.5D-01
   Bfn.  Coefficient  Atom+Function         Bfn.  Coefficient  Atom+Function  
  ----- ------------  ---------------      ----- ------------  ---------------
    38      1.814196  1 O  fxxz              44     -1.106634  1 O  fyzz       
    43     -1.044501  1 O  fyyz              37      0.827373  1 O  fxxy       
    39      0.819687  1 O  fxyy              40      0.318176  1 O  fxyz       
    41     -0.311556  1 O  fxzz              45     -0.274153  1 O  fzzz       
    36     -0.226546  1 O  fxxx              42      0.049938  1 O  fyyy       
 
 Vector   34  Occ=0.000000D+00  E= 4.938206D+00
              MO Center=  2.1D-16, -4.3D-16, -4.3D-16, r^2= 4.5D-01
   Bfn.  Coefficient  Atom+Function         Bfn.  Coefficient  Atom+Function  
  ----- ------------  ---------------      ----- ------------  ---------------
    40      2.361732  1 O  fxyz              41      1.467310  1 O  fxzz       
    44     -1.098873  1 O  fyzz              38     -0.501414  1 O  fxxz       
    42      0.413672  1 O  fyyy              36     -0.389041  1 O  fxxx       
    37     -0.265722  1 O  fxxy              43      0.191025  1 O  fyyz       
    39     -0.135174  1 O  fxyy              13      0.031031  1 O  pz         
 
 Vector   35  Occ=0.000000D+00  E= 6.761666D+00
              MO Center=  3.1D-17,  2.8D-15, -3.3D-15, r^2= 7.7D-01
   Bfn.  Coefficient  Atom+Function         Bfn.  Coefficient  Atom+Function  
  ----- ------------  ---------------      ----- ------------  ---------------
    10      9.327627  1 O  s                  6      4.163824  1 O  s          
    24     -3.694010  1 O  dxx               27     -3.693794  1 O  dyy        
    29     -3.694500  1 O  dzz               30     -2.654706  1 O  dxx        
    33     -2.654824  1 O  dyy               35     -2.654438  1 O  dzz        
     2     -1.567115  1 O  s                 18     -0.807452  1 O  dxx        
 
 Vector   36  Occ=0.000000D+00  E= 1.396136D+01
              MO Center=  5.7D-16,  2.1D-15, -9.2D-16, r^2= 1.7D-01
   Bfn.  Coefficient  Atom+Function         Bfn.  Coefficient  Atom+Function  
  ----- ------------  ---------------      ----- ------------  ---------------
    19      1.410809  1 O  dxy               22      1.120959  1 O  dyz        
    25     -0.773170  1 O  dxy               28     -0.614323  1 O  dyz        
    18      0.451280  1 O  dxx               23     -0.335579  1 O  dzz        
    24     -0.247317  1 O  dxx               31      0.234906  1 O  dxy        
    34      0.186645  1 O  dyz               29      0.183908  1 O  dzz        
 
 Vector   37  Occ=0.000000D+00  E= 1.396136D+01
              MO Center= -8.2D-16, -2.8D-16, -4.9D-16, r^2= 1.7D-01
   Bfn.  Coefficient  Atom+Function         Bfn.  Coefficient  Atom+Function  
  ----- ------------  ---------------      ----- ------------  ---------------
    20      1.106295  1 O  dxz               21     -0.825630  1 O  dyy        
    19     -0.618425  1 O  dxy               26     -0.606286  1 O  dxz        
    18      0.550121  1 O  dxx               27      0.452473  1 O  dyy        
    22      0.437459  1 O  dyz               25      0.338918  1 O  dxy        
    24     -0.301484  1 O  dxx               23      0.275509  1 O  dzz        
 
 Vector   38  Occ=0.000000D+00  E= 1.402289D+01
              MO Center=  8.2D-16, -9.2D-16, -1.4D-16, r^2= 1.7D-01
   Bfn.  Coefficient  Atom+Function         Bfn.  Coefficient  Atom+Function  
  ----- ------------  ---------------      ----- ------------  ---------------
    19      1.010135  1 O  dxy               23      0.935586  1 O  dzz        
    25     -0.552822  1 O  dxy               21     -0.527763  1 O  dyy        
    29     -0.512023  1 O  dzz               22     -0.500077  1 O  dyz        
    18     -0.407822  1 O  dxx               27      0.288832  1 O  dyy        
    28      0.273680  1 O  dyz               24      0.223191  1 O  dxx        
 
 Vector   39  Occ=0.000000D+00  E= 1.402289D+01
              MO Center=  7.8D-16,  9.4D-16,  4.7D-16, r^2= 1.7D-01
   Bfn.  Coefficient  Atom+Function         Bfn.  Coefficient  Atom+Function  
  ----- ------------  ---------------      ----- ------------  ---------------
    22      1.086319  1 O  dyz               20      0.905887  1 O  dxz        
    18     -0.790829  1 O  dxx               28     -0.594515  1 O  dyz        
    26     -0.495769  1 O  dxz               21      0.491675  1 O  dyy        
    24      0.432801  1 O  dxx               23      0.299154  1 O  dzz        
    27     -0.269081  1 O  dyy               34      0.180320  1 O  dyz        
 
 Vector   40  Occ=0.000000D+00  E= 1.404372D+01
              MO Center=  6.5D-16, -7.4D-16, -8.1D-16, r^2= 1.7D-01
   Bfn.  Coefficient  Atom+Function         Bfn.  Coefficient  Atom+Function  
  ----- ------------  ---------------      ----- ------------  ---------------
    20      1.361720  1 O  dxz               22     -1.019797  1 O  dyz        
    26     -0.744895  1 O  dxz               19      0.721637  1 O  dxy        
    28      0.557855  1 O  dyz               25     -0.394753  1 O  dxy        
    23     -0.372620  1 O  dzz               21      0.319334  1 O  dyy        
    29      0.259555  1 O  dzz               32      0.225800  1 O  dxz        
 
 Vector   41  Occ=0.000000D+00  E= 1.618079D+01
              MO Center= -2.2D-14, -7.2D-16, -1.4D-14, r^2= 3.2D-01
   Bfn.  Coefficient  Atom+Function         Bfn.  Coefficient  Atom+Function  
  ----- ------------  ---------------      ----- ------------  ---------------
     7     10.224432  1 O  px                 9      7.690591  1 O  pz         
    36     -5.528392  1 O  fxxx              39     -5.528458  1 O  fxyy       
    41     -5.528630  1 O  fxzz              38     -4.158931  1 O  fxxz       
    43     -4.158441  1 O  fyyz              45     -4.158176  1 O  fzzz       
     3     -2.752087  1 O  px                 5     -2.070059  1 O  pz         
 
 Vector   42  Occ=0.000000D+00  E= 1.618079D+01
              MO Center=  7.6D-15,  2.4D-14, -6.9D-15, r^2= 3.2D-01
   Bfn.  Coefficient  Atom+Function         Bfn.  Coefficient  Atom+Function  
  ----- ------------  ---------------      ----- ------------  ---------------
     8     11.737343  1 O  py                37     -6.346544  1 O  fxxy       
    42     -6.346536  1 O  fyyy              44     -6.346345  1 O  fyzz       
     7      3.697357  1 O  px                 9     -3.603782  1 O  pz         
     4     -3.159314  1 O  py                36     -1.999176  1 O  fxxx       
    39     -1.999573  1 O  fxyy              41     -1.998890  1 O  fxzz       
 
 Vector   43  Occ=0.000000D+00  E= 1.624541D+01
              MO Center= -6.2D-16, -9.0D-16, -1.9D-15, r^2= 3.2D-01
   Bfn.  Coefficient  Atom+Function         Bfn.  Coefficient  Atom+Function  
  ----- ------------  ---------------      ----- ------------  ---------------
     9      9.607584  1 O  pz                 7     -6.798608  1 O  px         
    38     -5.194683  1 O  fxxz              43     -5.194927  1 O  fyyz       
    45     -5.194869  1 O  fzzz               8      5.091486  1 O  py         
    36      3.676172  1 O  fxxx              39      3.676082  1 O  fxyy       
    41      3.675518  1 O  fxzz              37     -2.752894  1 O  fxxy       
 
 Vector   44  Occ=0.000000D+00  E= 1.846393D+01
              MO Center=  1.3D-14, -3.6D-14,  4.1D-14, r^2= 4.6D-01
   Bfn.  Coefficient  Atom+Function         Bfn.  Coefficient  Atom+Function  
  ----- ------------  ---------------      ----- ------------  ---------------
     6     16.465563  1 O  s                 24     -6.283301  1 O  dxx        
    27     -6.283899  1 O  dyy               29     -6.281943  1 O  dzz        
    10      5.540938  1 O  s                  2     -3.629158  1 O  s          
    18     -3.339750  1 O  dxx               21     -3.338891  1 O  dyy        
    23     -3.341699  1 O  dzz               30     -1.615978  1 O  dxx        
 
 Vector   45  Occ=0.000000D+00  E= 6.100641D+01
              MO Center=  5.1D-17,  3.6D-16, -3.0D-16, r^2= 4.3D-02
   Bfn.  Coefficient  Atom+Function         Bfn.  Coefficient  Atom+Function  
  ----- ------------  ---------------      ----- ------------  ---------------
     6      5.295442  1 O  s                  1     -2.203785  1 O  s          
     2      1.606527  1 O  s                 24     -1.556713  1 O  dxx        
    27     -1.556726  1 O  dyy               29     -1.556682  1 O  dzz        
    18     -1.205800  1 O  dxx               21     -1.205755  1 O  dyy        
    23     -1.205903  1 O  dzz               10      0.185532  1 O  s          
 
 
                     DFT Final Beta Molecular Orbital Analysis
                     -----------------------------------------
 
 Vector    1  Occ=1.000000D+00  E=-1.897766D+01
              MO Center=  1.3D-17,  1.0D-17,  8.5D-18, r^2= 1.5D-02
   Bfn.  Coefficient  Atom+Function         Bfn.  Coefficient  Atom+Function  
  ----- ------------  ---------------      ----- ------------  ---------------
     1      0.552782  1 O  s                  2      0.468851  1 O  s          
 
 Vector    2  Occ=1.000000D+00  E=-8.047999D-01
              MO Center=  8.8D-16, -2.4D-16,  3.9D-16, r^2= 4.6D-01
   Bfn.  Coefficient  Atom+Function         Bfn.  Coefficient  Atom+Function  
  ----- ------------  ---------------      ----- ------------  ---------------
    10      0.679252  1 O  s                  6      0.613669  1 O  s          
     2     -0.220796  1 O  s                  1     -0.126557  1 O  s          
    33     -0.067797  1 O  dyy               30     -0.066318  1 O  dxx        
    35     -0.062961  1 O  dzz               14      0.042694  1 O  s          
    27     -0.039099  1 O  dyy               24     -0.037352  1 O  dxx        
 
 Vector    3  Occ=1.000000D+00  E=-2.904500D-01
              MO Center=  3.1D-16,  5.2D-16,  5.7D-16, r^2= 6.4D-01
   Bfn.  Coefficient  Atom+Function         Bfn.  Coefficient  Atom+Function  
  ----- ------------  ---------------      ----- ------------  ---------------
     9      0.314853  1 O  pz                13      0.304480  1 O  pz         
     5      0.239144  1 O  pz                 7     -0.222803  1 O  px         
    11     -0.215463  1 O  px                 3     -0.169229  1 O  px         
     8      0.166853  1 O  py                12      0.161355  1 O  py         
     4      0.126730  1 O  py                17      0.063283  1 O  pz         
 
 Vector    4  Occ=0.000000D+00  E=-2.155403D-01
              MO Center=  5.3D-16, -2.9D-16,  1.3D-16, r^2= 7.5D-01
   Bfn.  Coefficient  Atom+Function         Bfn.  Coefficient  Atom+Function  
  ----- ------------  ---------------      ----- ------------  ---------------
    12      0.376290  1 O  py                 8      0.338199  1 O  py         
     4      0.270552  1 O  py                13     -0.187200  1 O  pz         
     9     -0.168250  1 O  pz                 5     -0.134598  1 O  pz         
    16      0.120536  1 O  py                17     -0.059966  1 O  pz         
    37      0.027412  1 O  fxxy              44      0.027441  1 O  fyzz       
 
 Vector    5  Occ=0.000000D+00  E=-2.155397D-01
              MO Center= -1.2D-15, -2.7D-16,  1.2D-16, r^2= 7.5D-01
   Bfn.  Coefficient  Atom+Function         Bfn.  Coefficient  Atom+Function  
  ----- ------------  ---------------      ----- ------------  ---------------
    11      0.356239  1 O  px                 7      0.320179  1 O  px         
     3      0.256135  1 O  px                13      0.206345  1 O  pz         
     9      0.185457  1 O  pz                 5      0.148361  1 O  pz         
    15      0.114114  1 O  px                12      0.086322  1 O  py         
     8      0.077585  1 O  py                17      0.066099  1 O  pz         
 
 Vector    6  Occ=0.000000D+00  E= 8.279022D-02
              MO Center=  1.1D-14, -7.9D-15,  2.6D-14, r^2= 4.3D+00
   Bfn.  Coefficient  Atom+Function         Bfn.  Coefficient  Atom+Function  
  ----- ------------  ---------------      ----- ------------  ---------------
    14      1.794088  1 O  s                  6     -0.350160  1 O  s          
    30     -0.320821  1 O  dxx               33     -0.321102  1 O  dyy        
    35     -0.320182  1 O  dzz               10     -0.243697  1 O  s          
    29     -0.071829  1 O  dzz               24     -0.070516  1 O  dxx        
    27     -0.069937  1 O  dyy                1      0.042648  1 O  s          
 
 Vector    7  Occ=0.000000D+00  E= 1.487080D-01
              MO Center=  5.2D-15, -3.9D-15, -7.4D-15, r^2= 4.9D+00
   Bfn.  Coefficient  Atom+Function         Bfn.  Coefficient  Atom+Function  
  ----- ------------  ---------------      ----- ------------  ---------------
    17      0.921358  1 O  pz                15     -0.651990  1 O  px         
    16      0.488263  1 O  py                13     -0.352405  1 O  pz         
    11      0.249376  1 O  px                12     -0.186753  1 O  py         
     9     -0.110123  1 O  pz                 5     -0.099295  1 O  pz         
     7      0.077928  1 O  px                 3      0.070265  1 O  px         
 
 Vector    8  Occ=0.000000D+00  E= 1.659154D-01
              MO Center= -1.4D-14,  1.3D-14, -1.7D-14, r^2= 4.9D+00
   Bfn.  Coefficient  Atom+Function         Bfn.  Coefficient  Atom+Function  
  ----- ------------  ---------------      ----- ------------  ---------------
    17      0.813847  1 O  pz                15      0.663499  1 O  px         
    16     -0.649751  1 O  py                13     -0.340942  1 O  pz         
    11     -0.277957  1 O  px                12      0.272197  1 O  py         
     9     -0.102681  1 O  pz                 5     -0.095638  1 O  pz         
     7     -0.083712  1 O  px                 8      0.081977  1 O  py         
 
 Vector    9  Occ=0.000000D+00  E= 1.659175D-01
              MO Center= -1.6D-16, -1.9D-15,  9.0D-16, r^2= 4.9D+00
   Bfn.  Coefficient  Atom+Function         Bfn.  Coefficient  Atom+Function  
  ----- ------------  ---------------      ----- ------------  ---------------
    16      0.928562  1 O  py                15      0.809912  1 O  px         
    12     -0.388998  1 O  py                11     -0.339292  1 O  px         
     8     -0.117155  1 O  py                 4     -0.109118  1 O  py         
     7     -0.102186  1 O  px                 3     -0.095175  1 O  px         
    17      0.081045  1 O  pz                13     -0.033953  1 O  pz         
 
 Vector   10  Occ=0.000000D+00  E= 7.463611D-01
              MO Center=  1.9D-15, -1.5D-15,  1.7D-16, r^2= 2.8D+00
   Bfn.  Coefficient  Atom+Function         Bfn.  Coefficient  Atom+Function  
  ----- ------------  ---------------      ----- ------------  ---------------
    10      2.425410  1 O  s                 35     -1.766369  1 O  dzz        
    14      1.631728  1 O  s                 30     -1.613960  1 O  dxx        
    33     -1.546854  1 O  dyy               32      0.432089  1 O  dxz        
    24     -0.352502  1 O  dxx               27     -0.353860  1 O  dyy        
    29     -0.349418  1 O  dzz               34     -0.323628  1 O  dyz        
 
 Vector   11  Occ=0.000000D+00  E= 7.477490D-01
              MO Center=  9.2D-16, -7.8D-16,  1.5D-15, r^2= 1.5D+00
   Bfn.  Coefficient  Atom+Function         Bfn.  Coefficient  Atom+Function  
  ----- ------------  ---------------      ----- ------------  ---------------
    35      0.859137  1 O  dzz               31      0.833835  1 O  dxy        
    30     -0.534270  1 O  dxx               33     -0.324923  1 O  dyy        
    34     -0.157692  1 O  dyz               32      0.146976  1 O  dxz        
 
 Vector   12  Occ=0.000000D+00  E= 7.477494D-01
              MO Center=  3.8D-15,  1.5D-15, -2.3D-15, r^2= 1.5D+00
   Bfn.  Coefficient  Atom+Function         Bfn.  Coefficient  Atom+Function  
  ----- ------------  ---------------      ----- ------------  ---------------
    34      1.034487  1 O  dyz               32      0.782457  1 O  dxz        
    30     -0.566470  1 O  dxx               33      0.541066  1 O  dyy        
    31     -0.298447  1 O  dxy               35      0.025198  1 O  dzz        
 
 Vector   13  Occ=0.000000D+00  E= 7.498267D-01
              MO Center=  3.9D-16, -5.4D-16,  1.6D-15, r^2= 1.7D+00
   Bfn.  Coefficient  Atom+Function         Bfn.  Coefficient  Atom+Function  
  ----- ------------  ---------------      ----- ------------  ---------------
    32      1.111532  1 O  dxz               10     -0.970946  1 O  s          
    33      0.892032  1 O  dyy               34     -0.832342  1 O  dyz        
    30      0.719246  1 O  dxx               14     -0.632236  1 O  s          
    31      0.589149  1 O  dxy               35      0.327241  1 O  dzz        
    29      0.143723  1 O  dzz               24      0.142698  1 O  dxx        
 
 Vector   14  Occ=0.000000D+00  E= 7.619569D-01
              MO Center=  5.9D-16,  1.3D-16,  3.0D-16, r^2= 1.5D+00
   Bfn.  Coefficient  Atom+Function         Bfn.  Coefficient  Atom+Function  
  ----- ------------  ---------------      ----- ------------  ---------------
    31      1.341458  1 O  dxy               34      0.656354  1 O  dyz        
    32     -0.570396  1 O  dxz               35     -0.375747  1 O  dzz        
    33      0.276322  1 O  dyy               30      0.099215  1 O  dxx        
 
 Vector   15  Occ=0.000000D+00  E= 7.619575D-01
              MO Center=  9.3D-16,  9.5D-16,  1.1D-16, r^2= 1.5D+00
   Bfn.  Coefficient  Atom+Function         Bfn.  Coefficient  Atom+Function  
  ----- ------------  ---------------      ----- ------------  ---------------
    34      0.825712  1 O  dyz               32      0.790067  1 O  dxz        
    33     -0.676459  1 O  dyy               30      0.615738  1 O  dxx        
    31      0.153567  1 O  dxy               35      0.060749  1 O  dzz        
 
 Vector   16  Occ=0.000000D+00  E= 9.639433D-01
              MO Center= -3.7D-15, -2.2D-15, -6.1D-16, r^2= 2.1D+00
   Bfn.  Coefficient  Atom+Function         Bfn.  Coefficient  Atom+Function  
  ----- ------------  ---------------      ----- ------------  ---------------
    13      1.230969  1 O  pz                11     -0.871098  1 O  px         
    12      0.652326  1 O  py                17     -0.605485  1 O  pz         
     9     -0.502020  1 O  pz                15      0.428473  1 O  px         
     7      0.355255  1 O  px                16     -0.320864  1 O  py         
     8     -0.266035  1 O  py                 5     -0.225195  1 O  pz         
 
 Vector   17  Occ=0.000000D+00  E= 1.002143D+00
              MO Center= -1.8D-15,  3.3D-15, -1.2D-15, r^2= 2.0D+00
   Bfn.  Coefficient  Atom+Function         Bfn.  Coefficient  Atom+Function  
  ----- ------------  ---------------      ----- ------------  ---------------
    12      1.491108  1 O  py                16     -0.727505  1 O  py         
     8     -0.621907  1 O  py                13     -0.587557  1 O  pz         
    11      0.286333  1 O  px                17      0.286666  1 O  pz         
     4     -0.281809  1 O  py                 9      0.245055  1 O  pz         
    15     -0.139701  1 O  px                 7     -0.119424  1 O  px         
 
 Vector   18  Occ=0.000000D+00  E= 1.002144D+00
              MO Center= -4.6D-15, -3.8D-16, -2.2D-15, r^2= 2.0D+00
   Bfn.  Coefficient  Atom+Function         Bfn.  Coefficient  Atom+Function  
  ----- ------------  ---------------      ----- ------------  ---------------
    11      1.350404  1 O  px                13      0.904221  1 O  pz         
    15     -0.658856  1 O  px                 7     -0.563224  1 O  px         
    17     -0.441165  1 O  pz                 9     -0.377130  1 O  pz         
     3     -0.255217  1 O  px                 5     -0.170892  1 O  pz         
    12      0.096986  1 O  py                36     -0.081336  1 O  fxxx       
 
 Vector   19  Occ=0.000000D+00  E= 2.496355D+00
              MO Center=  9.1D-17, -6.2D-17, -3.1D-16, r^2= 1.6D+00
   Bfn.  Coefficient  Atom+Function         Bfn.  Coefficient  Atom+Function  
  ----- ------------  ---------------      ----- ------------  ---------------
    10     10.303445  1 O  s                  6     -3.420296  1 O  s          
    30     -3.310540  1 O  dxx               33     -3.312048  1 O  dyy        
    35     -3.307118  1 O  dzz               14      1.015163  1 O  s          
    29     -1.018808  1 O  dzz               24     -1.008893  1 O  dxx        
    27     -1.004525  1 O  dyy               18     -0.234698  1 O  dxx        
 
 Vector   20  Occ=0.000000D+00  E= 3.313456D+00
              MO Center=  9.7D-16,  5.0D-17,  4.9D-16, r^2= 5.6D-01
   Bfn.  Coefficient  Atom+Function         Bfn.  Coefficient  Atom+Function  
  ----- ------------  ---------------      ----- ------------  ---------------
    29      0.964157  1 O  dzz               25      0.925227  1 O  dxy        
    24     -0.617510  1 O  dxx               35     -0.445832  1 O  dzz        
    31     -0.427829  1 O  dxy               27     -0.346649  1 O  dyy        
    30      0.285538  1 O  dxx               26      0.190568  1 O  dxz        
    33      0.160290  1 O  dyy               28     -0.142900  1 O  dyz        
 
 Vector   21  Occ=0.000000D+00  E= 3.313457D+00
              MO Center= -3.9D-16, -3.8D-16, -5.7D-17, r^2= 5.6D-01
   Bfn.  Coefficient  Atom+Function         Bfn.  Coefficient  Atom+Function  
  ----- ------------  ---------------      ----- ------------  ---------------
    28      1.165012  1 O  dyz               26      0.872617  1 O  dxz        
    24     -0.617599  1 O  dxx               27      0.617379  1 O  dyy        
    34     -0.538707  1 O  dyz               32     -0.403502  1 O  dxz        
    25     -0.362031  1 O  dxy               30      0.285581  1 O  dxx        
    33     -0.285478  1 O  dyy               31      0.167404  1 O  dxy        
 
 Vector   22  Occ=0.000000D+00  E= 3.321740D+00
              MO Center=  4.5D-16, -7.6D-17, -3.1D-17, r^2= 5.6D-01
   Bfn.  Coefficient  Atom+Function         Bfn.  Coefficient  Atom+Function  
  ----- ------------  ---------------      ----- ------------  ---------------
    26      1.334433  1 O  dxz               28     -0.999063  1 O  dyz        
    25      0.707863  1 O  dxy               32     -0.615717  1 O  dxz        
    34      0.460975  1 O  dyz               29     -0.353146  1 O  dzz        
    27      0.325168  1 O  dyy               31     -0.326611  1 O  dxy        
    10     -0.255733  1 O  s                 35      0.253955  1 O  dzz        
 
 Vector   23  Occ=0.000000D+00  E= 3.325649D+00
              MO Center=  3.0D-16, -7.4D-16,  4.3D-16, r^2= 5.6D-01
   Bfn.  Coefficient  Atom+Function         Bfn.  Coefficient  Atom+Function  
  ----- ------------  ---------------      ----- ------------  ---------------
    25      1.395268  1 O  dxy               28      1.096735  1 O  dyz        
    31     -0.640445  1 O  dxy               34     -0.503417  1 O  dyz        
    24      0.436150  1 O  dxx               29     -0.333610  1 O  dzz        
    30     -0.200237  1 O  dxx               35      0.153092  1 O  dzz        
    26     -0.122664  1 O  dxz               27     -0.102578  1 O  dyy        
 
 Vector   24  Occ=0.000000D+00  E= 3.325652D+00
              MO Center= -4.4D-16,  1.0D-16, -1.4D-16, r^2= 5.6D-01
   Bfn.  Coefficient  Atom+Function         Bfn.  Coefficient  Atom+Function  
  ----- ------------  ---------------      ----- ------------  ---------------
    26      1.086373  1 O  dxz               27     -0.813328  1 O  dyy        
    25     -0.588882  1 O  dxy               24      0.547141  1 O  dxx        
    32     -0.498659  1 O  dxz               28      0.445310  1 O  dyz        
    33      0.373336  1 O  dyy               31      0.270304  1 O  dxy        
    29      0.266195  1 O  dzz               30     -0.251137  1 O  dxx        
 
 Vector   25  Occ=0.000000D+00  E= 4.608953D+00
              MO Center= -3.7D-16, -2.4D-16, -5.9D-17, r^2= 5.4D-01
   Bfn.  Coefficient  Atom+Function         Bfn.  Coefficient  Atom+Function  
  ----- ------------  ---------------      ----- ------------  ---------------
    42      0.853845  1 O  fyyy              44      0.855520  1 O  fyzz       
    37      0.838529  1 O  fxxy              43     -0.654655  1 O  fyyz       
    38     -0.624425  1 O  fxxz               4     -0.599460  1 O  py         
    45     -0.597503  1 O  fzzz              12     -0.581438  1 O  py         
     5      0.432679  1 O  pz                13      0.419672  1 O  pz         
 
 Vector   26  Occ=0.000000D+00  E= 4.608960D+00
              MO Center=  9.9D-17,  2.7D-16,  5.9D-17, r^2= 5.4D-01
   Bfn.  Coefficient  Atom+Function         Bfn.  Coefficient  Atom+Function  
  ----- ------------  ---------------      ----- ------------  ---------------
    39      0.900384  1 O  fxyy              36      0.876248  1 O  fxxx       
    41      0.879158  1 O  fxzz               3     -0.620968  1 O  px         
    11     -0.602301  1 O  px                37      0.523407  1 O  fxxy       
    42      0.499959  1 O  fyyy              44      0.468522  1 O  fyzz       
    38      0.410410  1 O  fxxz               7     -0.380584  1 O  px         
 
 Vector   27  Occ=0.000000D+00  E= 4.623741D+00
              MO Center= -1.1D-15,  9.9D-16, -4.6D-17, r^2= 5.5D-01
   Bfn.  Coefficient  Atom+Function         Bfn.  Coefficient  Atom+Function  
  ----- ------------  ---------------      ----- ------------  ---------------
    43      0.813744  1 O  fyyz              45      0.800301  1 O  fzzz       
    38      0.757446  1 O  fxxz              36     -0.596339  1 O  fxxx       
    39     -0.575682  1 O  fxyy               5     -0.567221  1 O  pz         
    13     -0.553810  1 O  pz                42      0.456791  1 O  fyyy       
    41     -0.445404  1 O  fxzz               3      0.401287  1 O  px         
 
 Vector   28  Occ=0.000000D+00  E= 5.003515D+00
              MO Center=  1.2D-16,  2.0D-16, -2.4D-17, r^2= 4.5D-01
   Bfn.  Coefficient  Atom+Function         Bfn.  Coefficient  Atom+Function  
  ----- ------------  ---------------      ----- ------------  ---------------
    40      2.123188  1 O  fxyz              37      1.509372  1 O  fxxy       
    43      0.943050  1 O  fyyz              41     -0.757062  1 O  fxzz       
    42     -0.586872  1 O  fyyy              38     -0.273819  1 O  fxxz       
    44      0.251244  1 O  fyzz              36      0.248009  1 O  fxxx       
    45     -0.223078  1 O  fzzz       
 
 Vector   29  Occ=0.000000D+00  E= 5.003521D+00
              MO Center=  2.9D-16,  6.2D-16, -1.2D-16, r^2= 4.5D-01
   Bfn.  Coefficient  Atom+Function         Bfn.  Coefficient  Atom+Function  
  ----- ------------  ---------------      ----- ------------  ---------------
    39      1.694570  1 O  fxyy              40     -1.212327  1 O  fxyz       
    38     -1.095077  1 O  fxxz              43      0.929109  1 O  fyyz       
    44     -0.920551  1 O  fyzz              41     -0.454001  1 O  fxzz       
    36     -0.413518  1 O  fxxx              37      0.410910  1 O  fxxy       
    42      0.169879  1 O  fyyy              45      0.055321  1 O  fzzz       
 
 Vector   30  Occ=0.000000D+00  E= 5.005131D+00
              MO Center= -6.3D-16, -5.5D-16, -4.4D-16, r^2= 4.5D-01
   Bfn.  Coefficient  Atom+Function         Bfn.  Coefficient  Atom+Function  
  ----- ------------  ---------------      ----- ------------  ---------------
    41      1.347246  1 O  fxzz              44      0.977898  1 O  fyzz       
    37      0.963524  1 O  fxxy              43     -0.802344  1 O  fyyz       
    42     -0.647140  1 O  fyyy              36     -0.610919  1 O  fxxx       
    39      0.485524  1 O  fxyy              40     -0.423168  1 O  fxyz       
    45      0.357183  1 O  fzzz              38     -0.269192  1 O  fxxz       
 
 Vector   31  Occ=0.000000D+00  E= 5.005132D+00
              MO Center=  2.4D-17,  4.7D-17,  4.9D-16, r^2= 4.5D-01
   Bfn.  Coefficient  Atom+Function         Bfn.  Coefficient  Atom+Function  
  ----- ------------  ---------------      ----- ------------  ---------------
    44     -1.299249  1 O  fyzz              37      1.206158  1 O  fxxy       
    39     -1.175602  1 O  fxyy              40     -0.863341  1 O  fxyz       
    38     -0.803095  1 O  fxxz              43     -0.777149  1 O  fyyz       
    45      0.526748  1 O  fzzz              36      0.413868  1 O  fxxx       
    41     -0.065987  1 O  fxzz              42      0.031039  1 O  fyyy       
 
 Vector   32  Occ=0.000000D+00  E= 5.034872D+00
              MO Center= -2.9D-16,  3.6D-17,  3.1D-16, r^2= 4.5D-01
   Bfn.  Coefficient  Atom+Function         Bfn.  Coefficient  Atom+Function  
  ----- ------------  ---------------      ----- ------------  ---------------
    38      1.679037  1 O  fxxz              43     -1.255834  1 O  fyyz       
    44     -1.028825  1 O  fyzz              39      0.967302  1 O  fxyy       
    37      0.714389  1 O  fxxy              40      0.577019  1 O  fxyz       
    41     -0.485848  1 O  fxzz              36     -0.196975  1 O  fxxx       
    45     -0.147801  1 O  fzzz              42      0.068768  1 O  fyyy       
 
 Vector   33  Occ=0.000000D+00  E= 5.034874D+00
              MO Center= -1.6D-16,  1.1D-16, -3.4D-16, r^2= 4.5D-01
   Bfn.  Coefficient  Atom+Function         Bfn.  Coefficient  Atom+Function  
  ----- ------------  ---------------      ----- ------------  ---------------
    40      1.472441  1 O  fxyz              43     -1.151946  1 O  fyyz       
    41     -1.044239  1 O  fxzz              38     -0.962390  1 O  fxxz       
    37     -0.772853  1 O  fxxy              45      0.738374  1 O  fzzz       
    39      0.723498  1 O  fxyy              44      0.503334  1 O  fyzz       
    36      0.131255  1 O  fxxx              42      0.058927  1 O  fyyy       
 
 Vector   34  Occ=0.000000D+00  E= 5.038352D+00
              MO Center= -1.7D-16,  5.0D-16,  5.3D-17, r^2= 4.5D-01
   Bfn.  Coefficient  Atom+Function         Bfn.  Coefficient  Atom+Function  
  ----- ------------  ---------------      ----- ------------  ---------------
    40      2.357580  1 O  fxyz              41      1.475855  1 O  fxzz       
    44     -1.105181  1 O  fyzz              38     -0.516165  1 O  fxxz       
    42      0.404707  1 O  fyyy              36     -0.377370  1 O  fxxx       
    37     -0.273517  1 O  fxxy              43      0.175352  1 O  fyyz       
    39     -0.123986  1 O  fxyy               5      0.047971  1 O  pz         
 
 Vector   35  Occ=0.000000D+00  E= 6.880533D+00
              MO Center= -8.7D-17, -4.2D-16,  4.5D-16, r^2= 7.6D-01
   Bfn.  Coefficient  Atom+Function         Bfn.  Coefficient  Atom+Function  
  ----- ------------  ---------------      ----- ------------  ---------------
    10      9.246452  1 O  s                  6      4.358990  1 O  s          
    24     -3.736434  1 O  dxx               27     -3.735281  1 O  dyy        
    29     -3.739049  1 O  dzz               30     -2.629319  1 O  dxx        
    33     -2.629643  1 O  dyy               35     -2.628583  1 O  dzz        
     2     -1.595167  1 O  s                 18     -0.834610  1 O  dxx        
 
 Vector   36  Occ=0.000000D+00  E= 1.427461D+01
              MO Center= -3.0D-16,  2.4D-16, -3.8D-16, r^2= 1.6D-01
   Bfn.  Coefficient  Atom+Function         Bfn.  Coefficient  Atom+Function  
  ----- ------------  ---------------      ----- ------------  ---------------
    19      1.159839  1 O  dxy               20     -1.047982  1 O  dxz        
    21      0.697874  1 O  dyy               25     -0.625829  1 O  dxy        
    26      0.565473  1 O  dxz               23     -0.392258  1 O  dzz        
    27     -0.376546  1 O  dyy               18     -0.305600  1 O  dxx        
    29      0.211670  1 O  dzz               31      0.188802  1 O  dxy        
 
 Vector   37  Occ=0.000000D+00  E= 1.427462D+01
              MO Center= -7.2D-17, -1.2D-17, -6.0D-17, r^2= 1.6D-01
   Bfn.  Coefficient  Atom+Function         Bfn.  Coefficient  Atom+Function  
  ----- ------------  ---------------      ----- ------------  ---------------
    22      1.200334  1 O  dyz               19      1.014099  1 O  dxy        
    28     -0.647678  1 O  dyz               18      0.642526  1 O  dxx        
    25     -0.547191  1 O  dxy               21     -0.456147  1 O  dyy        
    20      0.371446  1 O  dxz               24     -0.346725  1 O  dxx        
    27      0.246102  1 O  dyy               26     -0.200424  1 O  dxz        
 
 Vector   38  Occ=0.000000D+00  E= 1.430532D+01
              MO Center=  2.9D-16, -1.6D-16, -2.4D-16, r^2= 1.7D-01
   Bfn.  Coefficient  Atom+Function         Bfn.  Coefficient  Atom+Function  
  ----- ------------  ---------------      ----- ------------  ---------------
    23      0.920034  1 O  dzz               18     -0.809832  1 O  dxx        
    19      0.754090  1 O  dxy               29     -0.499477  1 O  dzz        
    20      0.492719  1 O  dxz               24      0.439609  1 O  dxx        
    25     -0.409368  1 O  dxy               22      0.279413  1 O  dyz        
    26     -0.267482  1 O  dxz               28     -0.151684  1 O  dyz        
 
 Vector   39  Occ=0.000000D+00  E= 1.430533D+01
              MO Center=  6.7D-17,  2.1D-16,  3.9D-17, r^2= 1.7D-01
   Bfn.  Coefficient  Atom+Function         Bfn.  Coefficient  Atom+Function  
  ----- ------------  ---------------      ----- ------------  ---------------
    22      1.163511  1 O  dyz               20      0.764203  1 O  dxz        
    21      0.712859  1 O  dyy               19     -0.674850  1 O  dxy        
    28     -0.631629  1 O  dyz               26     -0.414860  1 O  dxz        
    27     -0.387027  1 O  dyy               18     -0.368875  1 O  dxx        
    25      0.366357  1 O  dxy               23     -0.344032  1 O  dzz        
 
 Vector   40  Occ=0.000000D+00  E= 1.434135D+01
              MO Center= -1.8D-17, -3.8D-17, -9.4D-17, r^2= 1.7D-01
   Bfn.  Coefficient  Atom+Function         Bfn.  Coefficient  Atom+Function  
  ----- ------------  ---------------      ----- ------------  ---------------
    20      1.361887  1 O  dxz               22     -1.019309  1 O  dyz        
    26     -0.742310  1 O  dxz               19      0.721500  1 O  dxy        
    28      0.555587  1 O  dyz               25     -0.393262  1 O  dxy        
    21      0.362610  1 O  dyy               29      0.335657  1 O  dzz        
    23     -0.329231  1 O  dzz                6     -0.296277  1 O  s          
 
 Vector   41  Occ=0.000000D+00  E= 1.631349D+01
              MO Center= -4.8D-15, -4.2D-15, -1.2D-15, r^2= 3.2D-01
   Bfn.  Coefficient  Atom+Function         Bfn.  Coefficient  Atom+Function  
  ----- ------------  ---------------      ----- ------------  ---------------
     7      9.833288  1 O  px                 8      7.718976  1 O  py         
    36     -5.315497  1 O  fxxx              39     -5.315890  1 O  fxyy       
    41     -5.315455  1 O  fxzz              37     -4.172946  1 O  fxxy       
    42     -4.172665  1 O  fyyy              44     -4.172241  1 O  fyzz       
     9      2.868791  1 O  pz                 3     -2.644608  1 O  px         
 
 Vector   42  Occ=0.000000D+00  E= 1.631350D+01
              MO Center=  1.1D-15, -2.0D-15,  2.3D-15, r^2= 3.2D-01
   Bfn.  Coefficient  Atom+Function         Bfn.  Coefficient  Atom+Function  
  ----- ------------  ---------------      ----- ------------  ---------------
     8      8.887947  1 O  py                 9     -7.996500  1 O  pz         
    37     -4.804310  1 O  fxxy              42     -4.804579  1 O  fyyy       
    44     -4.804682  1 O  fyzz               7     -4.643977  1 O  px         
    38      4.322925  1 O  fxxz              43      4.323152  1 O  fyyz       
    45      4.322403  1 O  fzzz              36      2.510355  1 O  fxxx       
 
 Vector   43  Occ=0.000000D+00  E= 1.635788D+01
              MO Center= -7.2D-16,  1.7D-16,  6.0D-16, r^2= 3.2D-01
   Bfn.  Coefficient  Atom+Function         Bfn.  Coefficient  Atom+Function  
  ----- ------------  ---------------      ----- ------------  ---------------
     9      9.609158  1 O  pz                 7     -6.800583  1 O  px         
    38     -5.195963  1 O  fxxz              43     -5.195627  1 O  fyyz       
    45     -5.195707  1 O  fzzz               8      5.092052  1 O  py         
    36      3.676919  1 O  fxxx              39      3.677043  1 O  fxyy       
    41      3.677821  1 O  fxzz              37     -2.753426  1 O  fxxy       
 
 Vector   44  Occ=0.000000D+00  E= 1.868853D+01
              MO Center=  4.1D-15,  6.1D-15, -2.0D-15, r^2= 4.6D-01
   Bfn.  Coefficient  Atom+Function         Bfn.  Coefficient  Atom+Function  
  ----- ------------  ---------------      ----- ------------  ---------------
     6     16.412565  1 O  s                 24     -6.250315  1 O  dxx        
    27     -6.252841  1 O  dyy               29     -6.244579  1 O  dzz        
    10      5.475735  1 O  s                  2     -3.618868  1 O  s          
    18     -3.329294  1 O  dxx               21     -3.325704  1 O  dyy        
    23     -3.337443  1 O  dzz               30     -1.597339  1 O  dxx        
 
 Vector   45  Occ=0.000000D+00  E= 6.114163D+01
              MO Center= -1.5D-17,  4.8D-19,  1.1D-17, r^2= 4.4D-02
   Bfn.  Coefficient  Atom+Function         Bfn.  Coefficient  Atom+Function  
  ----- ------------  ---------------      ----- ------------  ---------------
     6      5.316174  1 O  s                  1     -2.201994  1 O  s          
     2      1.602335  1 O  s                 24     -1.563722  1 O  dxx        
    27     -1.563997  1 O  dyy               29     -1.563096  1 O  dzz        
    18     -1.210729  1 O  dxx               21     -1.210439  1 O  dyy        
    23     -1.211389  1 O  dzz               10      0.189572  1 O  s          
 

   alpha - beta orbital overlaps 
   ----------------------------- 


   alpha      1      2      3      4      5      6      7      8      9     10
    beta      1      2      4      5      3      6      9      8      7     15
 overlap   1.000  0.999  0.861  0.861  1.000  0.999  0.992  0.992  1.000  0.999


   alpha     11     12     13     14     15     16     17     18     19     20
    beta     14     10     12     11     13     18     17     16     19     24
 overlap   0.999  0.787  0.993  0.993  0.788  0.751  0.751  1.000  0.999  0.904


   alpha     21     22     23     24     25     26     27     28     29     30
    beta     23     21     20     22     25     26     27     29     28     31
 overlap   0.904  0.712  0.712  0.999  0.817  0.817  1.000  1.000  1.000  1.000


   alpha     31     32     33     34     35     36     37     38     39     40
    beta     30     33     32     34     35     37     36     38     39     40
 overlap   1.000  0.985  0.985  1.000  1.000  0.905  0.905  0.786  0.786  1.000


   alpha     41     42     43     44     45
    beta     42     41     43     44     45
 overlap   0.709  0.709  1.000  1.000  1.000

     --------------------------
     Expectation value of S2:  
     --------------------------
      <S2> =      2.0035 (Exact =     2.0000)
 

 Parallel integral file used      16 records with       0 large values


 Task  times  cpu:        1.9s     wall:        2.8s
 
 
                                NWChem Input Module
                                -------------------
 
 
 Summary of allocated global arrays
-----------------------------------
  No active global arrays



                         GA Statistics for process    0
                         ------------------------------

       create   destroy   get      put      acc     scatter   gather  read&inc
calls:  221      221      813      505      154        0        0       31     
number of processes/call 1.62e+00 1.44e+00 3.84e+00 0.00e+00 0.00e+00
bytes total:             7.38e+06 2.81e+06 2.49e+06 0.00e+00 0.00e+00 2.48e+02
bytes remote:            5.01e+05 8.93e+04 5.71e+05 0.00e+00 0.00e+00 0.00e+00
Max memory consumed for GA by this process: 1053000 bytes
 
MA_summarize_allocated_blocks: starting scan ...
MA_summarize_allocated_blocks: scan completed: 0 heap blocks, 0 stack blocks
MA usage statistics:

	allocation statistics:
					      heap	     stack
					      ----	     -----
	current number of blocks	         0	         0
	maximum number of blocks	        21	        53
	current total bytes		         0	         0
	maximum total bytes		   1787144	  22512568
	maximum total K-bytes		      1788	     22513
	maximum total M-bytes		         2	        23
 
 
                                     CITATION
                                     --------
                Please cite the following reference when publishing
                           results obtained with NWChem:
 
                 M. Valiev, E.J. Bylaska, N. Govind, K. Kowalski,
              T.P. Straatsma, H.J.J. van Dam, D. Wang, J. Nieplocha,
                        E. Apra, T.L. Windus, W.A. de Jong
                 "NWChem: a comprehensive and scalable open-source
                  solution for large scale molecular simulations"
                      Comput. Phys. Commun. 181, 1477 (2010)
                           doi:10.1016/j.cpc.2010.04.018
 
                                      AUTHORS
                                      -------
          E. Apra, E. J. Bylaska, W. A. de Jong, N. Govind, K. Kowalski,
       T. P. Straatsma, M. Valiev, H. J. J. van Dam, D. Wang, T. L. Windus,
        J. Hammond, J. Autschbach, K. Bhaskaran-Nair, J. Brabec, K. Lopata,
    S. A. Fischer, S. Krishnamoorthy, M. Jacquelin, W. Ma, M. Klemm, O. Villa,
      Y. Chen, V. Anisimov, F. Aquino, S. Hirata, M. T. Hackler, V. Konjkov,
            D. Mejia-Rodriguez, T. Risthaus, M. Malagoli, A. Marenich,
   A. Otero-de-la-Roza, J. Mullin, P. Nichols, R. Peverati, J. Pittner, Y. Zhao,
        P.-D. Fan, A. Fonari, M. J. Williamson, R. J. Harrison, J. R. Rehr,
      M. Dupuis, D. Silverstein, D. M. A. Smith, J. Nieplocha, V. Tipparaju,
    M. Krishnan, B. E. Van Kuiken, A. Vazquez-Mayagoitia, L. Jensen, M. Swart,
      Q. Wu, T. Van Voorhis, A. A. Auer, M. Nooijen, L. D. Crosby, E. Brown,
      G. Cisneros, G. I. Fann, H. Fruchtl, J. Garza, K. Hirao, R. A. Kendall,
      J. A. Nichols, K. Tsemekhman, K. Wolinski, J. Anchell, D. E. Bernholdt,
      P. Borowski, T. Clark, D. Clerc, H. Dachsel, M. J. O. Deegan, K. Dyall,
    D. Elwood, E. Glendening, M. Gutowski, A. C. Hess, J. Jaffe, B. G. Johnson,
     J. Ju, R. Kobayashi, R. Kutteh, Z. Lin, R. Littlefield, X. Long, B. Meng,
      T. Nakajima, S. Niu, L. Pollack, M. Rosing, K. Glaesemann, G. Sandrone,
      M. Stave, H. Taylor, G. Thomas, J. H. van Lenthe, A. T. Wong, Z. Zhang.

 Total times  cpu:        1.9s     wall:        3.0s
