  NWChem w/ OpenMP: maximum threads =  1
                                         
                                         
 
 
              Northwest Computational Chemistry Package (NWChem) 6.8
              ------------------------------------------------------
 
 
                    Environmental Molecular Sciences Laboratory
                       Pacific Northwest National Laboratory
                                Richland, WA 99352
 
                              Copyright (c) 1994-2018
                       Pacific Northwest National Laboratory
                            Battelle Memorial Institute
 
             NWChem is an open-source computational chemistry package
                        distributed under the terms of the
                      Educational Community License (ECL) 2.0
             A copy of the license is included with this distribution
                              in the LICENSE.TXT file
 
                                  ACKNOWLEDGMENT
                                  --------------

            This software and its documentation were developed at the
            EMSL at Pacific Northwest National Laboratory, a multiprogram
            national laboratory, operated for the U.S. Department of Energy
            by Battelle under Contract Number DE-AC05-76RL01830. Support
            for this work was provided by the Department of Energy Office
            of Biological and Environmental Research, Office of Basic
            Energy Sciences, and the Office of Advanced Scientific Computing.


           Job information
           ---------------

    hostname        = r8n4.niserhpc.org
    program         = /home/rabeet/nwchem-6.8/bin/LINUX64/nwchem
    date            = Sun Oct 27 08:43:41 2019

    compiled        = Fri_Jun_28_18:24:12_2019
    source          = /home/rabeet/nwchem-6.8
    nwchem branch   = Development
    nwchem revision = N/A
    ga revision     = 5.6.5
    use scalapack   = T
    input           = nwchem.nw
    prefix          = S.
    data base       = ./S.db
    status          = startup
    nproc           =       16
    time left       =     -1s



           Memory information
           ------------------

    heap     =   13107198 doubles =    100.0 Mbytes
    stack    =   13107195 doubles =    100.0 Mbytes
    global   =   26214400 doubles =    200.0 Mbytes (distinct from heap & stack)
    total    =   52428793 doubles =    400.0 Mbytes
    verify   = yes
    hardfail = no 


           Directory information
           ---------------------
 
  0 permanent = .
  0 scratch   = .
 
 
 
 
                                NWChem Input Module
                                -------------------
 
 

 Scaling coordinates for geometry "geometry" by  1.889725989
 (inverse scale =  0.529177249)

 
 
                             Geometry "geometry" -> ""
                             -------------------------
 
 Output coordinates in angstroms (scale by  1.889725989 to convert to a.u.)
 
  No.       Tag          Charge          X              Y              Z
 ---- ---------------- ---------- -------------- -------------- --------------
    1 S                   16.0000     0.00000000     0.00000000     0.00000000
 
      Atomic Mass 
      ----------- 
 
      S                 31.972070
 

 Effective nuclear repulsion energy (a.u.)       0.0000000000

            Nuclear Dipole moment (a.u.) 
            ----------------------------
        X                 Y               Z
 ---------------- ---------------- ----------------
     0.0000000000     0.0000000000     0.0000000000
 
 
            XYZ format geometry
            -------------------
     1
 geometry
 S                     0.00000000     0.00000000     0.00000000
 


 Summary of "ao basis" -> "" (cartesian)
 ------------------------------------------------------------------------------
       Tag                 Description            Shells   Functions and Types
 ---------------- ------------------------------  ------  ---------------------
 *                     6-311++G(3df,3pd)              on all atoms 


 
                                 NWChem DFT Module
                                 -----------------
 
 
                      Basis "ao basis" -> "ao basis" (cartesian)
                      -----
  S (Sulphur)
  -----------
            Exponent  Coefficients 
       -------------- ---------------------------------------------------------
  1 S  9.34134000E+04  0.000743
  1 S  1.39617000E+04  0.005793
  1 S  3.16991000E+03  0.029954
  1 S  9.02456000E+02  0.119028
  1 S  2.97158000E+02  0.368432
  1 S  1.08702000E+02  0.577299
 
  2 S  1.08702000E+02  0.143186
  2 S  4.31553000E+01  0.624465
  2 S  1.81079000E+01  0.283366
 
  3 S  5.56009000E+00  1.000000
 
  4 S  2.13183000E+00  1.000000
 
  5 S  4.20403000E-01  1.000000
 
  6 S  1.36045000E-01  1.000000
 
  7 P  4.95040000E+02  0.008309
  7 P  1.17221000E+02  0.064024
  7 P  3.77749000E+01  0.277614
  7 P  1.40584000E+01  0.745076
 
  8 P  5.56574000E+00  0.613712
  8 P  2.26297000E+00  0.443818
 
  9 P  8.07994000E-01  1.000000
 
 10 P  2.77460000E-01  1.000000
 
 11 P  7.71410000E-02  1.000000
 
 12 S  4.05000000E-02  1.000000
 
 13 P  4.05000000E-02  1.000000
 
 14 D  2.60000000E+00  1.000000
 
 15 D  6.50000000E-01  1.000000
 
 16 D  1.62500000E-01  1.000000
 
 17 F  5.50000000E-01  1.000000
 


 Summary of "ao basis" -> "ao basis" (cartesian)
 ------------------------------------------------------------------------------
       Tag                 Description            Shells   Functions and Types
 ---------------- ------------------------------  ------  ---------------------
 S                     6-311++G(3df,3pd)            17       53   7s6p3d1f




 Summary of "ao basis" -> "ao basis" (cartesian)
 ------------------------------------------------------------------------------
       Tag                 Description            Shells   Functions and Types
 ---------------- ------------------------------  ------  ---------------------
 S                     6-311++G(3df,3pd)            17       53   7s6p3d1f


  Caching 1-el integrals 
 
            General Information
            -------------------
          SCF calculation type: DFT
          Wavefunction type:  spin polarized.
          No. of atoms     :     1
          No. of electrons :    16
           Alpha electrons :     9
            Beta electrons :     7
          Charge           :     0
          Spin multiplicity:     3
          Use of symmetry is: off; symmetry adaption is: off
          Maximum number of iterations: ***
          AO basis - number of functions:    53
                     number of shells:    17
          Convergence on energy requested:  1.00D-06
          Convergence on density requested:  1.00D-05
          Convergence on gradient requested:  5.00D-04
 
              XC Information
              --------------
                  TPSS metaGGA Exchange Functional  1.000          
             TPSS03 metaGGA Correlation Functional  1.000          
 
             Grid Information
             ----------------
          Grid used for XC integration:  medium    
          Radial quadrature: Mura-Knowles        
          Angular quadrature: Lebedev. 
          Tag              B.-S. Rad. Rad. Pts. Rad. Cut. Ang. Pts.
          ---              ---------- --------- --------- ---------
          S                   1.00       88           8.0       590
          Grid pruning is: on 
          Number of quadrature shells:    88
          Spatial weights used:  Erf1
 
          Convergence Information
          -----------------------
          Convergence aids based upon iterative change in 
          total energy or number of iterations. 
          Levelshifting, if invoked, occurs when the 
          HOMO/LUMO gap drops below (HL_TOL):  1.00D-02
          DIIS, if invoked, will attempt to extrapolate 
          using up to (NFOCK): 10 stored Fock matrices.

                    Damping( 0%)  Levelshifting(0.5)       DIIS
                  --------------- ------------------- ---------------
          dE  on:    start            ASAP                start   
          dE off:    2 iters        *** iters           *** iters 

 
      Screening Tolerance Information
      -------------------------------
          Density screening/tol_rho:  1.00D-10
          AO Gaussian exp screening on grid/accAOfunc:  14
          CD Gaussian exp screening on grid/accCDfunc:  20
          XC Gaussian exp screening on grid/accXCfunc:  20
          Schwarz screening/accCoul:  1.00D-08

 
      Superposition of Atomic Density Guess
      -------------------------------------
 
 Sum of atomic energies:        -397.48025101
 
      Non-variational initial energy
      ------------------------------

 Total energy =    -397.187110
 1-e energy   =    -549.324099
 2-e energy   =     152.136989
 HOMO         =      -0.286162
 LUMO         =      -0.286162
 
   Time after variat. SCF:      0.6
   Time prior to 1st pass:      0.6

 #quartets = 1.178D+04 #integrals = 1.645D+05 #direct =  0.0% #cached =100.0%


 Integral file          = ./S.aoints.00
 Record size in doubles =    65536    No. of integs per rec  =    43688
 Max. records in memory =        4    Max. records in file   =  8903904
 No. of bits per label  =        8    No. of bits per value  =       64


File balance: exchanges=     0  moved=     0  time=   0.0


 Grid_pts file          = ./S.gridpts.00
 Record size in doubles =  12289        No. of grid_pts per rec  =   3070
 Max. records in memory =      3        Max. recs in file   =   7752423


           Memory utilization after 1st SCF pass: 
           Heap Space remaining (MW):       12.81            12805262
          Stack Space remaining (MW):       13.11            13106652

   convergence    iter        energy       DeltaE   RMS-Dens  Diis-err    time
 ---------------- ----- ----------------- --------- --------- ---------  ------
 d= 0,ls=0.0,diis     1   -398.1199072878 -3.98D+02  5.61D-03  1.69D-01     2.4
                                                     2.29D-03  1.28D-01
 d= 0,ls=0.0,diis     2   -398.1350994324 -1.52D-02  2.62D-03  8.43D-03     2.5
                                                     2.47D-03  6.73D-03
 d= 0,ls=0.0,diis     3   -398.1376403858 -2.54D-03  8.92D-04  4.23D-03     2.6
                                                     7.05D-04  3.19D-03
 d= 0,ls=0.0,diis     4   -398.1389208332 -1.28D-03  9.82D-05  1.63D-05     2.7
                                                     5.49D-05  7.56D-06
 d= 0,ls=0.0,diis     5   -398.1389285045 -7.67D-06  1.28D-05  3.70D-07     2.8
                                                     2.02D-05  3.59D-07
 d= 0,ls=0.0,diis     6   -398.1389287394 -2.35D-07  6.43D-07  4.61D-10     2.9
                                                     9.87D-07  1.44D-09


         Total DFT energy =     -398.138928739428
      One electron energy =     -549.500897595870
           Coulomb energy =      177.012026188798
          Exchange energy =      -25.062063749492
       Correlation energy =       -0.587993582864
 Nuclear repulsion energy =        0.000000000000

 Numeric. integr. density =       15.999999999337

     Total iterative time =      2.3s


 
                    DFT Final Alpha Molecular Orbital Analysis
                    ------------------------------------------
 
 Vector    1  Occ=1.000000D+00  E=-8.840907D+01
              MO Center=  1.4D-17,  1.2D-17,  1.3D-17, r^2= 3.6D-03
   Bfn.  Coefficient  Atom+Function         Bfn.  Coefficient  Atom+Function  
  ----- ------------  ---------------      ----- ------------  ---------------
     2      0.653575  1 S  s                  1      0.411413  1 S  s          
 
 Vector    2  Occ=1.000000D+00  E=-7.791776D+00
              MO Center= -3.8D-17, -1.6D-15,  1.9D-17, r^2= 7.7D-02
   Bfn.  Coefficient  Atom+Function         Bfn.  Coefficient  Atom+Function  
  ----- ------------  ---------------      ----- ------------  ---------------
     4      0.586536  1 S  s                  3      0.513429  1 S  s          
     2     -0.320577  1 S  s                  5      0.127390  1 S  s          
     1     -0.119458  1 S  s                  6     -0.048351  1 S  s          
 
 Vector    3  Occ=1.000000D+00  E=-5.777171D+00
              MO Center= -4.4D-16,  1.6D-15,  2.1D-16, r^2= 6.9D-02
   Bfn.  Coefficient  Atom+Function         Bfn.  Coefficient  Atom+Function  
  ----- ------------  ---------------      ----- ------------  ---------------
    11      0.676118  1 S  py                 8      0.361640  1 S  py         
    10     -0.195141  1 S  px                 7     -0.104376  1 S  px         
    12      0.061653  1 S  pz                14      0.055558  1 S  py         
     9      0.032977  1 S  pz         
 
 Vector    4  Occ=1.000000D+00  E=-5.777171D+00
              MO Center=  3.7D-16,  7.1D-17, -2.2D-16, r^2= 6.9D-02
   Bfn.  Coefficient  Atom+Function         Bfn.  Coefficient  Atom+Function  
  ----- ------------  ---------------      ----- ------------  ---------------
    10      0.544279  1 S  px                12     -0.406310  1 S  pz         
     7      0.291122  1 S  px                 9     -0.217326  1 S  pz         
    11      0.194140  1 S  py                 8      0.103841  1 S  py         
    13      0.044724  1 S  px                15     -0.033387  1 S  pz         
 
 Vector    5  Occ=1.000000D+00  E=-5.757787D+00
              MO Center=  2.4D-16,  2.6D-18,  3.1D-16, r^2= 6.9D-02
   Bfn.  Coefficient  Atom+Function         Bfn.  Coefficient  Atom+Function  
  ----- ------------  ---------------      ----- ------------  ---------------
    12      0.574998  1 S  pz                10      0.406133  1 S  px         
     9      0.307570  1 S  pz                 7      0.217243  1 S  px         
    11      0.064786  1 S  py                15      0.046042  1 S  pz         
     8      0.034654  1 S  py                13      0.032520  1 S  px         
 
 Vector    6  Occ=1.000000D+00  E=-6.737477D-01
              MO Center= -4.0D-15, -1.2D-14,  1.9D-15, r^2= 9.3D-01
   Bfn.  Coefficient  Atom+Function         Bfn.  Coefficient  Atom+Function  
  ----- ------------  ---------------      ----- ------------  ---------------
     5      0.684936  1 S  s                  6      0.676979  1 S  s          
     4     -0.393060  1 S  s                  3     -0.232444  1 S  s          
     2      0.104987  1 S  s                 43     -0.077327  1 S  dzz        
    38     -0.070387  1 S  dxx               41     -0.063653  1 S  dyy        
    34     -0.040661  1 S  dxz               37     -0.038405  1 S  dzz        
 
 Vector    7  Occ=1.000000D+00  E=-3.046506D-01
              MO Center= -4.0D-15,  8.4D-15,  2.4D-16, r^2= 1.4D+00
   Bfn.  Coefficient  Atom+Function         Bfn.  Coefficient  Atom+Function  
  ----- ------------  ---------------      ----- ------------  ---------------
    17      0.631276  1 S  py                14      0.289734  1 S  py         
    20      0.268231  1 S  py                11     -0.203094  1 S  py         
    16     -0.132281  1 S  px                 8     -0.106456  1 S  py         
    13     -0.060713  1 S  px                19     -0.056207  1 S  px         
    24     -0.042898  1 S  py                10      0.042557  1 S  px         
 
 Vector    8  Occ=1.000000D+00  E=-3.046506D-01
              MO Center=  3.9D-15, -2.5D-15, -2.1D-15, r^2= 1.4D+00
   Bfn.  Coefficient  Atom+Function         Bfn.  Coefficient  Atom+Function  
  ----- ------------  ---------------      ----- ------------  ---------------
    16      0.511412  1 S  px                18     -0.374788  1 S  pz         
    13      0.234721  1 S  px                19      0.217300  1 S  px         
    15     -0.172015  1 S  pz                10     -0.164531  1 S  px         
    21     -0.159248  1 S  pz                12      0.120577  1 S  pz         
    17      0.120407  1 S  py                 7     -0.086242  1 S  px         
 
 Vector    9  Occ=1.000000D+00  E=-2.541096D-01
              MO Center= -3.0D-16, -6.1D-15,  2.6D-15, r^2= 1.5D+00
   Bfn.  Coefficient  Atom+Function         Bfn.  Coefficient  Atom+Function  
  ----- ------------  ---------------      ----- ------------  ---------------
    18      0.532189  1 S  pz                16      0.375897  1 S  px         
    21      0.246075  1 S  pz                15      0.229168  1 S  pz         
    19      0.173808  1 S  px                12     -0.164383  1 S  pz         
    13      0.161866  1 S  px                10     -0.116107  1 S  px         
     9     -0.086471  1 S  pz                 7     -0.061076  1 S  px         
 
 Vector   10  Occ=0.000000D+00  E= 4.545992D-03
              MO Center= -4.6D-14,  2.6D-14, -2.5D-14, r^2= 8.4D+00
   Bfn.  Coefficient  Atom+Function         Bfn.  Coefficient  Atom+Function  
  ----- ------------  ---------------      ----- ------------  ---------------
    22      1.622333  1 S  s                  5     -0.380562  1 S  s          
    43     -0.240266  1 S  dzz               38     -0.233468  1 S  dxx        
    41     -0.226872  1 S  dyy                6     -0.220437  1 S  s          
     4      0.115055  1 S  s                 35     -0.065171  1 S  dyy        
    32     -0.060499  1 S  dxx               37     -0.055683  1 S  dzz        
 
 Vector   11  Occ=0.000000D+00  E= 4.341939D-02
              MO Center=  2.2D-14, -2.6D-14, -1.4D-14, r^2= 1.2D+01
   Bfn.  Coefficient  Atom+Function         Bfn.  Coefficient  Atom+Function  
  ----- ------------  ---------------      ----- ------------  ---------------
    24      1.224110  1 S  py                23     -0.935747  1 S  px         
    20     -0.625082  1 S  py                25      0.523026  1 S  pz         
    19      0.477831  1 S  px                21     -0.267079  1 S  pz         
    14     -0.119201  1 S  py                13      0.091121  1 S  px         
    50     -0.074363  1 S  fyyy              45     -0.072456  1 S  fxxy       
 
 Vector   12  Occ=0.000000D+00  E= 4.342043D-02
              MO Center= -1.5D-15,  9.7D-16, -1.5D-16, r^2= 1.2D+01
   Bfn.  Coefficient  Atom+Function         Bfn.  Coefficient  Atom+Function  
  ----- ------------  ---------------      ----- ------------  ---------------
    24      1.061575  1 S  py                23      0.947733  1 S  px         
    25     -0.788956  1 S  pz                20     -0.542079  1 S  py         
    19     -0.483948  1 S  px                21      0.402866  1 S  pz         
    14     -0.103373  1 S  py                13     -0.092288  1 S  px         
    15      0.076826  1 S  pz                50     -0.064487  1 S  fyyy       
 
 Vector   13  Occ=0.000000D+00  E= 5.005830D-02
              MO Center=  2.3D-14,  4.4D-15,  3.3D-14, r^2= 1.2D+01
   Bfn.  Coefficient  Atom+Function         Bfn.  Coefficient  Atom+Function  
  ----- ------------  ---------------      ----- ------------  ---------------
    25      1.368303  1 S  pz                23      0.966429  1 S  px         
    21     -0.748920  1 S  pz                19     -0.528963  1 S  px         
    24      0.154134  1 S  py                15     -0.131977  1 S  pz         
    13     -0.093215  1 S  px                51     -0.087672  1 S  fyyz       
    20     -0.084366  1 S  py                53     -0.081576  1 S  fzzz       
 
 Vector   14  Occ=0.000000D+00  E= 1.615751D-01
              MO Center=  4.6D-16,  5.1D-15, -9.2D-16, r^2= 2.4D+00
   Bfn.  Coefficient  Atom+Function         Bfn.  Coefficient  Atom+Function  
  ----- ------------  ---------------      ----- ------------  ---------------
    39      0.952737  1 S  dxy               42     -0.567991  1 S  dyz        
    40     -0.480391  1 S  dxz               41     -0.465729  1 S  dyy        
    33      0.292485  1 S  dxy               38      0.264076  1 S  dxx        
    43      0.201653  1 S  dzz               36     -0.174370  1 S  dyz        
    34     -0.147477  1 S  dxz               35     -0.142976  1 S  dyy        
 
 Vector   15  Occ=0.000000D+00  E= 1.615751D-01
              MO Center= -2.0D-15,  2.6D-15,  1.0D-15, r^2= 2.4D+00
   Bfn.  Coefficient  Atom+Function         Bfn.  Coefficient  Atom+Function  
  ----- ------------  ---------------      ----- ------------  ---------------
    39      0.705560  1 S  dxy               42     -0.622430  1 S  dyz        
    41      0.550613  1 S  dyy               40      0.498942  1 S  dxz        
    38     -0.409472  1 S  dxx               33      0.216603  1 S  dxy        
    36     -0.191083  1 S  dyz               35      0.169035  1 S  dyy        
    34      0.153172  1 S  dxz               43     -0.141142  1 S  dzz        
 
 Vector   16  Occ=0.000000D+00  E= 1.853906D-01
              MO Center=  5.5D-17, -9.9D-16, -2.0D-15, r^2= 2.5D+00
   Bfn.  Coefficient  Atom+Function         Bfn.  Coefficient  Atom+Function  
  ----- ------------  ---------------      ----- ------------  ---------------
    43     -0.697958  1 S  dzz               38      0.690566  1 S  dxx        
    40      0.484712  1 S  dxz               37     -0.194323  1 S  dzz        
    32      0.192264  1 S  dxx               39      0.156504  1 S  dxy        
    34      0.134951  1 S  dxz               31     -0.056468  1 S  dzz        
    26      0.055870  1 S  dxx               33      0.043573  1 S  dxy        
 
 Vector   17  Occ=0.000000D+00  E= 1.853906D-01
              MO Center= -2.2D-15,  8.7D-15, -1.7D-15, r^2= 2.5D+00
   Bfn.  Coefficient  Atom+Function         Bfn.  Coefficient  Atom+Function  
  ----- ------------  ---------------      ----- ------------  ---------------
    42      1.190343  1 S  dyz               39      0.831677  1 S  dxy        
    36      0.331410  1 S  dyz               33      0.231552  1 S  dxy        
    40     -0.153994  1 S  dxz               41      0.134778  1 S  dyy        
    30      0.096303  1 S  dyz               38     -0.082875  1 S  dxx        
    27      0.067286  1 S  dxy               43     -0.051902  1 S  dzz        
 
 Vector   18  Occ=0.000000D+00  E= 1.952315D-01
              MO Center= -1.5D-15, -7.0D-17, -1.1D-15, r^2= 2.5D+00
   Bfn.  Coefficient  Atom+Function         Bfn.  Coefficient  Atom+Function  
  ----- ------------  ---------------      ----- ------------  ---------------
    40      1.204225  1 S  dxz               41     -0.447622  1 S  dyy        
    43      0.394020  1 S  dzz               34      0.321366  1 S  dxz        
    42      0.192098  1 S  dyz               39      0.135683  1 S  dxy        
    35     -0.122135  1 S  dyy               37      0.102470  1 S  dzz        
    28      0.095989  1 S  dxz               36      0.051264  1 S  dyz        
 
 Vector   19  Occ=0.000000D+00  E= 2.834673D-01
              MO Center=  3.5D-14, -5.1D-14, -1.8D-14, r^2= 8.6D+00
   Bfn.  Coefficient  Atom+Function         Bfn.  Coefficient  Atom+Function  
  ----- ------------  ---------------      ----- ------------  ---------------
    20      2.340978  1 S  py                19     -1.666363  1 S  px         
    24     -1.520914  1 S  py                17     -1.496586  1 S  py         
    23      1.082623  1 S  px                16      1.065305  1 S  px         
    21      0.913244  1 S  pz                25     -0.593327  1 S  pz         
    18     -0.583837  1 S  pz                52      0.352241  1 S  fyzz       
 
 Vector   20  Occ=0.000000D+00  E= 2.834684D-01
              MO Center= -4.0D-14, -4.8D-14,  3.9D-14, r^2= 8.6D+00
   Bfn.  Coefficient  Atom+Function         Bfn.  Coefficient  Atom+Function  
  ----- ------------  ---------------      ----- ------------  ---------------
    20      1.880014  1 S  py                19      1.820392  1 S  px         
    21     -1.497560  1 S  pz                24     -1.221433  1 S  py         
    17     -1.201889  1 S  py                23     -1.182697  1 S  px         
    16     -1.163773  1 S  px                25      0.972957  1 S  pz         
    18      0.957385  1 S  pz                45      0.279685  1 S  fxxy       
 
 Vector   21  Occ=0.000000D+00  E= 2.989355D-01
              MO Center= -3.2D-14, -1.3D-14, -4.5D-14, r^2= 8.4D+00
   Bfn.  Coefficient  Atom+Function         Bfn.  Coefficient  Atom+Function  
  ----- ------------  ---------------      ----- ------------  ---------------
    21      2.450328  1 S  pz                19      1.730694  1 S  px         
    18     -1.644250  1 S  pz                25     -1.564206  1 S  pz         
    16     -1.161354  1 S  px                23     -1.104815  1 S  px         
    46      0.392130  1 S  fxxz              53      0.386796  1 S  fzzz       
    51      0.376466  1 S  fyyz              49      0.288369  1 S  fxzz       
 
 Vector   22  Occ=0.000000D+00  E= 3.184901D-01
              MO Center=  4.1D-14,  8.8D-14,  3.1D-14, r^2= 6.6D+00
   Bfn.  Coefficient  Atom+Function         Bfn.  Coefficient  Atom+Function  
  ----- ------------  ---------------      ----- ------------  ---------------
     6      2.460834  1 S  s                 22      1.762988  1 S  s          
    38     -1.682472  1 S  dxx               41     -1.681706  1 S  dyy        
    43     -1.683261  1 S  dzz               37     -0.365559  1 S  dzz        
    32     -0.351250  1 S  dxx               35     -0.337368  1 S  dyy        
     4     -0.307004  1 S  s                  3     -0.191301  1 S  s          
 
 Vector   23  Occ=0.000000D+00  E= 8.810007D-01
              MO Center= -5.2D-16, -1.3D-15,  1.1D-16, r^2= 1.6D+00
   Bfn.  Coefficient  Atom+Function         Bfn.  Coefficient  Atom+Function  
  ----- ------------  ---------------      ----- ------------  ---------------
    33      1.196952  1 S  dxy               39     -0.890167  1 S  dxy        
    36     -0.738800  1 S  dyz               42      0.549441  1 S  dyz        
    34     -0.496727  1 S  dxz               35     -0.473207  1 S  dyy        
    40      0.369413  1 S  dxz               41      0.351922  1 S  dyy        
    32      0.256162  1 S  dxx               37      0.217045  1 S  dzz        
 
 Vector   24  Occ=0.000000D+00  E= 8.810007D-01
              MO Center=  1.1D-15,  1.3D-15, -9.1D-16, r^2= 1.6D+00
   Bfn.  Coefficient  Atom+Function         Bfn.  Coefficient  Atom+Function  
  ----- ------------  ---------------      ----- ------------  ---------------
    33      0.702071  1 S  dxy               35      0.698996  1 S  dyy        
    36     -0.653402  1 S  dyz               34      0.640692  1 S  dxz        
    39     -0.522127  1 S  dxy               41     -0.519839  1 S  dyy        
    32     -0.509538  1 S  dxx               42      0.485932  1 S  dyz        
    40     -0.476480  1 S  dxz               38      0.378941  1 S  dxx        
 
 Vector   25  Occ=0.000000D+00  E= 9.129103D-01
              MO Center=  1.9D-15, -5.0D-16, -5.3D-16, r^2= 1.5D+00
   Bfn.  Coefficient  Atom+Function         Bfn.  Coefficient  Atom+Function  
  ----- ------------  ---------------      ----- ------------  ---------------
    37     -0.805931  1 S  dzz               32      0.798217  1 S  dxx        
    43      0.583740  1 S  dzz               38     -0.578153  1 S  dxx        
    34      0.560860  1 S  dxz               40     -0.406234  1 S  dxz        
    33      0.175687  1 S  dxy               31     -0.136575  1 S  dzz        
    26      0.135268  1 S  dxx               39     -0.127251  1 S  dxy        
 
 Vector   26  Occ=0.000000D+00  E= 9.129103D-01
              MO Center= -3.2D-16, -1.6D-15, -2.7D-16, r^2= 1.5D+00
   Bfn.  Coefficient  Atom+Function         Bfn.  Coefficient  Atom+Function  
  ----- ------------  ---------------      ----- ------------  ---------------
    36      1.374949  1 S  dyz               42     -0.995884  1 S  dyz        
    33      0.961673  1 S  dxy               39     -0.696545  1 S  dxy        
    30      0.233002  1 S  dyz               34     -0.174914  1 S  dxz        
    27      0.162967  1 S  dxy               35      0.155734  1 S  dyy        
    40      0.126691  1 S  dxz               41     -0.112799  1 S  dyy        
 
 Vector   27  Occ=0.000000D+00  E= 9.252134D-01
              MO Center= -1.1D-15, -6.2D-16, -7.9D-16, r^2= 1.5D+00
   Bfn.  Coefficient  Atom+Function         Bfn.  Coefficient  Atom+Function  
  ----- ------------  ---------------      ----- ------------  ---------------
    34      1.382992  1 S  dxz               40     -0.992081  1 S  dxz        
    35     -0.530102  1 S  dyy               43     -0.485722  1 S  dzz        
    37      0.436480  1 S  dzz                6      0.402101  1 S  s          
    28      0.235945  1 S  dxz               36      0.220614  1 S  dyz        
    41      0.207651  1 S  dyy               42     -0.158257  1 S  dyz        
 
 Vector   28  Occ=0.000000D+00  E= 1.046111D+00
              MO Center=  1.6D-14, -1.9D-14, -6.7D-15, r^2= 3.8D+00
   Bfn.  Coefficient  Atom+Function         Bfn.  Coefficient  Atom+Function  
  ----- ------------  ---------------      ----- ------------  ---------------
    17      4.440441  1 S  py                16     -3.478608  1 S  px         
    18      1.956708  1 S  pz                45     -1.708836  1 S  fxxy       
    50     -1.710790  1 S  fyyy              20     -1.699076  1 S  py         
    52     -1.704914  1 S  fyzz              14     -1.499089  1 S  py         
    44      1.338161  1 S  fxxx              47      1.341081  1 S  fxyy       
 
 Vector   29  Occ=0.000000D+00  E= 1.046112D+00
              MO Center= -3.6D-14, -4.3D-14,  3.0D-14, r^2= 3.8D+00
   Bfn.  Coefficient  Atom+Function         Bfn.  Coefficient  Atom+Function  
  ----- ------------  ---------------      ----- ------------  ---------------
    17      3.953487  1 S  py                16      3.432373  1 S  px         
    18     -2.869791  1 S  pz                50     -1.523179  1 S  fyyy       
    20     -1.512750  1 S  py                45     -1.520173  1 S  fxxy       
    52     -1.519213  1 S  fyzz              14     -1.334693  1 S  py         
    44     -1.320375  1 S  fxxx              47     -1.321641  1 S  fxyy       
 
 Vector   30  Occ=0.000000D+00  E= 1.075049D+00
              MO Center=  2.7D-15,  3.8D-15,  4.4D-15, r^2= 3.7D+00
   Bfn.  Coefficient  Atom+Function         Bfn.  Coefficient  Atom+Function  
  ----- ------------  ---------------      ----- ------------  ---------------
    18      4.849753  1 S  pz                16      3.425478  1 S  px         
    46     -1.871749  1 S  fxxz              51     -1.880185  1 S  fyyz       
    53     -1.874622  1 S  fzzz              21     -1.834060  1 S  pz         
    15     -1.639964  1 S  pz                44     -1.326130  1 S  fxxx       
    47     -1.328013  1 S  fxyy              49     -1.315912  1 S  fxzz       
 
 Vector   31  Occ=0.000000D+00  E= 1.208438D+00
              MO Center=  2.0D-14,  6.5D-14, -2.5D-14, r^2= 3.5D+00
   Bfn.  Coefficient  Atom+Function         Bfn.  Coefficient  Atom+Function  
  ----- ------------  ---------------      ----- ------------  ---------------
     6     10.670657  1 S  s                  5     -3.930003  1 S  s          
    38     -3.217851  1 S  dxx               41     -3.229885  1 S  dyy        
    43     -3.205448  1 S  dzz               37     -1.116118  1 S  dzz        
    32     -1.101527  1 S  dxx               35     -1.087371  1 S  dyy        
    22      1.060087  1 S  s                  4      0.250030  1 S  s          
 
 Vector   32  Occ=0.000000D+00  E= 1.522846D+00
              MO Center=  5.5D-16,  2.0D-15, -6.2D-16, r^2= 1.1D+00
   Bfn.  Coefficient  Atom+Function         Bfn.  Coefficient  Atom+Function  
  ----- ------------  ---------------      ----- ------------  ---------------
    47      1.881402  1 S  fxyy              51     -1.367914  1 S  fyyz       
    46      0.914171  1 S  fxxz              49     -0.656344  1 S  fxzz       
    45     -0.433878  1 S  fxxy              44     -0.408353  1 S  fxxx       
    48      0.188955  1 S  fxyz              53      0.151248  1 S  fzzz       
    50      0.115495  1 S  fyyy              52      0.087394  1 S  fyzz       
 
 Vector   33  Occ=0.000000D+00  E= 1.522846D+00
              MO Center=  4.6D-16,  2.0D-15, -5.5D-16, r^2= 1.1D+00
   Bfn.  Coefficient  Atom+Function         Bfn.  Coefficient  Atom+Function  
  ----- ------------  ---------------      ----- ------------  ---------------
    48      2.241236  1 S  fxyz              45     -1.521602  1 S  fxxy       
    52     -0.794518  1 S  fyzz              50      0.772040  1 S  fyyy       
    47     -0.407177  1 S  fxyy              44      0.145559  1 S  fxxx       
    46     -0.136993  1 S  fxxz              53      0.036785  1 S  fzzz       
    49     -0.029500  1 S  fxzz              51      0.026637  1 S  fyyz       
 
 Vector   34  Occ=0.000000D+00  E= 1.552462D+00
              MO Center=  3.3D-16,  1.7D-15,  1.4D-16, r^2= 1.1D+00
   Bfn.  Coefficient  Atom+Function         Bfn.  Coefficient  Atom+Function  
  ----- ------------  ---------------      ----- ------------  ---------------
    52      1.546805  1 S  fyzz              45     -1.200623  1 S  fxxy       
    47     -0.929091  1 S  fxyy              48     -0.854236  1 S  fxyz       
    51     -0.852871  1 S  fyyz              49     -0.742537  1 S  fxzz       
    44      0.557209  1 S  fxxx              53      0.235276  1 S  fzzz       
    46      0.147042  1 S  fxxz              50     -0.115394  1 S  fyyy       
 
 Vector   35  Occ=0.000000D+00  E= 1.552462D+00
              MO Center=  2.0D-16,  1.6D-15,  1.5D-16, r^2= 1.1D+00
   Bfn.  Coefficient  Atom+Function         Bfn.  Coefficient  Atom+Function  
  ----- ------------  ---------------      ----- ------------  ---------------
    45      1.354126  1 S  fxxy              51     -1.292901  1 S  fyyz       
    48      0.957899  1 S  fxyz              52     -0.955551  1 S  fyzz       
    49     -0.855566  1 S  fxzz              47     -0.629457  1 S  fxyy       
    44      0.495008  1 S  fxxx              53      0.478340  1 S  fzzz       
    46     -0.142119  1 S  fxxz              50     -0.132858  1 S  fyyy       
 
 Vector   36  Occ=0.000000D+00  E= 1.571678D+00
              MO Center= -5.4D-16,  2.1D-15, -3.4D-16, r^2= 1.1D+00
   Bfn.  Coefficient  Atom+Function         Bfn.  Coefficient  Atom+Function  
  ----- ------------  ---------------      ----- ------------  ---------------
    48      2.744073  1 S  fxyz              52      1.375503  1 S  fyzz       
    50     -0.598980  1 S  fyyy              46     -0.484645  1 S  fxxz       
    51      0.443877  1 S  fyyz              47      0.421352  1 S  fxyy       
    45      0.316198  1 S  fxxy              49     -0.210244  1 S  fxzz       
    44     -0.064293  1 S  fxxx              17      0.042667  1 S  py         
 
 Vector   37  Occ=0.000000D+00  E= 1.571678D+00
              MO Center=  7.0D-16,  2.3D-16, -4.7D-16, r^2= 1.1D+00
   Bfn.  Coefficient  Atom+Function         Bfn.  Coefficient  Atom+Function  
  ----- ------------  ---------------      ----- ------------  ---------------
    46      2.071128  1 S  fxxz              53     -0.809487  1 S  fzzz       
    48      0.590596  1 S  fxyz              49     -0.550146  1 S  fxzz       
    47     -0.440150  1 S  fxyy              51      0.419461  1 S  fyyz       
    45      0.312404  1 S  fxxy              44      0.301597  1 S  fxxx       
    50     -0.087707  1 S  fyyy              52     -0.064694  1 S  fyzz       
 
 Vector   38  Occ=0.000000D+00  E= 1.578194D+00
              MO Center=  2.1D-16,  9.9D-16,  6.1D-17, r^2= 1.1D+00
   Bfn.  Coefficient  Atom+Function         Bfn.  Coefficient  Atom+Function  
  ----- ------------  ---------------      ----- ------------  ---------------
    49      1.972333  1 S  fxzz              51     -1.190951  1 S  fyyz       
    47     -0.841194  1 S  fxyy              46      0.770638  1 S  fxxz       
    48      0.642161  1 S  fxyz              44     -0.403474  1 S  fxxx       
    52      0.314624  1 S  fyzz              50     -0.138033  1 S  fyyy       
    53      0.102688  1 S  fzzz              45      0.086829  1 S  fxxy       
 
 Vector   39  Occ=0.000000D+00  E= 2.932267D+00
              MO Center= -3.8D-16,  5.4D-16,  4.7D-16, r^2= 1.7D+00
   Bfn.  Coefficient  Atom+Function         Bfn.  Coefficient  Atom+Function  
  ----- ------------  ---------------      ----- ------------  ---------------
    17      4.497894  1 S  py                16     -3.448837  1 S  px         
    45     -2.766179  1 S  fxxy              50     -2.762047  1 S  fyyy       
    52     -2.774347  1 S  fyzz              44      2.122077  1 S  fxxx       
    47      2.116041  1 S  fxyy              49      2.119562  1 S  fxzz       
    18      1.929205  1 S  pz                51     -1.187235  1 S  fyyz       
 
 Vector   40  Occ=0.000000D+00  E= 2.932268D+00
              MO Center= -1.5D-15, -1.3D-15,  8.9D-16, r^2= 1.7D+00
   Bfn.  Coefficient  Atom+Function         Bfn.  Coefficient  Atom+Function  
  ----- ------------  ---------------      ----- ------------  ---------------
    17      3.913470  1 S  py                16      3.481618  1 S  px         
    18     -2.900076  1 S  pz                45     -2.409365  1 S  fxxy       
    50     -2.403167  1 S  fyyy              52     -2.411266  1 S  fyzz       
    44     -2.142247  1 S  fxxx              47     -2.139548  1 S  fxyy       
    49     -2.136314  1 S  fxzz              53      1.788089  1 S  fzzz       
 
 Vector   41  Occ=0.000000D+00  E= 2.969570D+00
              MO Center=  2.2D-15, -6.8D-16,  1.8D-15, r^2= 1.7D+00
   Bfn.  Coefficient  Atom+Function         Bfn.  Coefficient  Atom+Function  
  ----- ------------  ---------------      ----- ------------  ---------------
    18      4.849950  1 S  pz                16      3.425623  1 S  px         
    46     -2.994405  1 S  fxxz              51     -2.976239  1 S  fyyz       
    53     -2.988219  1 S  fzzz              49     -2.128237  1 S  fxzz       
    44     -2.106235  1 S  fxxx              47     -2.102181  1 S  fxyy       
    21     -1.058565  1 S  pz                19     -0.747687  1 S  px         
 
 Vector   42  Occ=0.000000D+00  E= 3.714132D+00
              MO Center=  4.1D-15, -2.2D-16, -1.9D-15, r^2= 1.4D+00
   Bfn.  Coefficient  Atom+Function         Bfn.  Coefficient  Atom+Function  
  ----- ------------  ---------------      ----- ------------  ---------------
     5      8.538192  1 S  s                  6      6.756224  1 S  s          
    32     -4.653672  1 S  dxx               35     -4.661878  1 S  dyy        
    37     -4.645215  1 S  dzz                4     -2.169085  1 S  s          
    38     -1.899083  1 S  dxx               41     -1.896180  1 S  dyy        
    43     -1.902075  1 S  dzz                3     -1.113367  1 S  s          
 
 Vector   43  Occ=0.000000D+00  E= 4.488336D+00
              MO Center= -7.9D-16,  6.9D-16,  4.2D-16, r^2= 4.5D-01
   Bfn.  Coefficient  Atom+Function         Bfn.  Coefficient  Atom+Function  
  ----- ------------  ---------------      ----- ------------  ---------------
    27      1.421344  1 S  dxy               30     -1.089760  1 S  dyz        
    33     -0.984212  1 S  dxy               36      0.754606  1 S  dyz        
    29      0.380904  1 S  dyy               26     -0.332815  1 S  dxx        
    39      0.322806  1 S  dxy               28      0.310004  1 S  dxz        
    35     -0.263758  1 S  dyy               42     -0.247499  1 S  dyz        
 
 Vector   44  Occ=0.000000D+00  E= 4.488336D+00
              MO Center=  5.2D-16, -5.8D-16, -4.4D-16, r^2= 4.5D-01
   Bfn.  Coefficient  Atom+Function         Bfn.  Coefficient  Atom+Function  
  ----- ------------  ---------------      ----- ------------  ---------------
    29      0.891064  1 S  dyy               28      0.877555  1 S  dxz        
    27     -0.719494  1 S  dxy               35     -0.617019  1 S  dyy        
    34     -0.607665  1 S  dxz               26     -0.563829  1 S  dxx        
    33      0.498215  1 S  dxy               32      0.390424  1 S  dxx        
    31     -0.327236  1 S  dzz               30      0.307399  1 S  dyz        
 
 Vector   45  Occ=0.000000D+00  E= 4.513990D+00
              MO Center= -1.2D-15,  3.2D-16,  1.4D-15, r^2= 4.5D-01
   Bfn.  Coefficient  Atom+Function         Bfn.  Coefficient  Atom+Function  
  ----- ------------  ---------------      ----- ------------  ---------------
    26      0.918296  1 S  dxx               31     -0.900997  1 S  dzz        
    28      0.663716  1 S  dxz               32     -0.637639  1 S  dxx        
    37      0.625628  1 S  dzz               34     -0.460866  1 S  dxz        
    30     -0.255042  1 S  dyz               38      0.208362  1 S  dxx        
    43     -0.204437  1 S  dzz               36      0.177094  1 S  dyz        
 
 Vector   46  Occ=0.000000D+00  E= 4.513990D+00
              MO Center=  2.7D-16,  9.8D-16, -3.4D-16, r^2= 4.5D-01
   Bfn.  Coefficient  Atom+Function         Bfn.  Coefficient  Atom+Function  
  ----- ------------  ---------------      ----- ------------  ---------------
    30      1.551716  1 S  dyz               27      1.117278  1 S  dxy        
    36     -1.077469  1 S  dyz               33     -0.775807  1 S  dxy        
    42      0.352086  1 S  dyz               39      0.253511  1 S  dxy        
    31     -0.207345  1 S  dzz               29      0.177466  1 S  dyy        
    37      0.143975  1 S  dzz               35     -0.123228  1 S  dyy        
 
 Vector   47  Occ=0.000000D+00  E= 4.523364D+00
              MO Center= -8.1D-16, -2.0D-16, -6.0D-16, r^2= 4.5D-01
   Bfn.  Coefficient  Atom+Function         Bfn.  Coefficient  Atom+Function  
  ----- ------------  ---------------      ----- ------------  ---------------
    28      1.580611  1 S  dxz               34     -1.098834  1 S  dxz        
    29     -0.576315  1 S  dyy               31      0.528384  1 S  dzz        
    37     -0.515041  1 S  dzz               40      0.358596  1 S  dxz        
     5      0.263623  1 S  s                 30      0.252137  1 S  dyz        
    35      0.252941  1 S  dyy               27      0.178090  1 S  dxy        
 
 Vector   48  Occ=0.000000D+00  E= 1.001314D+01
              MO Center=  1.5D-15, -2.3D-15, -1.3D-16, r^2= 6.1D-01
   Bfn.  Coefficient  Atom+Function         Bfn.  Coefficient  Atom+Function  
  ----- ------------  ---------------      ----- ------------  ---------------
     5     19.112132  1 S  s                 32     -6.272860  1 S  dxx        
    35     -6.273830  1 S  dyy               37     -6.271860  1 S  dzz        
    26     -3.381286  1 S  dxx               29     -3.380404  1 S  dyy        
    31     -3.382195  1 S  dzz                3     -1.957277  1 S  s          
     6      1.027412  1 S  s                  4     -0.574004  1 S  s          
 
 Vector   49  Occ=0.000000D+00  E= 1.839757D+01
              MO Center= -2.6D-15,  3.5D-15,  1.5D-15, r^2= 2.2D-01
   Bfn.  Coefficient  Atom+Function         Bfn.  Coefficient  Atom+Function  
  ----- ------------  ---------------      ----- ------------  ---------------
    17      1.431443  1 S  py                11     -1.164066  1 S  py         
    16     -1.059260  1 S  px                45     -0.992450  1 S  fxxy       
    50     -0.992507  1 S  fyyy              52     -0.992342  1 S  fyzz       
     8      0.937982  1 S  py                10      0.861402  1 S  px         
    44      0.734394  1 S  fxxx              47      0.734474  1 S  fxyy       
 
 Vector   50  Occ=0.000000D+00  E= 1.839757D+01
              MO Center=  1.6D-16,  2.3D-16, -1.8D-16, r^2= 2.2D-01
   Bfn.  Coefficient  Atom+Function         Bfn.  Coefficient  Atom+Function  
  ----- ------------  ---------------      ----- ------------  ---------------
    17      1.198730  1 S  py                16      1.110496  1 S  px         
    11     -0.974821  1 S  py                18     -0.919430  1 S  pz         
    10     -0.903069  1 S  px                45     -0.831071  1 S  fxxy       
    50     -0.831152  1 S  fyyy              52     -0.831048  1 S  fyzz       
     8      0.785492  1 S  py                44     -0.769917  1 S  fxxx       
 
 Vector   51  Occ=0.000000D+00  E= 1.841868D+01
              MO Center= -5.8D-16, -1.2D-16, -1.0D-15, r^2= 2.2D-01
   Bfn.  Coefficient  Atom+Function         Bfn.  Coefficient  Atom+Function  
  ----- ------------  ---------------      ----- ------------  ---------------
    18      1.524780  1 S  pz                12     -1.240396  1 S  pz         
    16      1.076985  1 S  px                46     -1.057348  1 S  fxxz       
    51     -1.057578  1 S  fyyz              53     -1.057426  1 S  fzzz       
     9      0.999191  1 S  pz                10     -0.876119  1 S  px         
    44     -0.746939  1 S  fxxx              47     -0.746990  1 S  fxyy       
 
 Vector   52  Occ=0.000000D+00  E= 2.479225D+01
              MO Center=  1.8D-15, -1.2D-15,  1.3D-16, r^2= 2.6D-01
   Bfn.  Coefficient  Atom+Function         Bfn.  Coefficient  Atom+Function  
  ----- ------------  ---------------      ----- ------------  ---------------
     5     16.163634  1 S  s                  4     15.756467  1 S  s          
     3    -12.053216  1 S  s                 26     -6.811779  1 S  dxx        
    29     -6.811669  1 S  dyy               31     -6.811892  1 S  dzz        
    32     -4.812936  1 S  dxx               35     -4.813040  1 S  dyy        
    37     -4.812830  1 S  dzz                2      0.664409  1 S  s          
 
 Vector   53  Occ=0.000000D+00  E= 2.190975D+02
              MO Center=  6.5D-18,  3.9D-17,  5.3D-18, r^2= 3.2D-02
   Bfn.  Coefficient  Atom+Function         Bfn.  Coefficient  Atom+Function  
  ----- ------------  ---------------      ----- ------------  ---------------
     4      7.654692  1 S  s                  3     -6.329248  1 S  s          
     5      5.373165  1 S  s                 26     -2.766742  1 S  dxx        
    29     -2.766741  1 S  dyy               31     -2.766743  1 S  dzz        
     2      2.291562  1 S  s                  1     -1.625391  1 S  s          
    32     -1.613116  1 S  dxx               35     -1.613118  1 S  dyy        
 
 
                     DFT Final Beta Molecular Orbital Analysis
                     -----------------------------------------
 
 Vector    1  Occ=1.000000D+00  E=-8.839850D+01
              MO Center=  1.3D-17,  1.4D-17,  1.4D-17, r^2= 3.6D-03
   Bfn.  Coefficient  Atom+Function         Bfn.  Coefficient  Atom+Function  
  ----- ------------  ---------------      ----- ------------  ---------------
     2      0.653597  1 S  s                  1      0.411447  1 S  s          
 
 Vector    2  Occ=1.000000D+00  E=-7.782817D+00
              MO Center= -1.1D-16, -9.3D-16, -3.6D-16, r^2= 7.7D-02
   Bfn.  Coefficient  Atom+Function         Bfn.  Coefficient  Atom+Function  
  ----- ------------  ---------------      ----- ------------  ---------------
     4      0.593327  1 S  s                  3      0.510850  1 S  s          
     2     -0.320334  1 S  s                  1     -0.119412  1 S  s          
     5      0.117633  1 S  s                  6     -0.048126  1 S  s          
 
 Vector    3  Occ=1.000000D+00  E=-5.759847D+00
              MO Center= -4.8D-16,  6.7D-16,  2.8D-16, r^2= 6.9D-02
   Bfn.  Coefficient  Atom+Function         Bfn.  Coefficient  Atom+Function  
  ----- ------------  ---------------      ----- ------------  ---------------
    11      0.528456  1 S  py                10     -0.410960  1 S  px         
     8      0.281507  1 S  py                12      0.230728  1 S  pz         
     7     -0.218917  1 S  px                 9      0.122908  1 S  pz         
    14      0.041575  1 S  py                13     -0.032331  1 S  px         
 
 Vector    4  Occ=1.000000D+00  E=-5.759847D+00
              MO Center=  3.9D-16,  3.3D-16, -3.2D-16, r^2= 6.9D-02
   Bfn.  Coefficient  Atom+Function         Bfn.  Coefficient  Atom+Function  
  ----- ------------  ---------------      ----- ------------  ---------------
    11      0.466811  1 S  py                10      0.408681  1 S  px         
    12     -0.341257  1 S  pz                 8      0.248669  1 S  py         
     7      0.217703  1 S  px                 9     -0.181787  1 S  pz         
    14      0.036725  1 S  py                13      0.032152  1 S  px         
    15     -0.026847  1 S  pz         
 
 Vector    5  Occ=1.000000D+00  E=-5.752249D+00
              MO Center=  3.2D-16,  5.5D-17,  5.6D-16, r^2= 6.9D-02
   Bfn.  Coefficient  Atom+Function         Bfn.  Coefficient  Atom+Function  
  ----- ------------  ---------------      ----- ------------  ---------------
    12      0.575647  1 S  pz                10      0.406592  1 S  px         
     9      0.307400  1 S  pz                 7      0.217124  1 S  px         
    11      0.064859  1 S  py                15      0.045324  1 S  pz         
     8      0.034635  1 S  py                13      0.032013  1 S  px         
 
 Vector    6  Occ=1.000000D+00  E=-5.857480D-01
              MO Center=  6.4D-17,  6.6D-15, -3.7D-15, r^2= 9.7D-01
   Bfn.  Coefficient  Atom+Function         Bfn.  Coefficient  Atom+Function  
  ----- ------------  ---------------      ----- ------------  ---------------
     6      0.663917  1 S  s                  5      0.629810  1 S  s          
     4     -0.399516  1 S  s                  3     -0.218904  1 S  s          
     2      0.104288  1 S  s                 41     -0.064033  1 S  dyy        
    38     -0.058510  1 S  dxx               43     -0.052819  1 S  dzz        
     1      0.036671  1 S  s          
 
 Vector    7  Occ=1.000000D+00  E=-2.319086D-01
              MO Center=  1.2D-15,  3.0D-15,  4.0D-16, r^2= 1.5D+00
   Bfn.  Coefficient  Atom+Function         Bfn.  Coefficient  Atom+Function  
  ----- ------------  ---------------      ----- ------------  ---------------
    18      0.530546  1 S  pz                16      0.374737  1 S  px         
    21      0.255754  1 S  pz                15      0.222318  1 S  pz         
    19      0.180645  1 S  px                12     -0.161478  1 S  pz         
    13      0.157028  1 S  px                10     -0.114055  1 S  px         
     9     -0.085502  1 S  pz                 7     -0.060392  1 S  px         
 
 Vector    8  Occ=0.000000D+00  E=-2.004771D-01
              MO Center= -3.0D-15,  1.7D-15, -7.1D-16, r^2= 1.6D+00
   Bfn.  Coefficient  Atom+Function         Bfn.  Coefficient  Atom+Function  
  ----- ------------  ---------------      ----- ------------  ---------------
    16      0.473837  1 S  px                18     -0.359557  1 S  pz         
    19      0.255951  1 S  px                17      0.220770  1 S  py         
    13      0.199960  1 S  px                21     -0.194221  1 S  pz         
    15     -0.151734  1 S  pz                10     -0.145032  1 S  px         
    20      0.119254  1 S  py                12      0.110053  1 S  pz         
 
 Vector    9  Occ=0.000000D+00  E=-2.004771D-01
              MO Center=  2.3D-15, -1.6D-15, -1.6D-15, r^2= 1.6D+00
   Bfn.  Coefficient  Atom+Function         Bfn.  Coefficient  Atom+Function  
  ----- ------------  ---------------      ----- ------------  ---------------
    17      0.591962  1 S  py                20      0.319761  1 S  py         
    14      0.249811  1 S  py                16     -0.212517  1 S  px         
    11     -0.181189  1 S  py                19     -0.114795  1 S  px         
     8     -0.096483  1 S  py                13     -0.089683  1 S  px         
    18      0.083409  1 S  pz                10      0.065047  1 S  px         
 
 Vector   10  Occ=0.000000D+00  E= 2.026662D-02
              MO Center= -3.3D-14,  2.4D-14, -7.9D-14, r^2= 8.5D+00
   Bfn.  Coefficient  Atom+Function         Bfn.  Coefficient  Atom+Function  
  ----- ------------  ---------------      ----- ------------  ---------------
    22      1.656935  1 S  s                  5     -0.349813  1 S  s          
    38     -0.254004  1 S  dxx               41     -0.254139  1 S  dyy        
    43     -0.253865  1 S  dzz                6     -0.232639  1 S  s          
     4      0.113841  1 S  s                 37     -0.070824  1 S  dzz        
    32     -0.068941  1 S  dxx               35     -0.067114  1 S  dyy        
 
 Vector   11  Occ=0.000000D+00  E= 5.360369D-02
              MO Center=  4.6D-14,  7.3D-15,  6.5D-14, r^2= 1.2D+01
   Bfn.  Coefficient  Atom+Function         Bfn.  Coefficient  Atom+Function  
  ----- ------------  ---------------      ----- ------------  ---------------
    25      1.387687  1 S  pz                23      0.980623  1 S  px         
    21     -0.781791  1 S  pz                19     -0.552481  1 S  px         
    24      0.156705  1 S  py                15     -0.132359  1 S  pz         
    13     -0.093535  1 S  px                20     -0.088301  1 S  py         
    18      0.086516  1 S  pz                46     -0.085874  1 S  fxxz       
 
 Vector   12  Occ=0.000000D+00  E= 6.139079D-02
              MO Center=  9.2D-15, -1.6D-14, -4.9D-15, r^2= 1.2D+01
   Bfn.  Coefficient  Atom+Function         Bfn.  Coefficient  Atom+Function  
  ----- ------------  ---------------      ----- ------------  ---------------
    24      1.472442  1 S  py                20     -0.850187  1 S  py         
    23     -0.801943  1 S  px                19      0.463042  1 S  px         
    25      0.400436  1 S  pz                21     -0.231218  1 S  pz         
    14     -0.144841  1 S  py                52     -0.094941  1 S  fyzz       
    17      0.094443  1 S  py                45     -0.093185  1 S  fxxy       
 
 Vector   13  Occ=0.000000D+00  E= 6.139279D-02
              MO Center= -2.2D-14, -1.7D-14,  1.7D-14, r^2= 1.2D+01
   Bfn.  Coefficient  Atom+Function         Bfn.  Coefficient  Atom+Function  
  ----- ------------  ---------------      ----- ------------  ---------------
    23      1.160659  1 S  px                25     -0.919771  1 S  pz         
    24      0.882262  1 S  py                19     -0.670170  1 S  px         
    21      0.531050  1 S  pz                20     -0.509410  1 S  py         
    13     -0.114172  1 S  px                15      0.090473  1 S  pz         
    14     -0.086786  1 S  py                16      0.074449  1 S  px         
 
 Vector   14  Occ=0.000000D+00  E= 2.209707D-01
              MO Center= -2.4D-16, -8.4D-15, -1.6D-15, r^2= 2.6D+00
   Bfn.  Coefficient  Atom+Function         Bfn.  Coefficient  Atom+Function  
  ----- ------------  ---------------      ----- ------------  ---------------
    42      1.221769  1 S  dyz               39      0.850612  1 S  dxy        
    36      0.284922  1 S  dyz               33      0.198365  1 S  dxy        
    40     -0.166784  1 S  dxz               41      0.138077  1 S  dyy        
    38     -0.097875  1 S  dxx               30      0.094991  1 S  dyz        
    27      0.066134  1 S  dxy               43     -0.040227  1 S  dzz        
 
 Vector   15  Occ=0.000000D+00  E= 2.209709D-01
              MO Center=  3.8D-15,  9.1D-16,  4.3D-15, r^2= 2.6D+00
   Bfn.  Coefficient  Atom+Function         Bfn.  Coefficient  Atom+Function  
  ----- ------------  ---------------      ----- ------------  ---------------
    43     -0.717292  1 S  dzz               38      0.707129  1 S  dxx        
    40      0.494240  1 S  dxz               39      0.175979  1 S  dxy        
    37     -0.167273  1 S  dzz               32      0.164908  1 S  dxx        
    34      0.115260  1 S  dxz               31     -0.055767  1 S  dzz        
    26      0.054979  1 S  dxx               33      0.041040  1 S  dxy        
 
 Vector   16  Occ=0.000000D+00  E= 2.221277D-01
              MO Center= -1.0D-15, -8.5D-16, -9.1D-16, r^2= 2.6D+00
   Bfn.  Coefficient  Atom+Function         Bfn.  Coefficient  Atom+Function  
  ----- ------------  ---------------      ----- ------------  ---------------
    40      1.228954  1 S  dxz               41     -0.454282  1 S  dyy        
    43      0.404374  1 S  dzz               34      0.285705  1 S  dxz        
    42      0.195783  1 S  dyz               39      0.138317  1 S  dxy        
    35     -0.115924  1 S  dyy               28      0.095683  1 S  dxz        
    37      0.083695  1 S  dzz                6      0.052145  1 S  s          
 
 Vector   17  Occ=0.000000D+00  E= 2.326333D-01
              MO Center= -1.8D-15, -4.0D-15,  1.3D-15, r^2= 2.6D+00
   Bfn.  Coefficient  Atom+Function         Bfn.  Coefficient  Atom+Function  
  ----- ------------  ---------------      ----- ------------  ---------------
    39      0.688893  1 S  dxy               42     -0.622552  1 S  dyz        
    41      0.603264  1 S  dyy               40      0.549825  1 S  dxz        
    38     -0.444142  1 S  dxx               43     -0.159124  1 S  dzz        
    33      0.152090  1 S  dxy               36     -0.137445  1 S  dyz        
    35      0.133186  1 S  dyy               34      0.121388  1 S  dxz        
 
 Vector   18  Occ=0.000000D+00  E= 2.326334D-01
              MO Center= -1.2D-15, -5.8D-15,  1.2D-15, r^2= 2.6D+00
   Bfn.  Coefficient  Atom+Function         Bfn.  Coefficient  Atom+Function  
  ----- ------------  ---------------      ----- ------------  ---------------
    39      1.038378  1 S  dxy               42     -0.630035  1 S  dyz        
    40     -0.477154  1 S  dxz               41     -0.458992  1 S  dyy        
    38      0.254983  1 S  dxx               33      0.229248  1 S  dxy        
    43      0.204013  1 S  dzz               36     -0.139097  1 S  dyz        
    34     -0.105343  1 S  dxz               35     -0.101335  1 S  dyy        
 
 Vector   19  Occ=0.000000D+00  E= 3.058540D-01
              MO Center= -3.0D-14,  2.7D-15, -4.1D-14, r^2= 8.3D+00
   Bfn.  Coefficient  Atom+Function         Bfn.  Coefficient  Atom+Function  
  ----- ------------  ---------------      ----- ------------  ---------------
    21      2.452972  1 S  pz                19      1.733706  1 S  px         
    18     -1.686616  1 S  pz                25     -1.552894  1 S  pz         
    16     -1.192088  1 S  px                23     -1.097540  1 S  px         
    51      0.398382  1 S  fyyz              46      0.396120  1 S  fxxz       
    53      0.396892  1 S  fzzz              44      0.281070  1 S  fxxx       
 
 Vector   20  Occ=0.000000D+00  E= 3.109800D-01
              MO Center=  3.6D-15, -1.1D-15, -1.8D-15, r^2= 8.2D+00
   Bfn.  Coefficient  Atom+Function         Bfn.  Coefficient  Atom+Function  
  ----- ------------  ---------------      ----- ------------  ---------------
    20      2.654002  1 S  py                17     -1.859655  1 S  py         
    24     -1.673425  1 S  py                19     -1.283354  1 S  px         
    16      0.899240  1 S  px                23      0.809191  1 S  px         
    21      0.607172  1 S  pz                45      0.438939  1 S  fxxy       
    50      0.440610  1 S  fyyy              52      0.436368  1 S  fyzz       
 
 Vector   21  Occ=0.000000D+00  E= 3.109824D-01
              MO Center=  1.8D-14,  1.7D-14, -2.0D-14, r^2= 8.2D+00
   Bfn.  Coefficient  Atom+Function         Bfn.  Coefficient  Atom+Function  
  ----- ------------  ---------------      ----- ------------  ---------------
    19      2.102357  1 S  px                21     -1.643258  1 S  pz         
    16     -1.473121  1 S  px                20      1.392548  1 S  py         
    23     -1.325595  1 S  px                18      1.151399  1 S  pz         
    25      1.036135  1 S  pz                17     -0.975751  1 S  py         
    24     -0.878046  1 S  py                49      0.349403  1 S  fxzz       
 
 Vector   22  Occ=0.000000D+00  E= 3.422271D-01
              MO Center=  7.6D-15,  1.4D-15,  5.6D-14, r^2= 6.5D+00
   Bfn.  Coefficient  Atom+Function         Bfn.  Coefficient  Atom+Function  
  ----- ------------  ---------------      ----- ------------  ---------------
     6      2.694553  1 S  s                 22      1.747145  1 S  s          
    38     -1.743674  1 S  dxx               43     -1.748582  1 S  dzz        
    41     -1.738917  1 S  dyy               32     -0.359176  1 S  dxx        
    35     -0.360462  1 S  dyy               37     -0.357853  1 S  dzz        
     4     -0.310231  1 S  s                  5     -0.192550  1 S  s          
 
 Vector   23  Occ=0.000000D+00  E= 9.659679D-01
              MO Center= -9.0D-16,  2.6D-15, -1.2D-15, r^2= 1.5D+00
   Bfn.  Coefficient  Atom+Function         Bfn.  Coefficient  Atom+Function  
  ----- ------------  ---------------      ----- ------------  ---------------
    36      1.378947  1 S  dyz               33      0.961672  1 S  dxy        
    42     -0.957110  1 S  dyz               39     -0.667484  1 S  dxy        
    30      0.244055  1 S  dyz               34     -0.183658  1 S  dxz        
    27      0.170203  1 S  dxy               35      0.156005  1 S  dyy        
    40      0.127475  1 S  dxz               41     -0.108281  1 S  dyy        
 
 Vector   24  Occ=0.000000D+00  E= 9.659680D-01
              MO Center= -1.1D-16,  4.7D-16,  4.5D-17, r^2= 1.5D+00
   Bfn.  Coefficient  Atom+Function         Bfn.  Coefficient  Atom+Function  
  ----- ------------  ---------------      ----- ------------  ---------------
    37     -0.809085  1 S  dzz               32      0.798995  1 S  dxx        
    34      0.559623  1 S  dxz               43      0.561575  1 S  dzz        
    38     -0.554573  1 S  dxx               40     -0.388428  1 S  dxz        
    33      0.190460  1 S  dxy               31     -0.143197  1 S  dzz        
    26      0.141412  1 S  dxx               39     -0.132196  1 S  dxy        
 
 Vector   25  Occ=0.000000D+00  E= 9.677905D-01
              MO Center= -3.1D-15,  4.6D-16, -1.5D-15, r^2= 1.5D+00
   Bfn.  Coefficient  Atom+Function         Bfn.  Coefficient  Atom+Function  
  ----- ------------  ---------------      ----- ------------  ---------------
    34      1.387230  1 S  dxz               40     -0.962358  1 S  dxz        
    37      0.488239  1 S  dzz               35     -0.481184  1 S  dyy        
    43     -0.342338  1 S  dzz               41      0.330176  1 S  dyy        
    28      0.244753  1 S  dxz               36      0.221194  1 S  dyz        
    33      0.156232  1 S  dxy               42     -0.153448  1 S  dyz        
 
 Vector   26  Occ=0.000000D+00  E= 9.714195D-01
              MO Center=  3.1D-16,  4.1D-16, -4.6D-16, r^2= 1.4D+00
   Bfn.  Coefficient  Atom+Function         Bfn.  Coefficient  Atom+Function  
  ----- ------------  ---------------      ----- ------------  ---------------
    35      0.760626  1 S  dyy               34      0.705582  1 S  dxz        
    36     -0.553559  1 S  dyz               32     -0.542608  1 S  dxx        
    33      0.541011  1 S  dxy               41     -0.521531  1 S  dyy        
    40     -0.483787  1 S  dxz               42      0.379551  1 S  dyz        
    38      0.372039  1 S  dxx               39     -0.370947  1 S  dxy        
 
 Vector   27  Occ=0.000000D+00  E= 9.714195D-01
              MO Center= -4.4D-16,  6.5D-16, -3.6D-16, r^2= 1.4D+00
   Bfn.  Coefficient  Atom+Function         Bfn.  Coefficient  Atom+Function  
  ----- ------------  ---------------      ----- ------------  ---------------
    33      1.288036  1 S  dxy               39     -0.883149  1 S  dxy        
    36     -0.824399  1 S  dyz               42      0.565255  1 S  dyz        
    34     -0.410236  1 S  dxz               35     -0.379035  1 S  dyy        
    40      0.281280  1 S  dxz               41      0.259889  1 S  dyy        
    27      0.231144  1 S  dxy               37      0.191327  1 S  dzz        
 
 Vector   28  Occ=0.000000D+00  E= 1.094092D+00
              MO Center= -2.5D-14, -7.7D-15, -3.6D-14, r^2= 3.7D+00
   Bfn.  Coefficient  Atom+Function         Bfn.  Coefficient  Atom+Function  
  ----- ------------  ---------------      ----- ------------  ---------------
    18      4.873933  1 S  pz                16      3.443029  1 S  px         
    46     -1.899021  1 S  fxxz              51     -1.895967  1 S  fyyz       
    53     -1.897982  1 S  fzzz              21     -1.820986  1 S  pz         
    15     -1.638906  1 S  pz                44     -1.340025  1 S  fxxx       
    47     -1.339344  1 S  fxyy              49     -1.343724  1 S  fxzz       
 
 Vector   29  Occ=0.000000D+00  E= 1.100661D+00
              MO Center= -3.0D-15,  9.2D-15,  3.0D-15, r^2= 3.6D+00
   Bfn.  Coefficient  Atom+Function         Bfn.  Coefficient  Atom+Function  
  ----- ------------  ---------------      ----- ------------  ---------------
    17      5.558184  1 S  py                45     -2.158605  1 S  fxxy       
    50     -2.161882  1 S  fyyy              52     -2.154100  1 S  fyzz       
    20     -2.075205  1 S  py                16     -1.996420  1 S  px         
    14     -1.880810  1 S  py                24      0.981189  1 S  py         
    18      0.783676  1 S  pz                44      0.775183  1 S  fxxx       
 
 Vector   30  Occ=0.000000D+00  E= 1.100662D+00
              MO Center=  2.5D-14,  9.8D-15, -1.7D-14, r^2= 3.6D+00
   Bfn.  Coefficient  Atom+Function         Bfn.  Coefficient  Atom+Function  
  ----- ------------  ---------------      ----- ------------  ---------------
    16      4.448730  1 S  px                18     -3.376488  1 S  pz         
    17      2.073987  1 S  py                44     -1.727382  1 S  fxxx       
    47     -1.729901  1 S  fxyy              49     -1.730872  1 S  fxzz       
    19     -1.660981  1 S  px                13     -1.505387  1 S  px         
    46      1.319680  1 S  fxxz              51      1.313942  1 S  fyyz       
 
 Vector   31  Occ=0.000000D+00  E= 1.247243D+00
              MO Center=  8.4D-15, -1.8D-14,  5.7D-14, r^2= 3.4D+00
   Bfn.  Coefficient  Atom+Function         Bfn.  Coefficient  Atom+Function  
  ----- ------------  ---------------      ----- ------------  ---------------
     6     10.667480  1 S  s                  5     -3.818905  1 S  s          
    38     -3.199185  1 S  dxx               41     -3.199141  1 S  dyy        
    43     -3.199230  1 S  dzz               32     -1.143749  1 S  dxx        
    37     -1.146700  1 S  dzz               35     -1.140887  1 S  dyy        
    22      1.037815  1 S  s                 26     -0.244966  1 S  dxx        
 
 Vector   32  Occ=0.000000D+00  E= 1.622028D+00
              MO Center=  5.8D-17, -9.5D-16,  9.9D-16, r^2= 1.1D+00
   Bfn.  Coefficient  Atom+Function         Bfn.  Coefficient  Atom+Function  
  ----- ------------  ---------------      ----- ------------  ---------------
    51     -1.328843  1 S  fyyz              45      1.300514  1 S  fxxy       
    48      0.919752  1 S  fxyz              49     -0.887112  1 S  fxzz       
    52     -0.887235  1 S  fyzz              47     -0.669353  1 S  fxyy       
    44      0.518822  1 S  fxxx              53      0.488139  1 S  fzzz       
    50     -0.137760  1 S  fyyy              46     -0.135575  1 S  fxxz       
 
 Vector   33  Occ=0.000000D+00  E= 1.622028D+00
              MO Center= -5.9D-16, -7.3D-16,  8.0D-16, r^2= 1.1D+00
   Bfn.  Coefficient  Atom+Function         Bfn.  Coefficient  Atom+Function  
  ----- ------------  ---------------      ----- ------------  ---------------
    52      1.586982  1 S  fyzz              45     -1.258499  1 S  fxxy       
    47     -0.900773  1 S  fxyy              48     -0.895163  1 S  fxyz       
    51     -0.795717  1 S  fyyz              49     -0.704543  1 S  fxzz       
    44      0.535105  1 S  fxxx              53      0.214209  1 S  fzzz       
    46      0.153090  1 S  fxxz              50     -0.109495  1 S  fyyy       
 
 Vector   34  Occ=0.000000D+00  E= 1.628803D+00
              MO Center= -2.4D-16, -2.1D-15,  4.0D-16, r^2= 1.1D+00
   Bfn.  Coefficient  Atom+Function         Bfn.  Coefficient  Atom+Function  
  ----- ------------  ---------------      ----- ------------  ---------------
    48      2.242608  1 S  fxyz              45     -1.524803  1 S  fxxy       
    52     -0.793832  1 S  fyzz              50      0.772878  1 S  fyyy       
    47     -0.393080  1 S  fxyy              44      0.142499  1 S  fxxx       
    46     -0.130166  1 S  fxxz              53      0.037919  1 S  fzzz       
    49     -0.034415  1 S  fxzz       
 
 Vector   35  Occ=0.000000D+00  E= 1.628803D+00
              MO Center= -4.1D-16, -1.1D-15,  4.1D-16, r^2= 1.1D+00
   Bfn.  Coefficient  Atom+Function         Bfn.  Coefficient  Atom+Function  
  ----- ------------  ---------------      ----- ------------  ---------------
    47      1.884396  1 S  fxyy              51     -1.368069  1 S  fyyz       
    46      0.915179  1 S  fxxz              49     -0.656117  1 S  fxzz       
    45     -0.422482  1 S  fxxy              44     -0.409426  1 S  fxxx       
    48      0.172166  1 S  fxyz              53      0.150964  1 S  fzzz       
    50      0.109720  1 S  fyyy              52      0.093323  1 S  fyzz       
 
 Vector   36  Occ=0.000000D+00  E= 1.632014D+00
              MO Center=  2.4D-16, -2.8D-16,  1.0D-15, r^2= 1.1D+00
   Bfn.  Coefficient  Atom+Function         Bfn.  Coefficient  Atom+Function  
  ----- ------------  ---------------      ----- ------------  ---------------
    49      1.961884  1 S  fxzz              51     -1.202674  1 S  fyyz       
    47     -0.857318  1 S  fxyy              46      0.784397  1 S  fxxz       
    48      0.619896  1 S  fxyz              44     -0.407518  1 S  fxxx       
    52      0.298588  1 S  fyzz              50     -0.134192  1 S  fyyy       
    45      0.085174  1 S  fxxy              53      0.083749  1 S  fzzz       
 
 Vector   37  Occ=0.000000D+00  E= 1.632016D+00
              MO Center=  1.2D-16,  1.5D-16,  1.2D-15, r^2= 1.1D+00
   Bfn.  Coefficient  Atom+Function         Bfn.  Coefficient  Atom+Function  
  ----- ------------  ---------------      ----- ------------  ---------------
    46      2.102678  1 S  fxxz              53     -0.813374  1 S  fzzz       
    49     -0.511325  1 S  fxzz              47     -0.478203  1 S  fxyy       
    51      0.339717  1 S  fyyz              44      0.330086  1 S  fxxx       
    52     -0.300040  1 S  fyzz              45      0.253067  1 S  fxxy       
    48      0.111645  1 S  fxyz       
 
 Vector   38  Occ=0.000000D+00  E= 1.632016D+00
              MO Center=  4.5D-16, -1.1D-15,  9.5D-16, r^2= 1.1D+00
   Bfn.  Coefficient  Atom+Function         Bfn.  Coefficient  Atom+Function  
  ----- ------------  ---------------      ----- ------------  ---------------
    48      2.810058  1 S  fxyz              52      1.368693  1 S  fyzz       
    50     -0.585297  1 S  fyyy              51      0.496366  1 S  fyyz       
    45      0.386327  1 S  fxxy              47      0.333115  1 S  fxyy       
    49     -0.284315  1 S  fxzz              53     -0.124816  1 S  fzzz       
    46     -0.123264  1 S  fxxz       
 
 Vector   39  Occ=0.000000D+00  E= 2.977057D+00
              MO Center=  1.2D-15, -1.5D-15, -8.2D-16, r^2= 1.7D+00
   Bfn.  Coefficient  Atom+Function         Bfn.  Coefficient  Atom+Function  
  ----- ------------  ---------------      ----- ------------  ---------------
    16      3.987386  1 S  px                17     -3.690626  1 S  py         
    44     -2.459897  1 S  fxxx              47     -2.457463  1 S  fxyy       
    49     -2.458555  1 S  fxzz              18     -2.400535  1 S  pz         
    45      2.276209  1 S  fxxy              50      2.275091  1 S  fyyy       
    52      2.279123  1 S  fyzz              46      1.475510  1 S  fxxz       
 
 Vector   40  Occ=0.000000D+00  E= 2.977057D+00
              MO Center=  1.4D-15,  2.6D-15, -1.1D-15, r^2= 1.7D+00
   Bfn.  Coefficient  Atom+Function         Bfn.  Coefficient  Atom+Function  
  ----- ------------  ---------------      ----- ------------  ---------------
    17      4.622284  1 S  py                45     -2.852005  1 S  fxxy       
    50     -2.849413  1 S  fyyy              52     -2.853271  1 S  fyzz       
    16      2.781835  1 S  px                18     -2.485645  1 S  pz         
    44     -1.716169  1 S  fxxx              47     -1.715575  1 S  fxyy       
    49     -1.714129  1 S  fxzz              46      1.529657  1 S  fxxz       
 
 Vector   41  Occ=0.000000D+00  E= 3.017597D+00
              MO Center= -3.9D-15, -7.1D-16, -5.0D-15, r^2= 1.7D+00
   Bfn.  Coefficient  Atom+Function         Bfn.  Coefficient  Atom+Function  
  ----- ------------  ---------------      ----- ------------  ---------------
    18      4.809484  1 S  pz                16      3.397014  1 S  px         
    46     -2.978180  1 S  fxxz              51     -2.958085  1 S  fyyz       
    53     -2.971338  1 S  fzzz              49     -2.118165  1 S  fxzz       
    44     -2.093826  1 S  fxxx              47     -2.089342  1 S  fxyy       
    21     -1.047052  1 S  pz                19     -0.739549  1 S  px         
 
 Vector   42  Occ=0.000000D+00  E= 3.768312D+00
              MO Center=  3.3D-16, -2.0D-15,  6.4D-15, r^2= 1.4D+00
   Bfn.  Coefficient  Atom+Function         Bfn.  Coefficient  Atom+Function  
  ----- ------------  ---------------      ----- ------------  ---------------
     5      8.545134  1 S  s                  6      6.685356  1 S  s          
    32     -4.640996  1 S  dxx               35     -4.651663  1 S  dyy        
    37     -4.630001  1 S  dzz                4     -2.149027  1 S  s          
    38     -1.878473  1 S  dxx               41     -1.874480  1 S  dyy        
    43     -1.882588  1 S  dzz                3     -1.123954  1 S  s          
 
 Vector   43  Occ=0.000000D+00  E= 4.524110D+00
              MO Center=  4.1D-16, -2.1D-16, -2.6D-16, r^2= 4.5D-01
   Bfn.  Coefficient  Atom+Function         Bfn.  Coefficient  Atom+Function  
  ----- ------------  ---------------      ----- ------------  ---------------
    29      0.962201  1 S  dyy               28      0.928409  1 S  dxz        
    35     -0.675733  1 S  dyy               34     -0.652001  1 S  dxz        
    26     -0.635911  1 S  dxx               32      0.446586  1 S  dxx        
    31     -0.326290  1 S  dzz               27     -0.267093  1 S  dxy        
    37      0.229146  1 S  dzz               41      0.218983  1 S  dyy        
 
 Vector   44  Occ=0.000000D+00  E= 4.524110D+00
              MO Center= -4.5D-16,  7.2D-17,  2.0D-16, r^2= 4.5D-01
   Bfn.  Coefficient  Atom+Function         Bfn.  Coefficient  Atom+Function  
  ----- ------------  ---------------      ----- ------------  ---------------
    27      1.567818  1 S  dxy               30     -1.130036  1 S  dyz        
    33     -1.101043  1 S  dxy               36      0.793599  1 S  dyz        
    39      0.356813  1 S  dxy               42     -0.257180  1 S  dyz        
    26     -0.151163  1 S  dxx               32      0.106159  1 S  dxx        
    29      0.100530  1 S  dyy               35     -0.070600  1 S  dyy        
 
 Vector   45  Occ=0.000000D+00  E= 4.542389D+00
              MO Center= -3.0D-16,  3.4D-16, -2.2D-16, r^2= 4.5D-01
   Bfn.  Coefficient  Atom+Function         Bfn.  Coefficient  Atom+Function  
  ----- ------------  ---------------      ----- ------------  ---------------
    30      1.570656  1 S  dyz               36     -1.099988  1 S  dyz        
    27      1.090816  1 S  dxy               33     -0.763939  1 S  dxy        
    42      0.357155  1 S  dyz               39      0.248043  1 S  dxy        
    28     -0.222373  1 S  dxz               29      0.177484  1 S  dyy        
    34      0.155736  1 S  dxz               26     -0.136742  1 S  dxx        
 
 Vector   46  Occ=0.000000D+00  E= 4.542389D+00
              MO Center=  4.5D-16,  6.5D-17, -2.3D-16, r^2= 4.5D-01
   Bfn.  Coefficient  Atom+Function         Bfn.  Coefficient  Atom+Function  
  ----- ------------  ---------------      ----- ------------  ---------------
    31     -0.922713  1 S  dzz               26      0.907607  1 S  dxx        
    37      0.646210  1 S  dzz               28      0.633243  1 S  dxz        
    32     -0.635631  1 S  dxx               34     -0.443483  1 S  dxz        
    27      0.239469  1 S  dxy               43     -0.209818  1 S  dzz        
    38      0.206383  1 S  dxx               33     -0.167709  1 S  dxy        
 
 Vector   47  Occ=0.000000D+00  E= 4.551363D+00
              MO Center=  2.6D-17, -3.8D-17,  1.4D-16, r^2= 4.5D-01
   Bfn.  Coefficient  Atom+Function         Bfn.  Coefficient  Atom+Function  
  ----- ------------  ---------------      ----- ------------  ---------------
    28      1.579348  1 S  dxz               34     -1.105328  1 S  dxz        
    29     -0.568153  1 S  dyy               31      0.535660  1 S  dzz        
    37     -0.505011  1 S  dzz               40      0.358434  1 S  dxz        
    35      0.267508  1 S  dyy               30      0.251932  1 S  dyz        
     5      0.219551  1 S  s                 27      0.177946  1 S  dxy        
 
 Vector   48  Occ=0.000000D+00  E= 1.007462D+01
              MO Center= -2.4D-16, -2.0D-16,  6.9D-17, r^2= 6.1D-01
   Bfn.  Coefficient  Atom+Function         Bfn.  Coefficient  Atom+Function  
  ----- ------------  ---------------      ----- ------------  ---------------
     5     19.128156  1 S  s                 32     -6.274611  1 S  dxx        
    35     -6.273985  1 S  dyy               37     -6.275257  1 S  dzz        
    26     -3.376019  1 S  dxx               29     -3.376159  1 S  dyy        
    31     -3.375874  1 S  dzz                3     -1.949341  1 S  s          
     6      1.015509  1 S  s                  4     -0.594821  1 S  s          
 
 Vector   49  Occ=0.000000D+00  E= 1.842618D+01
              MO Center= -1.3D-16,  1.3D-16,  8.7D-17, r^2= 2.2D-01
   Bfn.  Coefficient  Atom+Function         Bfn.  Coefficient  Atom+Function  
  ----- ------------  ---------------      ----- ------------  ---------------
    16      1.281700  1 S  px                17     -1.123298  1 S  py         
    10     -1.043079  1 S  px                11      0.914168  1 S  py         
    44     -0.889136  1 S  fxxx              47     -0.888955  1 S  fxyy       
    49     -0.889033  1 S  fxzz               7      0.840351  1 S  px         
    18     -0.778728  1 S  pz                45      0.779205  1 S  fxxy       
 
 Vector   50  Occ=0.000000D+00  E= 1.842618D+01
              MO Center=  1.1D-16,  1.8D-16, -7.9D-17, r^2= 2.2D-01
   Bfn.  Coefficient  Atom+Function         Bfn.  Coefficient  Atom+Function  
  ----- ------------  ---------------      ----- ------------  ---------------
    17      1.489861  1 S  py                11     -1.212486  1 S  py         
    45     -1.033572  1 S  fxxy              50     -1.033378  1 S  fyyy       
    52     -1.033671  1 S  fyzz               8      0.976832  1 S  py         
    16      0.842284  1 S  px                18     -0.762786  1 S  pz         
    10     -0.685472  1 S  px                12      0.620774  1 S  pz         
 
 Vector   51  Occ=0.000000D+00  E= 1.843819D+01
              MO Center= -6.1D-17, -1.4D-17, -8.4D-17, r^2= 2.2D-01
   Bfn.  Coefficient  Atom+Function         Bfn.  Coefficient  Atom+Function  
  ----- ------------  ---------------      ----- ------------  ---------------
    18      1.528272  1 S  pz                12     -1.240892  1 S  pz         
    16      1.079450  1 S  px                46     -1.060430  1 S  fxxz       
    51     -1.059506  1 S  fyyz              53     -1.060116  1 S  fzzz       
     9      0.998965  1 S  pz                10     -0.876468  1 S  px         
    44     -0.748557  1 S  fxxx              47     -0.748350  1 S  fxyy       
 
 Vector   52  Occ=0.000000D+00  E= 2.483741D+01
              MO Center=  1.4D-16,  1.4D-16,  9.9D-17, r^2= 2.6D-01
   Bfn.  Coefficient  Atom+Function         Bfn.  Coefficient  Atom+Function  
  ----- ------------  ---------------      ----- ------------  ---------------
     5     16.170454  1 S  s                  4     15.757699  1 S  s          
     3    -12.053629  1 S  s                 26     -6.813747  1 S  dxx        
    29     -6.813716  1 S  dyy               31     -6.813779  1 S  dzz        
    32     -4.812952  1 S  dxx               35     -4.813077  1 S  dyy        
    37     -4.812823  1 S  dzz                2      0.664040  1 S  s          
 
 Vector   53  Occ=0.000000D+00  E= 2.191120D+02
              MO Center=  1.6D-18,  6.4D-18,  3.6D-18, r^2= 3.2D-02
   Bfn.  Coefficient  Atom+Function         Bfn.  Coefficient  Atom+Function  
  ----- ------------  ---------------      ----- ------------  ---------------
     4      7.655581  1 S  s                  3     -6.329840  1 S  s          
     5      5.373818  1 S  s                 26     -2.767101  1 S  dxx        
    29     -2.767099  1 S  dyy               31     -2.767103  1 S  dzz        
     2      2.291594  1 S  s                  1     -1.625382  1 S  s          
    32     -1.613238  1 S  dxx               35     -1.613245  1 S  dyy        
 

   alpha - beta orbital overlaps 
   ----------------------------- 


   alpha      1      2      3      4      5      6      7      8      9     10
    beta      1      2      3      4      5      6      9      8      7     10
 overlap   1.000  1.000  0.903  0.903  1.000  0.998  0.982  0.982  1.000  0.999


   alpha     11     12     13     14     15     16     17     18     19     20
    beta     12     13     11     18     17     15     14     16     20     21
 overlap   0.981  0.981  1.000  0.997  0.997  0.999  0.999  0.998  0.978  0.978


   alpha     21     22     23     24     25     26     27     28     29     30
    beta     19     22     27     26     24     23     25     29     30     28
 overlap   1.000  0.999  0.989  0.989  0.999  0.999  0.998  0.932  0.932  1.000


   alpha     31     32     33     34     35     36     37     38     39     40
    beta     31     35     34     33     32     38     37     36     39     40
 overlap   0.999  1.000  1.000  0.999  0.999  0.985  0.985  1.000  0.984  0.984


   alpha     41     42     43     44     45     46     47     48     49     50
    beta     41     42     44     43     46     45     47     48     49     50
 overlap   1.000  1.000  0.955  0.955  0.983  0.983  1.000  1.000  0.974  0.974


   alpha     51     52     53
    beta     51     52     53
 overlap   1.000  1.000  1.000

     --------------------------
     Expectation value of S2:  
     --------------------------
      <S2> =      2.0051 (Exact =     2.0000)
 

 Parallel integral file used      16 records with       0 large values


 Task  times  cpu:        2.1s     wall:        2.9s
 
 
                                NWChem Input Module
                                -------------------
 
 
 Summary of allocated global arrays
-----------------------------------
  No active global arrays



                         GA Statistics for process    0
                         ------------------------------

       create   destroy   get      put      acc     scatter   gather  read&inc
calls:  221      221      889      754      162        0        0       65     
number of processes/call 1.54e+00 1.27e+00 3.70e+00 0.00e+00 0.00e+00
bytes total:             1.04e+07 3.88e+06 3.64e+06 0.00e+00 0.00e+00 5.20e+02
bytes remote:            7.72e+05 1.23e+05 8.70e+05 0.00e+00 0.00e+00 0.00e+00
Max memory consumed for GA by this process: 1460680 bytes
 
MA_summarize_allocated_blocks: starting scan ...
MA_summarize_allocated_blocks: scan completed: 0 heap blocks, 0 stack blocks
MA usage statistics:

	allocation statistics:
					      heap	     stack
					      ----	     -----
	current number of blocks	         0	         0
	maximum number of blocks	        21	        53
	current total bytes		         0	         0
	maximum total bytes		   2415120	  22513080
	maximum total K-bytes		      2416	     22514
	maximum total M-bytes		         3	        23
 
 
                                     CITATION
                                     --------
                Please cite the following reference when publishing
                           results obtained with NWChem:
 
                 M. Valiev, E.J. Bylaska, N. Govind, K. Kowalski,
              T.P. Straatsma, H.J.J. van Dam, D. Wang, J. Nieplocha,
                        E. Apra, T.L. Windus, W.A. de Jong
                 "NWChem: a comprehensive and scalable open-source
                  solution for large scale molecular simulations"
                      Comput. Phys. Commun. 181, 1477 (2010)
                           doi:10.1016/j.cpc.2010.04.018
 
                                      AUTHORS
                                      -------
          E. Apra, E. J. Bylaska, W. A. de Jong, N. Govind, K. Kowalski,
       T. P. Straatsma, M. Valiev, H. J. J. van Dam, D. Wang, T. L. Windus,
        J. Hammond, J. Autschbach, K. Bhaskaran-Nair, J. Brabec, K. Lopata,
    S. A. Fischer, S. Krishnamoorthy, M. Jacquelin, W. Ma, M. Klemm, O. Villa,
      Y. Chen, V. Anisimov, F. Aquino, S. Hirata, M. T. Hackler, V. Konjkov,
            D. Mejia-Rodriguez, T. Risthaus, M. Malagoli, A. Marenich,
   A. Otero-de-la-Roza, J. Mullin, P. Nichols, R. Peverati, J. Pittner, Y. Zhao,
        P.-D. Fan, A. Fonari, M. J. Williamson, R. J. Harrison, J. R. Rehr,
      M. Dupuis, D. Silverstein, D. M. A. Smith, J. Nieplocha, V. Tipparaju,
    M. Krishnan, B. E. Van Kuiken, A. Vazquez-Mayagoitia, L. Jensen, M. Swart,
      Q. Wu, T. Van Voorhis, A. A. Auer, M. Nooijen, L. D. Crosby, E. Brown,
      G. Cisneros, G. I. Fann, H. Fruchtl, J. Garza, K. Hirao, R. A. Kendall,
      J. A. Nichols, K. Tsemekhman, K. Wolinski, J. Anchell, D. E. Bernholdt,
      P. Borowski, T. Clark, D. Clerc, H. Dachsel, M. J. O. Deegan, K. Dyall,
    D. Elwood, E. Glendening, M. Gutowski, A. C. Hess, J. Jaffe, B. G. Johnson,
     J. Ju, R. Kobayashi, R. Kutteh, Z. Lin, R. Littlefield, X. Long, B. Meng,
      T. Nakajima, S. Niu, L. Pollack, M. Rosing, K. Glaesemann, G. Sandrone,
      M. Stave, H. Taylor, G. Thomas, J. H. van Lenthe, A. T. Wong, Z. Zhang.

 Total times  cpu:        2.1s     wall:        3.1s
