[1537795729.217628] [r8n4:5101 :0]         sys.c:744  MXM  WARN  Conflicting CPU frequencies detected, using: 1699.93
[1537795729.228367] [r8n4:5102 :0]         sys.c:744  MXM  WARN  Conflicting CPU frequencies detected, using: 1699.93
[1537795729.228541] [r8n4:5103 :0]         sys.c:744  MXM  WARN  Conflicting CPU frequencies detected, using: 1699.93
[1537795729.228631] [r8n4:5104 :0]         sys.c:744  MXM  WARN  Conflicting CPU frequencies detected, using: 1699.93
[1537795729.228679] [r8n4:5107 :0]         sys.c:744  MXM  WARN  Conflicting CPU frequencies detected, using: 1699.93
[1537795729.228861] [r8n4:5109 :0]         sys.c:744  MXM  WARN  Conflicting CPU frequencies detected, using: 1699.93
[1537795729.229194] [r8n4:5105 :0]         sys.c:744  MXM  WARN  Conflicting CPU frequencies detected, using: 1798.67
[1537795729.229277] [r8n4:5106 :0]         sys.c:744  MXM  WARN  Conflicting CPU frequencies detected, using: 1798.67
[1537795729.245527] [r8n4:5111 :0]         sys.c:744  MXM  WARN  Conflicting CPU frequencies detected, using: 1896.87
[1537795729.245743] [r8n4:5113 :0]         sys.c:744  MXM  WARN  Conflicting CPU frequencies detected, using: 1896.87
[1537795729.268177] [r8n4:5119 :0]         sys.c:744  MXM  WARN  Conflicting CPU frequencies detected, using: 2098.66
[1537795729.269237] [r8n4:5125 :0]         sys.c:744  MXM  WARN  Conflicting CPU frequencies detected, using: 2198.93
[1537795729.269237] [r8n4:5123 :0]         sys.c:744  MXM  WARN  Conflicting CPU frequencies detected, using: 2198.93
[1537795729.269278] [r8n4:5117 :0]         sys.c:744  MXM  WARN  Conflicting CPU frequencies detected, using: 2198.93
[1537795729.269852] [r8n4:5115 :0]         sys.c:744  MXM  WARN  Conflicting CPU frequencies detected, using: 2198.93
[1537795729.270002] [r8n4:5121 :0]         sys.c:744  MXM  WARN  Conflicting CPU frequencies detected, using: 2198.93
 argument  1 = /storage/home/bikashp/nwchem_run/rabeet/ip13g2/nwip13g2/C+.nw
                                         
                                         


              Northwest Computational Chemistry Package (NWChem) 6.6
              ------------------------------------------------------


                    Environmental Molecular Sciences Laboratory
                       Pacific Northwest National Laboratory
                                Richland, WA 99352

                              Copyright (c) 1994-2015
                       Pacific Northwest National Laboratory
                            Battelle Memorial Institute

             NWChem is an open-source computational chemistry package
                        distributed under the terms of the
                      Educational Community License (ECL) 2.0
             A copy of the license is included with this distribution
                              in the LICENSE.TXT file

                                  ACKNOWLEDGMENT
                                  --------------

            This software and its documentation were developed at the
            EMSL at Pacific Northwest National Laboratory, a multiprogram
            national laboratory, operated for the U.S. Department of Energy
            by Battelle under Contract Number DE-AC05-76RL01830. Support
            for this work was provided by the Department of Energy Office
            of Biological and Environmental Research, Office of Basic
            Energy Sciences, and the Office of Advanced Scientific Computing.


           Job information
           ---------------

    hostname        = r8n4.niserhpc.org
    program         = /home/bikashp/Code/nwchem-6.6_tpssloc/bin/LINUX64/nwchem
    date            = Mon Sep 24 18:58:52 2018

    compiled        = Tue_Sep_18_16:24:59_2018
    source          = /home/bikashp/Code/nwchem-6.6_tpssloc
    nwchem branch   = 6.6
    nwchem revision = 27746
    ga revision     = 10594
    input           = /storage/home/bikashp/nwchem_run/rabeet/ip13g2/nwip13g2/C+.nw
    prefix          = C+.
    data base       = ./C+.db
    status          = startup
    nproc           =       16
    time left       =     -1s



           Memory information
           ------------------

    heap     =   13107196 doubles =    100.0 Mbytes
    stack    =   13107201 doubles =    100.0 Mbytes
    global   =   26214400 doubles =    200.0 Mbytes (distinct from heap & stack)
    total    =   52428797 doubles =    400.0 Mbytes
    verify   = yes
    hardfail = no 


           Directory information
           ---------------------

  0 permanent = .
  0 scratch   = .




                                NWChem Input Module
                                -------------------



 Scaling coordinates for geometry "geometry" by  1.889725989
 (inverse scale =  0.529177249)



                             Geometry "geometry" -> ""
                             -------------------------

 Output coordinates in angstroms (scale by  1.889725989 to convert to a.u.)

  No.       Tag          Charge          X              Y              Z
 ---- ---------------- ---------- -------------- -------------- --------------
    1 C                    6.0000     0.00000000     0.00000000     0.00000000

      Atomic Mass 
      ----------- 

      C                 12.000000


 Effective nuclear repulsion energy (a.u.)       0.0000000000

            Nuclear Dipole moment (a.u.) 
            ----------------------------
        X                 Y               Z
 ---------------- ---------------- ----------------
     0.0000000000     0.0000000000     0.0000000000


            XYZ format geometry
            -------------------
     1
 geometry
 C                     0.00000000     0.00000000     0.00000000



 Summary of "ao basis" -> "" (cartesian)
 ------------------------------------------------------------------------------
       Tag                 Description            Shells   Functions and Types
 ---------------- ------------------------------  ------  ---------------------
 *                     6-311++G(3df,3pd)              on all atoms 



                                 NWChem DFT Module
                                 -----------------


                      Basis "ao basis" -> "ao basis" (cartesian)
                      -----
  C (Carbon)
  ----------
            Exponent  Coefficients 
       -------------- ---------------------------------------------------------
  1 S  4.56324000E+03  0.001967
  1 S  6.82024000E+02  0.015231
  1 S  1.54973000E+02  0.076127
  1 S  4.44553000E+01  0.260801
  1 S  1.30290000E+01  0.616462
  1 S  1.82773000E+00  0.221006

  2 S  2.09642000E+01  0.114660
  2 S  4.80331000E+00  0.919999
  2 S  1.45933000E+00 -0.003031

  3 P  2.09642000E+01  0.040249
  3 P  4.80331000E+00  0.237594
  3 P  1.45933000E+00  0.815854

  4 S  4.83456000E-01  1.000000

  5 P  4.83456000E-01  1.000000

  6 S  1.45585000E-01  1.000000

  7 P  1.45585000E-01  1.000000

  8 S  4.38000000E-02  1.000000

  9 P  4.38000000E-02  1.000000

 10 D  2.50400000E+00  1.000000

 11 D  6.26000000E-01  1.000000

 12 D  1.56500000E-01  1.000000

 13 F  8.00000000E-01  1.000000



 Summary of "ao basis" -> "ao basis" (cartesian)
 ------------------------------------------------------------------------------
       Tag                 Description            Shells   Functions and Types
 ---------------- ------------------------------  ------  ---------------------
 C                     6-311++G(3df,3pd)            13       45   5s4p3d1f




 Summary of "ao basis" -> "ao basis" (cartesian)
 ------------------------------------------------------------------------------
       Tag                 Description            Shells   Functions and Types
 ---------------- ------------------------------  ------  ---------------------
 C                     6-311++G(3df,3pd)            13       45   5s4p3d1f


  Caching 1-el integrals 

            General Information
            -------------------
          SCF calculation type: DFT
          Wavefunction type:  spin polarized.
          No. of atoms     :     1
          No. of electrons :     5
           Alpha electrons :     3
            Beta electrons :     2
          Charge           :     1
          Spin multiplicity:     2
          Use of symmetry is: off; symmetry adaption is: off
          Maximum number of iterations: ***
          AO basis - number of functions:    45
                     number of shells:    13
          Convergence on energy requested: 1.00D-06
          Convergence on density requested: 1.00D-05
          Convergence on gradient requested: 5.00D-04

              XC Information
              --------------
                  TPSS metaGGA Exchange Functional  1.000          
             TPSS03 metaGGA Correlation Functional  1.000          

             Grid Information
             ----------------
          Grid used for XC integration:  medium    
          Radial quadrature: Mura-Knowles        
          Angular quadrature: Lebedev. 
          Tag              B.-S. Rad. Rad. Pts. Rad. Cut. Ang. Pts.
          ---              ---------- --------- --------- ---------
          C                   0.70       49           8.0       434
          Grid pruning is: on 
          Number of quadrature shells:    49
          Spatial weights used:  Erf1

          Convergence Information
          -----------------------
          Convergence aids based upon iterative change in 
          total energy or number of iterations. 
          Levelshifting, if invoked, occurs when the 
          HOMO/LUMO gap drops below (HL_TOL): 1.00D-02
          DIIS, if invoked, will attempt to extrapolate 
          using up to (NFOCK): 10 stored Fock matrices.

                    Damping( 0%)  Levelshifting(0.5)       DIIS
                  --------------- ------------------- ---------------
          dE  on:    start            ASAP                start   
          dE off:    2 iters        *** iters           *** iters 


      Screening Tolerance Information
      -------------------------------
          Density screening/tol_rho: 1.00D-10
          AO Gaussian exp screening on grid/accAOfunc:  14
          CD Gaussian exp screening on grid/accCDfunc:  20
          XC Gaussian exp screening on grid/accXCfunc:  20
          Schwarz screening/accCoul: 1.00D-08


      Superposition of Atomic Density Guess
      -------------------------------------

 Sum of atomic energies:         -37.66911787

 Renormalizing density from       6.00 to      5

      Non-variational initial energy
      ------------------------------

 Total energy =     -32.914130
 1-e energy   =     -42.011867
 2-e energy   =       9.097737
 HOMO         =      -0.639455
 LUMO         =      -0.639455

   Time after variat. SCF:      0.3
   Time prior to 1st pass:      0.3

 #quartets = 4.186D+03 #integrals = 9.141D+04 #direct =  0.0% #cached =100.0%


 Integral file          = ./C+.aoints.00
 Record size in doubles =    65536    No. of integs per rec  =    43688
 Max. records in memory =        3    Max. records in file   = 11667352
 No. of bits per label  =        8    No. of bits per value  =       64


File balance: exchanges=     0  moved=     0  time=   0.0


 Grid_pts file          = ./C+.gridpts.00
 Record size in doubles =  12289        No. of grid_pts per rec  =   3070
 Max. records in memory =      2        Max. recs in file   =  62220817


           Memory utilization after 1st SCF pass: 
           Heap Space remaining (MW):       12.88            12883772
          Stack Space remaining (MW):       13.11            13106724

   convergence    iter        energy       DeltaE   RMS-Dens  Diis-err    time
 ---------------- ----- ----------------- --------- --------- ---------  ------
 d= 0,ls=0.0,diis     1    -37.4249370934 -3.74D+01  8.06D-03  1.49D-01     0.6
                                                     9.20D-03  1.40D-01
 d= 0,ls=0.0,diis     2    -37.4317576313 -6.82D-03  1.39D-03  6.53D-03     0.6
                                                     1.49D-03  5.73D-03
 d= 0,ls=0.0,diis     3    -37.4336613125 -1.90D-03  3.76D-04  5.33D-05     0.7
                                                     3.54D-04  5.87D-05
 d= 0,ls=0.0,diis     4    -37.4331635059  4.98D-04  3.08D-05  2.64D-06     0.7
                                                     2.03D-05  1.75D-06
 d= 0,ls=0.0,diis     5    -37.4332127030 -4.92D-05  2.76D-06  2.01D-09     0.7
                                                     2.25D-06  2.10D-09
  Resetting Diis
 d= 0,ls=0.0,diis     6    -37.4332147569 -2.05D-06  4.24D-07  8.20D-11     0.8
                                                     1.26D-07  6.29D-11
 d= 0,ls=0.0,diis     7    -37.4332143997  3.57D-07  3.60D-07  1.64D-11     0.8
                                                     7.08D-08  2.41D-11


         Total DFT energy =      -37.433214399726
      One electron energy =      -47.464385842977
           Coulomb energy =       14.887086646395
          Exchange energy =       -4.737925640518
       Correlation energy =       -0.117989562626
 Nuclear repulsion energy =        0.000000000000

 Numeric. integr. density =        4.999999998034

     Total iterative time =      0.5s



                    DFT Final Alpha Molecular Orbital Analysis
                    ------------------------------------------

 Vector    1  Occ=1.000000D+00  E=-1.075443D+01
              MO Center=  1.9D-16,  8.5D-17, -6.7D-16, r^2= 2.8D-02
   Bfn.  Coefficient  Atom+Function         Bfn.  Coefficient  Atom+Function  
  ----- ------------  ---------------      ----- ------------  ---------------
     1      0.562479  1 C  s                  2      0.464583  1 C  s          

 Vector    2  Occ=1.000000D+00  E=-1.019620D+00
              MO Center=  1.6D-14,  4.5D-15, -1.8D-14, r^2= 7.2D-01
   Bfn.  Coefficient  Atom+Function         Bfn.  Coefficient  Atom+Function  
  ----- ------------  ---------------      ----- ------------  ---------------
     6      0.529670  1 C  s                 10      0.497462  1 C  s          
     2     -0.192574  1 C  s          

 Vector    3  Occ=1.000000D+00  E=-7.031604D-01
              MO Center=  1.3D-15, -1.9D-15, -4.3D-15, r^2= 7.9D-01
   Bfn.  Coefficient  Atom+Function         Bfn.  Coefficient  Atom+Function  
  ----- ------------  ---------------      ----- ------------  ---------------
     8      0.457898  1 C  py                 4      0.348278  1 C  py         
    12      0.320311  1 C  py         

 Vector    4  Occ=0.000000D+00  E=-6.634512D-01
              MO Center= -8.9D-15,  4.0D-15, -5.2D-15, r^2= 8.4D-01
   Bfn.  Coefficient  Atom+Function         Bfn.  Coefficient  Atom+Function  
  ----- ------------  ---------------      ----- ------------  ---------------
     7      0.387990  1 C  px                11      0.348528  1 C  px         
     3      0.339273  1 C  px         

 Vector    5  Occ=0.000000D+00  E=-6.634470D-01
              MO Center=  5.8D-15, -1.7D-15,  1.1D-14, r^2= 8.4D-01
   Bfn.  Coefficient  Atom+Function         Bfn.  Coefficient  Atom+Function  
  ----- ------------  ---------------      ----- ------------  ---------------
     9      0.392826  1 C  pz                13      0.352881  1 C  pz         
     5      0.343503  1 C  pz         

 Vector    6  Occ=0.000000D+00  E=-1.836043D-01
              MO Center=  7.1D-14, -6.3D-15, -8.4D-14, r^2= 6.3D+00
   Bfn.  Coefficient  Atom+Function         Bfn.  Coefficient  Atom+Function  
  ----- ------------  ---------------      ----- ------------  ---------------
    14      1.261245  1 C  s                 10     -0.411353  1 C  s          
     6     -0.385146  1 C  s          

 Vector    7  Occ=0.000000D+00  E=-1.284480D-01
              MO Center=  1.1D-14,  6.5D-15, -9.4D-15, r^2= 7.9D+00
   Bfn.  Coefficient  Atom+Function         Bfn.  Coefficient  Atom+Function  
  ----- ------------  ---------------      ----- ------------  ---------------
    16      0.981919  1 C  py                 8     -0.223998  1 C  py         
    15      0.176194  1 C  px         

 Vector    8  Occ=0.000000D+00  E=-1.203982D-01
              MO Center= -6.9D-14,  1.1D-14, -5.1D-15, r^2= 8.1D+00
   Bfn.  Coefficient  Atom+Function         Bfn.  Coefficient  Atom+Function  
  ----- ------------  ---------------      ----- ------------  ---------------
    15      1.007878  1 C  px                 7     -0.205413  1 C  px         
    16     -0.180489  1 C  py         

 Vector    9  Occ=0.000000D+00  E=-1.203979D-01
              MO Center=  5.0D-15, -7.3D-15,  7.9D-14, r^2= 8.1D+00
   Bfn.  Coefficient  Atom+Function         Bfn.  Coefficient  Atom+Function  
  ----- ------------  ---------------      ----- ------------  ---------------
    17      1.020774  1 C  pz                 9     -0.208037  1 C  pz         

 Vector   10  Occ=0.000000D+00  E= 7.753654D-03
              MO Center= -4.4D-15,  1.2D-15, -1.0D-17, r^2= 2.9D+00
   Bfn.  Coefficient  Atom+Function         Bfn.  Coefficient  Atom+Function  
  ----- ------------  ---------------      ----- ------------  ---------------
    31      1.523652  1 C  dxy               30      0.281974  1 C  dxx        
    33     -0.265909  1 C  dyy               34     -0.222565  1 C  dyz        
    25      0.172048  1 C  dxy        

 Vector   11  Occ=0.000000D+00  E= 7.753682D-03
              MO Center=  9.9D-16, -5.6D-16,  3.8D-15, r^2= 2.9D+00
   Bfn.  Coefficient  Atom+Function         Bfn.  Coefficient  Atom+Function  
  ----- ------------  ---------------      ----- ------------  ---------------
    34      1.576101  1 C  dyz               32      0.299197  1 C  dxz        
    28      0.177970  1 C  dyz               33     -0.158446  1 C  dyy        

 Vector   12  Occ=0.000000D+00  E= 1.095808D-02
              MO Center= -1.2D-15,  4.1D-15,  2.6D-15, r^2= 2.9D+00
   Bfn.  Coefficient  Atom+Function         Bfn.  Coefficient  Atom+Function  
  ----- ------------  ---------------      ----- ------------  ---------------
    33      0.902143  1 C  dyy               31      0.490499  1 C  dxy        
    35     -0.455905  1 C  dzz               30     -0.420580  1 C  dxx        
    34      0.218042  1 C  dyz        

 Vector   13  Occ=0.000000D+00  E= 1.472370D-02
              MO Center= -3.7D-15,  4.9D-16,  4.3D-15, r^2= 2.9D+00
   Bfn.  Coefficient  Atom+Function         Bfn.  Coefficient  Atom+Function  
  ----- ------------  ---------------      ----- ------------  ---------------
    32      0.931779  1 C  dxz               35      0.652720  1 C  dzz        
    30     -0.649311  1 C  dxx               34     -0.271345  1 C  dyz        
    31      0.158698  1 C  dxy        

 Vector   14  Occ=0.000000D+00  E= 1.472376D-02
              MO Center= -4.0D-15,  5.9D-16,  4.4D-15, r^2= 2.9D+00
   Bfn.  Coefficient  Atom+Function         Bfn.  Coefficient  Atom+Function  
  ----- ------------  ---------------      ----- ------------  ---------------
    32      1.302219  1 C  dxz               35     -0.481047  1 C  dzz        
    30      0.450946  1 C  dxx               31     -0.265734  1 C  dxy        
    34     -0.156929  1 C  dyz               26      0.155828  1 C  dxz        

 Vector   15  Occ=0.000000D+00  E= 8.892135D-02
              MO Center=  5.8D-14,  3.1D-15, -5.3D-14, r^2= 8.0D+00
   Bfn.  Coefficient  Atom+Function         Bfn.  Coefficient  Atom+Function  
  ----- ------------  ---------------      ----- ------------  ---------------
    14      2.308585  1 C  s                 30     -1.354561  1 C  dxx        
    35     -1.355025  1 C  dzz               33     -1.337080  1 C  dyy        
    10      0.925914  1 C  s                 24     -0.303400  1 C  dxx        
    29     -0.303575  1 C  dzz               27     -0.296844  1 C  dyy        
     2     -0.214401  1 C  s                  6      0.211826  1 C  s          

 Vector   16  Occ=0.000000D+00  E= 1.860325D-01
              MO Center= -9.8D-15, -2.5D-14,  5.8D-15, r^2= 5.4D+00
   Bfn.  Coefficient  Atom+Function         Bfn.  Coefficient  Atom+Function  
  ----- ------------  ---------------      ----- ------------  ---------------
    12      1.625838  1 C  py                16     -0.949165  1 C  py         
     8     -0.810200  1 C  py                11      0.291723  1 C  px         
     4     -0.239158  1 C  py                15     -0.170308  1 C  px         

 Vector   17  Occ=0.000000D+00  E= 2.056227D-01
              MO Center= -5.8D-14,  1.1D-14,  3.1D-15, r^2= 5.2D+00
   Bfn.  Coefficient  Atom+Function         Bfn.  Coefficient  Atom+Function  
  ----- ------------  ---------------      ----- ------------  ---------------
    11      1.632032  1 C  px                15     -0.929429  1 C  px         
     7     -0.836840  1 C  px                12     -0.289074  1 C  py         
     3     -0.239231  1 C  px                16      0.164626  1 C  py         

 Vector   18  Occ=0.000000D+00  E= 2.056251D-01
              MO Center= -1.7D-15, -5.3D-15,  4.9D-14, r^2= 5.2D+00
   Bfn.  Coefficient  Atom+Function         Bfn.  Coefficient  Atom+Function  
  ----- ------------  ---------------      ----- ------------  ---------------
    13      1.652350  1 C  pz                17     -0.940996  1 C  pz         
     9     -0.847259  1 C  pz                 5     -0.242209  1 C  pz         

 Vector   19  Occ=0.000000D+00  E= 7.748854D-01
              MO Center=  1.9D-15,  2.5D-15, -3.8D-16, r^2= 4.0D+00
   Bfn.  Coefficient  Atom+Function         Bfn.  Coefficient  Atom+Function  
  ----- ------------  ---------------      ----- ------------  ---------------
    10      7.625850  1 C  s                  6     -2.905525  1 C  s          
    30     -2.552054  1 C  dxx               35     -2.552660  1 C  dzz        
    33     -2.529475  1 C  dyy               14      1.529535  1 C  s          
    27     -0.896325  1 C  dyy               24     -0.849603  1 C  dxx        
    29     -0.848351  1 C  dzz               21     -0.204948  1 C  dyy        


                     DFT Final Beta Molecular Orbital Analysis
                     -----------------------------------------

 Vector    1  Occ=1.000000D+00  E=-1.073811D+01
              MO Center= -4.3D-16, -4.0D-17,  1.4D-16, r^2= 2.7D-02
   Bfn.  Coefficient  Atom+Function         Bfn.  Coefficient  Atom+Function  
  ----- ------------  ---------------      ----- ------------  ---------------
     1      0.563160  1 C  s                  2      0.464520  1 C  s          

 Vector    2  Occ=1.000000D+00  E=-9.799320D-01
              MO Center=  2.0D-14, -4.4D-15, -2.5D-14, r^2= 7.4D-01
   Bfn.  Coefficient  Atom+Function         Bfn.  Coefficient  Atom+Function  
  ----- ------------  ---------------      ----- ------------  ---------------
    10      0.498792  1 C  s                  6      0.483000  1 C  s          
     2     -0.181917  1 C  s          

 Vector    3  Occ=0.000000D+00  E=-6.638619D-01
              MO Center= -1.9D-14,  3.5D-16, -2.6D-15, r^2= 8.3D-01
   Bfn.  Coefficient  Atom+Function         Bfn.  Coefficient  Atom+Function  
  ----- ------------  ---------------      ----- ------------  ---------------
     7      0.393335  1 C  px                 3      0.340371  1 C  px         
    11      0.341361  1 C  px         

 Vector    4  Occ=0.000000D+00  E=-6.638608D-01
              MO Center=  4.5D-15, -4.7D-15,  2.0D-14, r^2= 8.3D-01
   Bfn.  Coefficient  Atom+Function         Bfn.  Coefficient  Atom+Function  
  ----- ------------  ---------------      ----- ------------  ---------------
     9      0.398242  1 C  pz                 5      0.344619  1 C  pz         
    13      0.345623  1 C  pz         

 Vector    5  Occ=0.000000D+00  E=-5.739349D-01
              MO Center=  1.0D-15,  7.3D-16, -5.7D-15, r^2= 9.5D-01
   Bfn.  Coefficient  Atom+Function         Bfn.  Coefficient  Atom+Function  
  ----- ------------  ---------------      ----- ------------  ---------------
    12      0.420589  1 C  py                 4      0.329633  1 C  py         
     8      0.330827  1 C  py         

 Vector    6  Occ=0.000000D+00  E=-1.690327D-01
              MO Center=  9.0D-14, -2.6D-15, -1.1D-13, r^2= 6.5D+00
   Bfn.  Coefficient  Atom+Function         Bfn.  Coefficient  Atom+Function  
  ----- ------------  ---------------      ----- ------------  ---------------
    14      1.320196  1 C  s                 10     -0.385045  1 C  s          
     6     -0.367293  1 C  s          

 Vector    7  Occ=0.000000D+00  E=-1.142883D-01
              MO Center= -9.5D-14,  1.8D-14, -1.4D-15, r^2= 8.2D+00
   Bfn.  Coefficient  Atom+Function         Bfn.  Coefficient  Atom+Function  
  ----- ------------  ---------------      ----- ------------  ---------------
    15      1.011783  1 C  px                 7     -0.191841  1 C  px         
    16     -0.177243  1 C  py         

 Vector    8  Occ=0.000000D+00  E=-1.142882D-01
              MO Center=  8.5D-15, -1.0D-14,  1.0D-13, r^2= 8.2D+00
   Bfn.  Coefficient  Atom+Function         Bfn.  Coefficient  Atom+Function  
  ----- ------------  ---------------      ----- ------------  ---------------
    17      1.024030  1 C  pz                 9     -0.194161  1 C  pz         

 Vector    9  Occ=0.000000D+00  E=-1.015982D-01
              MO Center=  3.1D-15, -9.3D-15, -5.0D-15, r^2= 8.5D+00
   Bfn.  Coefficient  Atom+Function         Bfn.  Coefficient  Atom+Function  
  ----- ------------  ---------------      ----- ------------  ---------------
    16      1.051870  1 C  py                15      0.188751  1 C  px         
     8     -0.163563  1 C  py         

 Vector   10  Occ=0.000000D+00  E= 2.003639D-02
              MO Center= -3.1D-15, -3.5D-16,  3.4D-15, r^2= 2.9D+00
   Bfn.  Coefficient  Atom+Function         Bfn.  Coefficient  Atom+Function  
  ----- ------------  ---------------      ----- ------------  ---------------
    35     -0.773429  1 C  dzz               30      0.760472  1 C  dxx        
    32     -0.461744  1 C  dxz               31     -0.236089  1 C  dxy        
    34      0.206254  1 C  dyz        

 Vector   11  Occ=0.000000D+00  E= 2.003642D-02
              MO Center= -2.9D-15, -5.4D-16,  6.1D-15, r^2= 2.9D+00
   Bfn.  Coefficient  Atom+Function         Bfn.  Coefficient  Atom+Function  
  ----- ------------  ---------------      ----- ------------  ---------------
    32      1.534012  1 C  dxz               35     -0.244704  1 C  dzz        
    34     -0.236226  1 C  dyz               30      0.217305  1 C  dxx        
    31     -0.200360  1 C  dxy               26      0.181562  1 C  dxz        

 Vector   12  Occ=0.000000D+00  E= 3.409074D-02
              MO Center=  2.7D-16,  8.2D-16,  4.2D-15, r^2= 3.0D+00
   Bfn.  Coefficient  Atom+Function         Bfn.  Coefficient  Atom+Function  
  ----- ------------  ---------------      ----- ------------  ---------------
    34      1.604519  1 C  dyz               32      0.287637  1 C  dxz        
    28      0.156148  1 C  dyz        

 Vector   13  Occ=0.000000D+00  E= 3.409076D-02
              MO Center= -4.8D-16,  3.4D-17, -1.8D-16, r^2= 3.0D+00
   Bfn.  Coefficient  Atom+Function         Bfn.  Coefficient  Atom+Function  
  ----- ------------  ---------------      ----- ------------  ---------------
    31      1.542513  1 C  dxy               30      0.286006  1 C  dxx        
    33     -0.286277  1 C  dyy               25      0.150114  1 C  dxy        

 Vector   14  Occ=0.000000D+00  E= 3.528908D-02
              MO Center= -1.6D-15, -1.6D-15,  9.3D-16, r^2= 3.0D+00
   Bfn.  Coefficient  Atom+Function         Bfn.  Coefficient  Atom+Function  
  ----- ------------  ---------------      ----- ------------  ---------------
    33      0.906431  1 C  dyy               31      0.494271  1 C  dxy        
    35     -0.462095  1 C  dzz               30     -0.426510  1 C  dxx        
    34      0.219700  1 C  dyz        

 Vector   15  Occ=0.000000D+00  E= 1.010593D-01
              MO Center=  7.9D-14,  3.4D-15, -7.9D-14, r^2= 7.8D+00
   Bfn.  Coefficient  Atom+Function         Bfn.  Coefficient  Atom+Function  
  ----- ------------  ---------------      ----- ------------  ---------------
    14      2.292673  1 C  s                 30     -1.393104  1 C  dxx        
    35     -1.394429  1 C  dzz               33     -1.343412  1 C  dyy        
    10      1.019274  1 C  s                 27     -0.324951  1 C  dyy        
    24     -0.293624  1 C  dxx               29     -0.292788  1 C  dzz        
     2     -0.215229  1 C  s                  6      0.182262  1 C  s          

 Vector   16  Occ=0.000000D+00  E= 2.120850D-01
              MO Center= -7.4D-14,  1.4D-14,  2.4D-15, r^2= 5.2D+00
   Bfn.  Coefficient  Atom+Function         Bfn.  Coefficient  Atom+Function  
  ----- ------------  ---------------      ----- ------------  ---------------
    11      1.635600  1 C  px                15     -0.925326  1 C  px         
     7     -0.822949  1 C  px                12     -0.289718  1 C  py         
     3     -0.237003  1 C  px                16      0.163905  1 C  py         

 Vector   17  Occ=0.000000D+00  E= 2.120856D-01
              MO Center= -7.7D-16, -5.2D-15,  7.3D-14, r^2= 5.2D+00
   Bfn.  Coefficient  Atom+Function         Bfn.  Coefficient  Atom+Function  
  ----- ------------  ---------------      ----- ------------  ---------------
    13      1.655958  1 C  pz                17     -0.936843  1 C  pz         
     9     -0.833192  1 C  pz                 5     -0.239953  1 C  pz         

 Vector   18  Occ=0.000000D+00  E= 2.409611D-01
              MO Center= -3.0D-15, -3.1D-15,  2.2D-15, r^2= 4.8D+00
   Bfn.  Coefficient  Atom+Function         Bfn.  Coefficient  Atom+Function  
  ----- ------------  ---------------      ----- ------------  ---------------
    12      1.604504  1 C  py                16     -0.873547  1 C  py         
     8     -0.836078  1 C  py                11      0.287921  1 C  px         
     4     -0.263908  1 C  py                15     -0.156754  1 C  px         
     7     -0.150030  1 C  px         

 Vector   19  Occ=0.000000D+00  E= 8.009022D-01
              MO Center=  3.9D-15, -1.2D-17, -4.2D-15, r^2= 4.0D+00
   Bfn.  Coefficient  Atom+Function         Bfn.  Coefficient  Atom+Function  
  ----- ------------  ---------------      ----- ------------  ---------------
    10      7.660582  1 C  s                  6     -2.906055  1 C  s          
    33     -2.587306  1 C  dyy               30     -2.517269  1 C  dxx        
    35     -2.515401  1 C  dzz               14      1.507992  1 C  s          
    24     -0.912123  1 C  dxx               29     -0.914834  1 C  dzz        
    27     -0.810467  1 C  dyy               18     -0.201811  1 C  dxx        


   alpha - beta orbital overlaps 
   ----------------------------- 


   alpha      1      2      3      4      5      6      7      8      9     10
    beta      1      2      5      3      4      6      9      7      8     13
 overlap   1.000  0.999  0.996  1.000  1.000  0.999  0.995  0.999  0.999  0.992


   alpha     11     12     13     14     15     16     17     18     19     20
    beta     12     14     10     11     15     18     16     17     19     20
 overlap   0.992  0.999  0.946  0.946  0.999  0.995  1.000  1.000  0.995  0.976


   alpha     21     22     23     24     25     26     27     28     29     30
    beta     21     23     22     24     25     26     27     28     29     30
 overlap   0.976  0.990  0.990  0.994  0.999  0.999  0.990  0.833  0.833  0.999


   alpha     31     32     33     34     35     36     37     38     39     40
    beta     31     32     33     34     35     36     37     38     39     40
 overlap   0.999  0.999  0.999  0.990  1.000  0.998  0.998  0.999  0.821  0.821


   alpha     41     42     43     44     45
    beta     41     42     43     44     45
 overlap   1.000  1.000  1.000  0.999  1.000

     --------------------------
     Expectation value of S2:  
     --------------------------
      <S2> =      0.7524 (Exact =     0.7500)


 Parallel integral file used      16 records with       0 large values


 Task  times  cpu:        0.6s     wall:        1.1s


                                NWChem Input Module
                                -------------------


 Summary of allocated global arrays
-----------------------------------
  No active global arrays



                         GA Statistics for process    0
                         ------------------------------

       create   destroy   get      put      acc     scatter   gather  read&inc
calls:  255      255      758      494      173        0        0       17     
number of processes/call 1.81e+00 1.64e+00 3.79e+00 0.00e+00 0.00e+00
bytes total:             7.65e+06 3.11e+06 2.80e+06 0.00e+00 0.00e+00 1.36e+02
bytes remote:            6.98e+05 2.71e+05 6.16e+05 0.00e+00 0.00e+00 0.00e+00
Max memory consumed for GA by this process: 1020600 bytes

MA_summarize_allocated_blocks: starting scan ...
MA_summarize_allocated_blocks: scan completed: 0 heap blocks, 0 stack blocks
MA usage statistics:

	allocation statistics:
					      heap	     stack
					      ----	     -----
	current number of blocks	         0	         0
	maximum number of blocks	        23	        51
	current total bytes		         0	         0
	maximum total bytes		   1787416	  22512552
	maximum total K-bytes		      1788	     22513
	maximum total M-bytes		         2	        23


                                     CITATION
                                     --------
                Please cite the following reference when publishing
                           results obtained with NWChem:

                 M. Valiev, E.J. Bylaska, N. Govind, K. Kowalski,
              T.P. Straatsma, H.J.J. van Dam, D. Wang, J. Nieplocha,
                        E. Apra, T.L. Windus, W.A. de Jong
                 "NWChem: a comprehensive and scalable open-source
                  solution for large scale molecular simulations"
                      Comput. Phys. Commun. 181, 1477 (2010)
                           doi:10.1016/j.cpc.2010.04.018

                                      AUTHORS
                                      -------
          E. Apra, E. J. Bylaska, W. A. de Jong, N. Govind, K. Kowalski,
       T. P. Straatsma, M. Valiev, H. J. J. van Dam, D. Wang, T. L. Windus,
        J. Hammond, J. Autschbach, K. Bhaskaran-Nair, J. Brabec, K. Lopata,
       S. A. Fischer, S. Krishnamoorthy, W. Ma, M. Klemm, O. Villa, Y. Chen,
    V. Anisimov, F. Aquino, S. Hirata, M. T. Hackler, T. Risthaus, M. Malagoli,
       A. Marenich, A. Otero-de-la-Roza, J. Mullin, P. Nichols, R. Peverati,
     J. Pittner, Y. Zhao, P.-D. Fan, A. Fonari, M. Williamson, R. J. Harrison,
       J. R. Rehr, M. Dupuis, D. Silverstein, D. M. A. Smith, J. Nieplocha,
        V. Tipparaju, M. Krishnan, B. E. Van Kuiken, A. Vazquez-Mayagoitia,
        L. Jensen, M. Swart, Q. Wu, T. Van Voorhis, A. A. Auer, M. Nooijen,
      L. D. Crosby, E. Brown, G. Cisneros, G. I. Fann, H. Fruchtl, J. Garza,
        K. Hirao, R. A. Kendall, J. A. Nichols, K. Tsemekhman, K. Wolinski,
     J. Anchell, D. E. Bernholdt, P. Borowski, T. Clark, D. Clerc, H. Dachsel,
   M. J. O. Deegan, K. Dyall, D. Elwood, E. Glendening, M. Gutowski, A. C. Hess,
         J. Jaffe, B. G. Johnson, J. Ju, R. Kobayashi, R. Kutteh, Z. Lin,
   R. Littlefield, X. Long, B. Meng, T. Nakajima, S. Niu, L. Pollack, M. Rosing,
   K. Glaesemann, G. Sandrone, M. Stave, H. Taylor, G. Thomas, J. H. van Lenthe,
                               A. T. Wong, Z. Zhang.

 Total times  cpu:        0.6s     wall:        1.3s
