[1537795723.878177] [r8n4:4929 :0]         sys.c:744  MXM  WARN  Conflicting CPU frequencies detected, using: 1697.87
[1537795723.887851] [r8n4:4931 :0]         sys.c:744  MXM  WARN  Conflicting CPU frequencies detected, using: 1795.08
[1537795723.888023] [r8n4:4930 :0]         sys.c:744  MXM  WARN  Conflicting CPU frequencies detected, using: 1795.08
[1537795723.888247] [r8n4:4932 :0]         sys.c:744  MXM  WARN  Conflicting CPU frequencies detected, using: 1795.08
[1537795723.889126] [r8n4:4934 :0]         sys.c:744  MXM  WARN  Conflicting CPU frequencies detected, using: 1795.08
[1537795723.889585] [r8n4:4936 :0]         sys.c:744  MXM  WARN  Conflicting CPU frequencies detected, using: 1795.08
[1537795723.889638] [r8n4:4933 :0]         sys.c:744  MXM  WARN  Conflicting CPU frequencies detected, using: 1795.08
[1537795723.889812] [r8n4:4935 :0]         sys.c:744  MXM  WARN  Conflicting CPU frequencies detected, using: 1795.08
[1537795723.896951] [r8n4:4940 :0]         sys.c:744  MXM  WARN  Conflicting CPU frequencies detected, using: 1895.16
[1537795723.897241] [r8n4:4938 :0]         sys.c:744  MXM  WARN  Conflicting CPU frequencies detected, using: 1895.16
[1537795723.929880] [r8n4:4946 :0]         sys.c:744  MXM  WARN  Conflicting CPU frequencies detected, using: 2096.86
[1537795723.929909] [r8n4:4951 :0]         sys.c:744  MXM  WARN  Conflicting CPU frequencies detected, using: 2096.86
[1537795723.929967] [r8n4:4944 :0]         sys.c:744  MXM  WARN  Conflicting CPU frequencies detected, using: 2096.86
[1537795723.930088] [r8n4:4949 :0]         sys.c:744  MXM  WARN  Conflicting CPU frequencies detected, using: 2096.86
[1537795723.930186] [r8n4:4953 :0]         sys.c:744  MXM  WARN  Conflicting CPU frequencies detected, using: 2096.86
[1537795723.930225] [r8n4:4942 :0]         sys.c:744  MXM  WARN  Conflicting CPU frequencies detected, using: 2096.86
 argument  1 = /storage/home/bikashp/nwchem_run/rabeet/ip13g2/nwip13g2/C.nw
                                         
                                         


              Northwest Computational Chemistry Package (NWChem) 6.6
              ------------------------------------------------------


                    Environmental Molecular Sciences Laboratory
                       Pacific Northwest National Laboratory
                                Richland, WA 99352

                              Copyright (c) 1994-2015
                       Pacific Northwest National Laboratory
                            Battelle Memorial Institute

             NWChem is an open-source computational chemistry package
                        distributed under the terms of the
                      Educational Community License (ECL) 2.0
             A copy of the license is included with this distribution
                              in the LICENSE.TXT file

                                  ACKNOWLEDGMENT
                                  --------------

            This software and its documentation were developed at the
            EMSL at Pacific Northwest National Laboratory, a multiprogram
            national laboratory, operated for the U.S. Department of Energy
            by Battelle under Contract Number DE-AC05-76RL01830. Support
            for this work was provided by the Department of Energy Office
            of Biological and Environmental Research, Office of Basic
            Energy Sciences, and the Office of Advanced Scientific Computing.


           Job information
           ---------------

    hostname        = r8n4.niserhpc.org
    program         = /home/bikashp/Code/nwchem-6.6_tpssloc/bin/LINUX64/nwchem
    date            = Mon Sep 24 18:58:46 2018

    compiled        = Tue_Sep_18_16:24:59_2018
    source          = /home/bikashp/Code/nwchem-6.6_tpssloc
    nwchem branch   = 6.6
    nwchem revision = 27746
    ga revision     = 10594
    input           = /storage/home/bikashp/nwchem_run/rabeet/ip13g2/nwip13g2/C.nw
    prefix          = C.
    data base       = ./C.db
    status          = startup
    nproc           =       16
    time left       =     -1s



           Memory information
           ------------------

    heap     =   13107196 doubles =    100.0 Mbytes
    stack    =   13107201 doubles =    100.0 Mbytes
    global   =   26214400 doubles =    200.0 Mbytes (distinct from heap & stack)
    total    =   52428797 doubles =    400.0 Mbytes
    verify   = yes
    hardfail = no 


           Directory information
           ---------------------

  0 permanent = .
  0 scratch   = .




                                NWChem Input Module
                                -------------------



 Scaling coordinates for geometry "geometry" by  1.889725989
 (inverse scale =  0.529177249)



                             Geometry "geometry" -> ""
                             -------------------------

 Output coordinates in angstroms (scale by  1.889725989 to convert to a.u.)

  No.       Tag          Charge          X              Y              Z
 ---- ---------------- ---------- -------------- -------------- --------------
    1 C                    6.0000     0.00000000     0.00000000     0.00000000

      Atomic Mass 
      ----------- 

      C                 12.000000


 Effective nuclear repulsion energy (a.u.)       0.0000000000

            Nuclear Dipole moment (a.u.) 
            ----------------------------
        X                 Y               Z
 ---------------- ---------------- ----------------
     0.0000000000     0.0000000000     0.0000000000


            XYZ format geometry
            -------------------
     1
 geometry
 C                     0.00000000     0.00000000     0.00000000



 Summary of "ao basis" -> "" (cartesian)
 ------------------------------------------------------------------------------
       Tag                 Description            Shells   Functions and Types
 ---------------- ------------------------------  ------  ---------------------
 *                     6-311++G(3df,3pd)              on all atoms 



                                 NWChem DFT Module
                                 -----------------


                      Basis "ao basis" -> "ao basis" (cartesian)
                      -----
  C (Carbon)
  ----------
            Exponent  Coefficients 
       -------------- ---------------------------------------------------------
  1 S  4.56324000E+03  0.001967
  1 S  6.82024000E+02  0.015231
  1 S  1.54973000E+02  0.076127
  1 S  4.44553000E+01  0.260801
  1 S  1.30290000E+01  0.616462
  1 S  1.82773000E+00  0.221006

  2 S  2.09642000E+01  0.114660
  2 S  4.80331000E+00  0.919999
  2 S  1.45933000E+00 -0.003031

  3 P  2.09642000E+01  0.040249
  3 P  4.80331000E+00  0.237594
  3 P  1.45933000E+00  0.815854

  4 S  4.83456000E-01  1.000000

  5 P  4.83456000E-01  1.000000

  6 S  1.45585000E-01  1.000000

  7 P  1.45585000E-01  1.000000

  8 S  4.38000000E-02  1.000000

  9 P  4.38000000E-02  1.000000

 10 D  2.50400000E+00  1.000000

 11 D  6.26000000E-01  1.000000

 12 D  1.56500000E-01  1.000000

 13 F  8.00000000E-01  1.000000



 Summary of "ao basis" -> "ao basis" (cartesian)
 ------------------------------------------------------------------------------
       Tag                 Description            Shells   Functions and Types
 ---------------- ------------------------------  ------  ---------------------
 C                     6-311++G(3df,3pd)            13       45   5s4p3d1f




 Summary of "ao basis" -> "ao basis" (cartesian)
 ------------------------------------------------------------------------------
       Tag                 Description            Shells   Functions and Types
 ---------------- ------------------------------  ------  ---------------------
 C                     6-311++G(3df,3pd)            13       45   5s4p3d1f


  Caching 1-el integrals 

            General Information
            -------------------
          SCF calculation type: DFT
          Wavefunction type:  spin polarized.
          No. of atoms     :     1
          No. of electrons :     6
           Alpha electrons :     4
            Beta electrons :     2
          Charge           :     0
          Spin multiplicity:     3
          Use of symmetry is: off; symmetry adaption is: off
          Maximum number of iterations: ***
          AO basis - number of functions:    45
                     number of shells:    13
          Convergence on energy requested: 1.00D-06
          Convergence on density requested: 1.00D-05
          Convergence on gradient requested: 5.00D-04

              XC Information
              --------------
                  TPSS metaGGA Exchange Functional  1.000          
             TPSS03 metaGGA Correlation Functional  1.000          

             Grid Information
             ----------------
          Grid used for XC integration:  medium    
          Radial quadrature: Mura-Knowles        
          Angular quadrature: Lebedev. 
          Tag              B.-S. Rad. Rad. Pts. Rad. Cut. Ang. Pts.
          ---              ---------- --------- --------- ---------
          C                   0.70       49           8.0       434
          Grid pruning is: on 
          Number of quadrature shells:    49
          Spatial weights used:  Erf1

          Convergence Information
          -----------------------
          Convergence aids based upon iterative change in 
          total energy or number of iterations. 
          Levelshifting, if invoked, occurs when the 
          HOMO/LUMO gap drops below (HL_TOL): 1.00D-02
          DIIS, if invoked, will attempt to extrapolate 
          using up to (NFOCK): 10 stored Fock matrices.

                    Damping( 0%)  Levelshifting(0.5)       DIIS
                  --------------- ------------------- ---------------
          dE  on:    start            ASAP                start   
          dE off:    2 iters        *** iters           *** iters 


      Screening Tolerance Information
      -------------------------------
          Density screening/tol_rho: 1.00D-10
          AO Gaussian exp screening on grid/accAOfunc:  14
          CD Gaussian exp screening on grid/accCDfunc:  20
          XC Gaussian exp screening on grid/accXCfunc:  20
          Schwarz screening/accCoul: 1.00D-08


      Superposition of Atomic Density Guess
      -------------------------------------

 Sum of atomic energies:         -37.66911787

      Non-variational initial energy
      ------------------------------

 Total energy =     -37.313499
 1-e energy   =     -50.414240
 2-e energy   =      13.100741
 HOMO         =      -0.080018
 LUMO         =      -0.080018

   Time after variat. SCF:      0.4
   Time prior to 1st pass:      0.4

 #quartets = 4.186D+03 #integrals = 9.141D+04 #direct =  0.0% #cached =100.0%


 Integral file          = ./C.aoints.00
 Record size in doubles =    65536    No. of integs per rec  =    43688
 Max. records in memory =        3    Max. records in file   = 11667504
 No. of bits per label  =        8    No. of bits per value  =       64


File balance: exchanges=     0  moved=     0  time=   0.0


 Grid_pts file          = ./C.gridpts.00
 Record size in doubles =  12289        No. of grid_pts per rec  =   3070
 Max. records in memory =      2        Max. recs in file   =  62221628


           Memory utilization after 1st SCF pass: 
           Heap Space remaining (MW):       12.88            12883772
          Stack Space remaining (MW):       13.11            13106724

   convergence    iter        energy       DeltaE   RMS-Dens  Diis-err    time
 ---------------- ----- ----------------- --------- --------- ---------  ------
 d= 0,ls=0.0,diis     1    -37.8052276813 -3.78D+01  8.01D-03  7.04D-02     0.6
                                                     5.85D-03  2.85D-02
 d= 0,ls=0.0,diis     2    -37.8540971798 -4.89D-02  3.29D-03  2.31D-02     0.7
                                                     2.70D-03  1.19D-02
 d= 0,ls=0.0,diis     3    -37.8517204884  2.38D-03  1.11D-03  9.74D-04     0.7
                                                     1.23D-03  3.96D-04
 d= 0,ls=0.0,diis     4    -37.8516040227  1.16D-04  3.70D-04  7.24D-05     0.7
                                                     4.32D-04  3.17D-05
 d= 0,ls=0.0,diis     5    -37.8518265219 -2.22D-04  3.33D-05  2.63D-07     0.8
                                                     3.73D-05  1.31D-07
  Resetting Diis
 d= 0,ls=0.0,diis     6    -37.8517830334  4.35D-05  2.19D-06  4.13D-09     0.8
                                                     3.42D-06  4.25D-09
 d= 0,ls=0.0,diis     7    -37.8517851982 -2.16D-06  4.30D-07  4.42D-11     0.8
                                                     1.56D-07  3.87D-11
 d= 0,ls=0.0,diis     8    -37.8517854651 -2.67D-07  3.18D-07  1.18D-11     0.9
                                                     4.53D-08  1.99D-11


         Total DFT energy =      -37.851785465082
      One electron energy =      -50.247954157061
           Coulomb energy =       17.584161843635
          Exchange energy =       -5.045190098612
       Correlation energy =       -0.142803053044
 Nuclear repulsion energy =        0.000000000000

 Numeric. integr. density =        5.999999996890

     Total iterative time =      0.5s



                    DFT Final Alpha Molecular Orbital Analysis
                    ------------------------------------------

 Vector    1  Occ=1.000000D+00  E=-1.021133D+01
              MO Center= -4.3D-17,  1.2D-16,  8.3D-17, r^2= 2.8D-02
   Bfn.  Coefficient  Atom+Function         Bfn.  Coefficient  Atom+Function  
  ----- ------------  ---------------      ----- ------------  ---------------
     1      0.561798  1 C  s                  2      0.465664  1 C  s          

 Vector    2  Occ=1.000000D+00  E=-5.932704D-01
              MO Center= -3.6D-16,  9.8D-15,  4.1D-15, r^2= 8.4D-01
   Bfn.  Coefficient  Atom+Function         Bfn.  Coefficient  Atom+Function  
  ----- ------------  ---------------      ----- ------------  ---------------
    10      0.697654  1 C  s                  6      0.462959  1 C  s          
     2     -0.196715  1 C  s          

 Vector    3  Occ=1.000000D+00  E=-2.720985D-01
              MO Center=  1.7D-15,  2.4D-15,  1.2D-15, r^2= 1.1D+00
   Bfn.  Coefficient  Atom+Function         Bfn.  Coefficient  Atom+Function  
  ----- ------------  ---------------      ----- ------------  ---------------
    11      0.444406  1 C  px                 7      0.415211  1 C  px         
     3      0.277556  1 C  px         

 Vector    4  Occ=1.000000D+00  E=-2.720982D-01
              MO Center= -4.8D-15, -9.2D-15,  5.0D-15, r^2= 1.1D+00
   Bfn.  Coefficient  Atom+Function         Bfn.  Coefficient  Atom+Function  
  ----- ------------  ---------------      ----- ------------  ---------------
    12      0.364933  1 C  py                 8      0.340958  1 C  py         
    13     -0.263872  1 C  pz                 9     -0.246537  1 C  pz         
     4      0.227920  1 C  py                 5     -0.164803  1 C  pz         

 Vector    5  Occ=0.000000D+00  E=-2.554515D-01
              MO Center=  1.8D-15, -3.4D-15, -3.0D-15, r^2= 1.1D+00
   Bfn.  Coefficient  Atom+Function         Bfn.  Coefficient  Atom+Function  
  ----- ------------  ---------------      ----- ------------  ---------------
    13      0.363198  1 C  pz                 9      0.294932  1 C  pz         
    12      0.288302  1 C  py                 8      0.234112  1 C  py         
     5      0.224699  1 C  pz                 4      0.178362  1 C  py         

 Vector    6  Occ=0.000000D+00  E= 1.537239D-02
              MO Center=  4.8D-15,  1.5D-14,  4.5D-14, r^2= 7.9D+00
   Bfn.  Coefficient  Atom+Function         Bfn.  Coefficient  Atom+Function  
  ----- ------------  ---------------      ----- ------------  ---------------
    14      1.720491  1 C  s                  6     -0.333601  1 C  s          
    35     -0.269017  1 C  dzz               33     -0.262423  1 C  dyy        
    10     -0.252170  1 C  s                 30     -0.251917  1 C  dxx        

 Vector    7  Occ=0.000000D+00  E= 6.104254D-02
              MO Center= -1.4D-14, -8.3D-16, -5.2D-16, r^2= 9.2D+00
   Bfn.  Coefficient  Atom+Function         Bfn.  Coefficient  Atom+Function  
  ----- ------------  ---------------      ----- ------------  ---------------
    15      1.149737  1 C  px                11     -0.347597  1 C  px         
    17      0.165777  1 C  pz         

 Vector    8  Occ=0.000000D+00  E= 6.104257D-02
              MO Center=  1.7D-15,  1.2D-14, -9.7D-15, r^2= 9.2D+00
   Bfn.  Coefficient  Atom+Function         Bfn.  Coefficient  Atom+Function  
  ----- ------------  ---------------      ----- ------------  ---------------
    16      0.915357  1 C  py                17     -0.718916  1 C  pz         
    12     -0.276739  1 C  py                13      0.217348  1 C  pz         

 Vector    9  Occ=0.000000D+00  E= 6.562282D-02
              MO Center=  8.7D-15, -2.8D-14, -3.3D-14, r^2= 9.3D+00
   Bfn.  Coefficient  Atom+Function         Bfn.  Coefficient  Atom+Function  
  ----- ------------  ---------------      ----- ------------  ---------------
    17      0.909499  1 C  pz                16      0.721919  1 C  py         
    13     -0.291956  1 C  pz                12     -0.231742  1 C  py         
    15     -0.182877  1 C  px         

 Vector   10  Occ=0.000000D+00  E= 2.672803D-01
              MO Center= -5.3D-15, -7.9D-15,  4.6D-15, r^2= 3.1D+00
   Bfn.  Coefficient  Atom+Function         Bfn.  Coefficient  Atom+Function  
  ----- ------------  ---------------      ----- ------------  ---------------
    30      0.783495  1 C  dxx               34      0.780608  1 C  dyz        
    32      0.546118  1 C  dxz               33     -0.528609  1 C  dyy        
    31     -0.291099  1 C  dxy               35     -0.254891  1 C  dzz        

 Vector   11  Occ=0.000000D+00  E= 2.672803D-01
              MO Center=  1.3D-15, -2.7D-16,  1.1D-15, r^2= 3.1D+00
   Bfn.  Coefficient  Atom+Function         Bfn.  Coefficient  Atom+Function  
  ----- ------------  ---------------      ----- ------------  ---------------
    31      1.297383  1 C  dxy               32     -0.917042  1 C  dxz        
    34      0.343240  1 C  dyz               30      0.280307  1 C  dxx        
    35     -0.228411  1 C  dzz        

 Vector   12  Occ=0.000000D+00  E= 2.744493D-01
              MO Center=  8.7D-16, -1.3D-15, -2.1D-15, r^2= 3.1D+00
   Bfn.  Coefficient  Atom+Function         Bfn.  Coefficient  Atom+Function  
  ----- ------------  ---------------      ----- ------------  ---------------
    32      1.048049  1 C  dxz               33      0.622299  1 C  dyy        
    31      0.605770  1 C  dxy               34      0.443572  1 C  dyz        
    35     -0.428913  1 C  dzz               30     -0.193377  1 C  dxx        

 Vector   13  Occ=0.000000D+00  E= 2.744493D-01
              MO Center=  5.7D-15, -7.0D-15,  3.3D-16, r^2= 3.1D+00
   Bfn.  Coefficient  Atom+Function         Bfn.  Coefficient  Atom+Function  
  ----- ------------  ---------------      ----- ------------  ---------------
    31      0.826762  1 C  dxy               32      0.726731  1 C  dxz        
    35      0.712639  1 C  dzz               33     -0.537710  1 C  dyy        
    30     -0.174945  1 C  dxx        

 Vector   14  Occ=0.000000D+00  E= 2.789842D-01
              MO Center= -1.4D-14, -1.2D-14,  4.7D-15, r^2= 3.4D+00
   Bfn.  Coefficient  Atom+Function         Bfn.  Coefficient  Atom+Function  
  ----- ------------  ---------------      ----- ------------  ---------------
    34      1.320907  1 C  dyz               30     -0.878244  1 C  dxx        
    14      0.685557  1 C  s                 33     -0.387650  1 C  dyy        
    10      0.361924  1 C  s                 32     -0.334612  1 C  dxz        
    31     -0.265595  1 C  dxy        

 Vector   15  Occ=0.000000D+00  E= 3.067252D-01
              MO Center=  6.1D-15, -2.0D-14,  2.6D-14, r^2= 6.2D+00
   Bfn.  Coefficient  Atom+Function         Bfn.  Coefficient  Atom+Function  
  ----- ------------  ---------------      ----- ------------  ---------------
    14      1.968513  1 C  s                 35     -1.544331  1 C  dzz        
    10      1.477872  1 C  s                 33     -1.440493  1 C  dyy        
    30     -1.275029  1 C  dxx               34     -0.445519  1 C  dyz        
    29     -0.337266  1 C  dzz               27     -0.331505  1 C  dyy        
    24     -0.322324  1 C  dxx                2     -0.229836  1 C  s          

 Vector   16  Occ=0.000000D+00  E= 4.610624D-01
              MO Center=  4.9D-15, -1.9D-16, -2.3D-15, r^2= 3.9D+00
   Bfn.  Coefficient  Atom+Function         Bfn.  Coefficient  Atom+Function  
  ----- ------------  ---------------      ----- ------------  ---------------
    11      1.527782  1 C  px                 7     -0.896429  1 C  px         
    15     -0.732660  1 C  px                13      0.471785  1 C  pz         
     9     -0.276821  1 C  pz                 3     -0.249057  1 C  px         
    17     -0.226248  1 C  pz                12     -0.207340  1 C  py         

 Vector   17  Occ=0.000000D+00  E= 4.610626D-01
              MO Center=  1.1D-14,  5.4D-14, -2.7D-14, r^2= 3.9D+00
   Bfn.  Coefficient  Atom+Function         Bfn.  Coefficient  Atom+Function  
  ----- ------------  ---------------      ----- ------------  ---------------
    12      1.255455  1 C  py                13     -0.906022  1 C  pz         
     8     -0.736640  1 C  py                16     -0.602063  1 C  py         
     9      0.531610  1 C  pz                11      0.450164  1 C  px         
    17      0.434490  1 C  pz                 7     -0.264135  1 C  px         
    15     -0.215880  1 C  px                 4     -0.204662  1 C  py         

 Vector   18  Occ=0.000000D+00  E= 4.868245D-01
              MO Center= -7.4D-15,  2.2D-15, -1.0D-14, r^2= 3.9D+00
   Bfn.  Coefficient  Atom+Function         Bfn.  Coefficient  Atom+Function  
  ----- ------------  ---------------      ----- ------------  ---------------
    13      1.245730  1 C  pz                12      0.988821  1 C  py         
     9     -0.751711  1 C  pz                 8     -0.596684  1 C  py         
    17     -0.585506  1 C  pz                16     -0.464756  1 C  py         
    11     -0.250491  1 C  px                 5     -0.198806  1 C  pz         
     4     -0.157806  1 C  py                 7      0.151153  1 C  px         

 Vector   19  Occ=0.000000D+00  E= 1.047284D+00
              MO Center= -2.7D-15,  2.0D-15,  7.8D-16, r^2= 3.8D+00
   Bfn.  Coefficient  Atom+Function         Bfn.  Coefficient  Atom+Function  
  ----- ------------  ---------------      ----- ------------  ---------------
    10      7.902335  1 C  s                  6     -2.724420  1 C  s          
    30     -2.539527  1 C  dxx               33     -2.544687  1 C  dyy        
    35     -2.547924  1 C  dzz               14      1.435436  1 C  s          
    24     -1.033540  1 C  dxx               27     -1.015375  1 C  dyy        
    29     -1.003978  1 C  dzz               18     -0.244378  1 C  dxx        


                     DFT Final Beta Molecular Orbital Analysis
                     -----------------------------------------

 Vector    1  Occ=1.000000D+00  E=-1.018324D+01
              MO Center=  2.7D-16, -1.0D-16, -2.6D-16, r^2= 2.7D-02
   Bfn.  Coefficient  Atom+Function         Bfn.  Coefficient  Atom+Function  
  ----- ------------  ---------------      ----- ------------  ---------------
     1      0.563164  1 C  s                  2      0.464720  1 C  s          

 Vector    2  Occ=1.000000D+00  E=-5.198536D-01
              MO Center= -6.9D-16,  8.4D-15,  1.3D-14, r^2= 9.1D-01
   Bfn.  Coefficient  Atom+Function         Bfn.  Coefficient  Atom+Function  
  ----- ------------  ---------------      ----- ------------  ---------------
    10      0.732378  1 C  s                  6      0.338367  1 C  s          
     2     -0.170636  1 C  s          

 Vector    3  Occ=0.000000D+00  E=-2.418740D-01
              MO Center=  1.5D-15, -1.0D-14, -1.1D-14, r^2= 1.2D+00
   Bfn.  Coefficient  Atom+Function         Bfn.  Coefficient  Atom+Function  
  ----- ------------  ---------------      ----- ------------  ---------------
    13      0.375178  1 C  pz                12      0.297794  1 C  py         
     9      0.267695  1 C  pz                 5      0.222462  1 C  pz         
     8      0.212479  1 C  py                 4      0.176577  1 C  py         

 Vector    4  Occ=0.000000D+00  E=-1.754369D-01
              MO Center=  1.6D-15,  2.3D-15,  2.8D-15, r^2= 1.4D+00
   Bfn.  Coefficient  Atom+Function         Bfn.  Coefficient  Atom+Function  
  ----- ------------  ---------------      ----- ------------  ---------------
    11      0.508564  1 C  px                 7      0.264627  1 C  px         
     3      0.234656  1 C  px                13      0.209284  1 C  pz         

 Vector    5  Occ=0.000000D+00  E=-1.754368D-01
              MO Center=  1.6D-15,  2.9D-15,  7.3D-15, r^2= 1.4D+00
   Bfn.  Coefficient  Atom+Function         Bfn.  Coefficient  Atom+Function  
  ----- ------------  ---------------      ----- ------------  ---------------
    12      0.426045  1 C  py                13     -0.291348  1 C  pz         
    11      0.232855  1 C  px                 8      0.221688  1 C  py         
     4      0.196581  1 C  py                 9     -0.151600  1 C  pz         

 Vector    6  Occ=0.000000D+00  E= 3.979868D-02
              MO Center=  9.3D-15,  5.1D-14,  3.1D-14, r^2= 8.1D+00
   Bfn.  Coefficient  Atom+Function         Bfn.  Coefficient  Atom+Function  
  ----- ------------  ---------------      ----- ------------  ---------------
    14      1.778172  1 C  s                  6     -0.305913  1 C  s          
    35     -0.304524  1 C  dzz               33     -0.300065  1 C  dyy        
    30     -0.292960  1 C  dxx               10     -0.235593  1 C  s          

 Vector    7  Occ=0.000000D+00  E= 7.904443D-02
              MO Center=  9.1D-15, -3.2D-14, -4.1D-14, r^2= 9.3D+00
   Bfn.  Coefficient  Atom+Function         Bfn.  Coefficient  Atom+Function  
  ----- ------------  ---------------      ----- ------------  ---------------
    17      0.914439  1 C  pz                16      0.725827  1 C  py         
    13     -0.303985  1 C  pz                12     -0.241285  1 C  py         
    15     -0.183867  1 C  px         

 Vector    8  Occ=0.000000D+00  E= 9.182620D-02
              MO Center= -7.7D-15,  3.4D-15, -2.4D-15, r^2= 9.3D+00
   Bfn.  Coefficient  Atom+Function         Bfn.  Coefficient  Atom+Function  
  ----- ------------  ---------------      ----- ------------  ---------------
    15      1.088682  1 C  px                11     -0.443316  1 C  px         
    17      0.435041  1 C  pz                16     -0.272305  1 C  py         
    13     -0.177151  1 C  pz         

 Vector    9  Occ=0.000000D+00  E= 9.182622D-02
              MO Center= -1.0D-14, -1.9D-14,  1.2D-14, r^2= 9.3D+00
   Bfn.  Coefficient  Atom+Function         Bfn.  Coefficient  Atom+Function  
  ----- ------------  ---------------      ----- ------------  ---------------
    16      0.910014  1 C  py                17     -0.626231  1 C  pz         
    15      0.477860  1 C  px                12     -0.370562  1 C  py         
    13      0.255004  1 C  pz                11     -0.194587  1 C  px         

 Vector   10  Occ=0.000000D+00  E= 2.873892D-01
              MO Center= -2.4D-15, -4.8D-15, -7.1D-16, r^2= 3.3D+00
   Bfn.  Coefficient  Atom+Function         Bfn.  Coefficient  Atom+Function  
  ----- ------------  ---------------      ----- ------------  ---------------
    34      1.351462  1 C  dyz               30     -0.772307  1 C  dxx        
    14      0.518647  1 C  s                 32     -0.342345  1 C  dxz        
    31     -0.271741  1 C  dxy               33     -0.270380  1 C  dyy        
    10      0.228069  1 C  s          

 Vector   11  Occ=0.000000D+00  E= 2.919562D-01
              MO Center= -2.4D-15,  1.8D-16, -3.8D-16, r^2= 3.1D+00
   Bfn.  Coefficient  Atom+Function         Bfn.  Coefficient  Atom+Function  
  ----- ------------  ---------------      ----- ------------  ---------------
    32      0.837379  1 C  dxz               31     -0.729360  1 C  dxy        
    30      0.642857  1 C  dxx               34      0.618068  1 C  dyz        
    33     -0.481752  1 C  dyy               35     -0.161101  1 C  dzz        

 Vector   12  Occ=0.000000D+00  E= 2.919562D-01
              MO Center=  2.9D-16, -3.3D-15,  3.3D-15, r^2= 3.1D+00
   Bfn.  Coefficient  Atom+Function         Bfn.  Coefficient  Atom+Function  
  ----- ------------  ---------------      ----- ------------  ---------------
    31      1.125067  1 C  dxy               32     -0.676098  1 C  dxz        
    34      0.597790  1 C  dyz               30      0.539287  1 C  dxx        
    35     -0.305193  1 C  dzz               33     -0.234094  1 C  dyy        

 Vector   13  Occ=0.000000D+00  E= 2.941840D-01
              MO Center= -9.6D-17, -1.4D-15,  1.1D-16, r^2= 3.1D+00
   Bfn.  Coefficient  Atom+Function         Bfn.  Coefficient  Atom+Function  
  ----- ------------  ---------------      ----- ------------  ---------------
    33      0.825879  1 C  dyy               35     -0.783708  1 C  dzz        
    34      0.418490  1 C  dyz               32      0.367435  1 C  dxz        

 Vector   14  Occ=0.000000D+00  E= 2.941840D-01
              MO Center= -5.8D-16, -2.2D-15, -3.1D-15, r^2= 3.1D+00
   Bfn.  Coefficient  Atom+Function         Bfn.  Coefficient  Atom+Function  
  ----- ------------  ---------------      ----- ------------  ---------------
    32      1.227933  1 C  dxz               31      1.029119  1 C  dxy        
    35      0.290754  1 C  dzz               30     -0.258645  1 C  dxx        
    34      0.190334  1 C  dyz        

 Vector   15  Occ=0.000000D+00  E= 3.334176D-01
              MO Center= -1.0D-14,  6.2D-15,  2.0D-14, r^2= 6.3D+00
   Bfn.  Coefficient  Atom+Function         Bfn.  Coefficient  Atom+Function  
  ----- ------------  ---------------      ----- ------------  ---------------
    14      1.998959  1 C  s                 10      1.708631  1 C  s          
    35     -1.604321  1 C  dzz               33     -1.520019  1 C  dyy        
    30     -1.385685  1 C  dxx               34     -0.361701  1 C  dyz        
    24     -0.345398  1 C  dxx               27     -0.339114  1 C  dyy        
    29     -0.335171  1 C  dzz                2     -0.234420  1 C  s          

 Vector   16  Occ=0.000000D+00  E= 5.073370D-01
              MO Center=  4.7D-15, -8.3D-15, -1.6D-14, r^2= 3.8D+00
   Bfn.  Coefficient  Atom+Function         Bfn.  Coefficient  Atom+Function  
  ----- ------------  ---------------      ----- ------------  ---------------
    13      1.241781  1 C  pz                12      0.985642  1 C  py         
     9     -0.719993  1 C  pz                17     -0.578947  1 C  pz         
     8     -0.571481  1 C  py                16     -0.459529  1 C  py         
    11     -0.249683  1 C  px                 5     -0.201817  1 C  pz         
     4     -0.160189  1 C  py         


   alpha - beta orbital overlaps 
   ----------------------------- 


   alpha      1      2      3      4      5      6      7      8      9     10
    beta      1      2      4      5      3      6      8      9      7     11
 overlap   1.000  0.998  0.981  0.981  1.000  0.999  0.923  0.923  1.000  0.938


   alpha     11     12     13     14     15     16     17     18     19     20
    beta     12     13     14     10     15     17     18     16     19     20
 overlap   0.938  0.781  0.781  0.997  0.995  0.978  0.978  1.000  0.997  0.997


   alpha     21     22     23     24     25     26     27     28     29     30
    beta     21     22     23     24     25     26     27     28     29     30
 overlap   0.948  0.948  0.763  0.763  0.999  0.987  0.987  1.000  0.735  0.735


   alpha     31     32     33     34     35     36     37     38     39     40
    beta     31     32     33     34     35     36     37     38     39     40
 overlap   0.968  0.968  0.995  0.995  1.000  1.000  0.981  0.981  0.999  0.999


   alpha     41     42     43     44     45
    beta     41     42     43     44     45
 overlap   1.000  0.997  0.997  1.000  1.000

     --------------------------
     Expectation value of S2:  
     --------------------------
      <S2> =      2.0037 (Exact =     2.0000)


 Parallel integral file used      16 records with       0 large values


 Task  times  cpu:        0.6s     wall:        1.1s


                                NWChem Input Module
                                -------------------


 Summary of allocated global arrays
-----------------------------------
  No active global arrays



                         GA Statistics for process    0
                         ------------------------------

       create   destroy   get      put      acc     scatter   gather  read&inc
calls:  273      273      831      524      206        0        0       27     
number of processes/call 1.81e+00 1.66e+00 3.64e+00 0.00e+00 0.00e+00
bytes total:             8.82e+06 3.52e+06 3.34e+06 0.00e+00 0.00e+00 2.16e+02
bytes remote:            7.58e+05 3.01e+05 6.77e+05 0.00e+00 0.00e+00 0.00e+00
Max memory consumed for GA by this process: 1020600 bytes

MA_summarize_allocated_blocks: starting scan ...
MA_summarize_allocated_blocks: scan completed: 0 heap blocks, 0 stack blocks
MA usage statistics:

	allocation statistics:
					      heap	     stack
					      ----	     -----
	current number of blocks	         0	         0
	maximum number of blocks	        23	        51
	current total bytes		         0	         0
	maximum total bytes		   1787416	  22512552
	maximum total K-bytes		      1788	     22513
	maximum total M-bytes		         2	        23


                                     CITATION
                                     --------
                Please cite the following reference when publishing
                           results obtained with NWChem:

                 M. Valiev, E.J. Bylaska, N. Govind, K. Kowalski,
              T.P. Straatsma, H.J.J. van Dam, D. Wang, J. Nieplocha,
                        E. Apra, T.L. Windus, W.A. de Jong
                 "NWChem: a comprehensive and scalable open-source
                  solution for large scale molecular simulations"
                      Comput. Phys. Commun. 181, 1477 (2010)
                           doi:10.1016/j.cpc.2010.04.018

                                      AUTHORS
                                      -------
          E. Apra, E. J. Bylaska, W. A. de Jong, N. Govind, K. Kowalski,
       T. P. Straatsma, M. Valiev, H. J. J. van Dam, D. Wang, T. L. Windus,
        J. Hammond, J. Autschbach, K. Bhaskaran-Nair, J. Brabec, K. Lopata,
       S. A. Fischer, S. Krishnamoorthy, W. Ma, M. Klemm, O. Villa, Y. Chen,
    V. Anisimov, F. Aquino, S. Hirata, M. T. Hackler, T. Risthaus, M. Malagoli,
       A. Marenich, A. Otero-de-la-Roza, J. Mullin, P. Nichols, R. Peverati,
     J. Pittner, Y. Zhao, P.-D. Fan, A. Fonari, M. Williamson, R. J. Harrison,
       J. R. Rehr, M. Dupuis, D. Silverstein, D. M. A. Smith, J. Nieplocha,
        V. Tipparaju, M. Krishnan, B. E. Van Kuiken, A. Vazquez-Mayagoitia,
        L. Jensen, M. Swart, Q. Wu, T. Van Voorhis, A. A. Auer, M. Nooijen,
      L. D. Crosby, E. Brown, G. Cisneros, G. I. Fann, H. Fruchtl, J. Garza,
        K. Hirao, R. A. Kendall, J. A. Nichols, K. Tsemekhman, K. Wolinski,
     J. Anchell, D. E. Bernholdt, P. Borowski, T. Clark, D. Clerc, H. Dachsel,
   M. J. O. Deegan, K. Dyall, D. Elwood, E. Glendening, M. Gutowski, A. C. Hess,
         J. Jaffe, B. G. Johnson, J. Ju, R. Kobayashi, R. Kutteh, Z. Lin,
   R. Littlefield, X. Long, B. Meng, T. Nakajima, S. Niu, L. Pollack, M. Rosing,
   K. Glaesemann, G. Sandrone, M. Stave, H. Taylor, G. Thomas, J. H. van Lenthe,
                               A. T. Wong, Z. Zhang.

 Total times  cpu:        0.6s     wall:        1.3s
