[1537795741.523653] [r8n4:5466 :0]         sys.c:744  MXM  WARN  Conflicting CPU frequencies detected, using: 2300.00
[1537795741.534813] [r8n4:5467 :0]         sys.c:744  MXM  WARN  Conflicting CPU frequencies detected, using: 2300.00
[1537795741.534849] [r8n4:5469 :0]         sys.c:744  MXM  WARN  Conflicting CPU frequencies detected, using: 2300.00
[1537795741.535179] [r8n4:5468 :0]         sys.c:744  MXM  WARN  Conflicting CPU frequencies detected, using: 2300.00
[1537795741.535274] [r8n4:5471 :0]         sys.c:744  MXM  WARN  Conflicting CPU frequencies detected, using: 2300.00
[1537795741.535339] [r8n4:5472 :0]         sys.c:744  MXM  WARN  Conflicting CPU frequencies detected, using: 2300.00
[1537795741.535366] [r8n4:5470 :0]         sys.c:744  MXM  WARN  Conflicting CPU frequencies detected, using: 2300.00
[1537795741.555124] [r8n4:5473 :0]         sys.c:744  MXM  WARN  Conflicting CPU frequencies detected, using: 2300.00
[1537795741.555290] [r8n4:5478 :0]         sys.c:744  MXM  WARN  Conflicting CPU frequencies detected, using: 2300.00
[1537795741.556272] [r8n4:5475 :0]         sys.c:744  MXM  WARN  Conflicting CPU frequencies detected, using: 2300.00
[1537795741.576243] [r8n4:5488 :0]         sys.c:744  MXM  WARN  Conflicting CPU frequencies detected, using: 2300.00
[1537795741.576414] [r8n4:5486 :0]         sys.c:744  MXM  WARN  Conflicting CPU frequencies detected, using: 2300.00
[1537795741.578088] [r8n4:5480 :0]         sys.c:744  MXM  WARN  Conflicting CPU frequencies detected, using: 2300.00
[1537795741.577727] [r8n4:5482 :0]         sys.c:744  MXM  WARN  Conflicting CPU frequencies detected, using: 2300.00
[1537795741.577653] [r8n4:5490 :0]         sys.c:744  MXM  WARN  Conflicting CPU frequencies detected, using: 2300.00
[1537795741.577597] [r8n4:5484 :0]         sys.c:744  MXM  WARN  Conflicting CPU frequencies detected, using: 2300.00
 argument  1 = /storage/home/bikashp/nwchem_run/rabeet/ip13g2/nwip13g2/Cl+.nw
                                         
                                         


              Northwest Computational Chemistry Package (NWChem) 6.6
              ------------------------------------------------------


                    Environmental Molecular Sciences Laboratory
                       Pacific Northwest National Laboratory
                                Richland, WA 99352

                              Copyright (c) 1994-2015
                       Pacific Northwest National Laboratory
                            Battelle Memorial Institute

             NWChem is an open-source computational chemistry package
                        distributed under the terms of the
                      Educational Community License (ECL) 2.0
             A copy of the license is included with this distribution
                              in the LICENSE.TXT file

                                  ACKNOWLEDGMENT
                                  --------------

            This software and its documentation were developed at the
            EMSL at Pacific Northwest National Laboratory, a multiprogram
            national laboratory, operated for the U.S. Department of Energy
            by Battelle under Contract Number DE-AC05-76RL01830. Support
            for this work was provided by the Department of Energy Office
            of Biological and Environmental Research, Office of Basic
            Energy Sciences, and the Office of Advanced Scientific Computing.


           Job information
           ---------------

    hostname        = r8n4.niserhpc.org
    program         = /home/bikashp/Code/nwchem-6.6_tpssloc/bin/LINUX64/nwchem
    date            = Mon Sep 24 18:59:04 2018

    compiled        = Tue_Sep_18_16:24:59_2018
    source          = /home/bikashp/Code/nwchem-6.6_tpssloc
    nwchem branch   = 6.6
    nwchem revision = 27746
    ga revision     = 10594
    input           = /storage/home/bikashp/nwchem_run/rabeet/ip13g2/nwip13g2/Cl+.nw
    prefix          = Cl+.
    data base       = ./Cl+.db
    status          = startup
    nproc           =       16
    time left       =     -1s



           Memory information
           ------------------

    heap     =   13107196 doubles =    100.0 Mbytes
    stack    =   13107201 doubles =    100.0 Mbytes
    global   =   26214400 doubles =    200.0 Mbytes (distinct from heap & stack)
    total    =   52428797 doubles =    400.0 Mbytes
    verify   = yes
    hardfail = no 


           Directory information
           ---------------------

  0 permanent = .
  0 scratch   = .




                                NWChem Input Module
                                -------------------



 Scaling coordinates for geometry "geometry" by  1.889725989
 (inverse scale =  0.529177249)



                             Geometry "geometry" -> ""
                             -------------------------

 Output coordinates in angstroms (scale by  1.889725989 to convert to a.u.)

  No.       Tag          Charge          X              Y              Z
 ---- ---------------- ---------- -------------- -------------- --------------
    1 Cl                  17.0000     0.00000000     0.00000000     0.00000000

      Atomic Mass 
      ----------- 

      Cl                34.968850


 Effective nuclear repulsion energy (a.u.)       0.0000000000

            Nuclear Dipole moment (a.u.) 
            ----------------------------
        X                 Y               Z
 ---------------- ---------------- ----------------
     0.0000000000     0.0000000000     0.0000000000


            XYZ format geometry
            -------------------
     1
 geometry
 Cl                    0.00000000     0.00000000     0.00000000



 Summary of "ao basis" -> "" (cartesian)
 ------------------------------------------------------------------------------
       Tag                 Description            Shells   Functions and Types
 ---------------- ------------------------------  ------  ---------------------
 *                     6-311++G(3df,3pd)              on all atoms 



                                 NWChem DFT Module
                                 -----------------


                      Basis "ao basis" -> "ao basis" (cartesian)
                      -----
  Cl (Chlorine)
  -------------
            Exponent  Coefficients 
       -------------- ---------------------------------------------------------
  1 S  1.05819000E+05  0.000738
  1 S  1.58720000E+04  0.005718
  1 S  3.61965000E+03  0.029495
  1 S  1.03080000E+03  0.117286
  1 S  3.39908000E+02  0.362949
  1 S  1.24538000E+02  0.584149

  2 S  1.24538000E+02  0.134177
  2 S  4.95135000E+01  0.624250
  2 S  2.08056000E+01  0.291756

  3 S  6.58346000E+00  1.000000

  4 S  2.56468000E+00  1.000000

  5 S  5.59763000E-01  1.000000

  6 S  1.83273000E-01  1.000000

  7 P  5.89776000E+02  0.002391
  7 P  1.39849000E+02  0.018504
  7 P  4.51413000E+01  0.081377
  7 P  1.68733000E+01  0.221552
  7 P  6.74110000E+00  0.772569

  8 P  6.74110000E+00 -1.572244
  8 P  2.77152000E+00  0.992389

  9 P  1.02387000E+00  1.000000

 10 P  3.81368000E-01  1.000000

 11 P  1.09437000E-01  1.000000

 12 S  4.83000000E-02  1.000000

 13 P  4.83000000E-02  1.000000

 14 D  3.00000000E+00  1.000000

 15 D  7.50000000E-01  1.000000

 16 D  1.87500000E-01  1.000000

 17 F  7.00000000E-01  1.000000



 Summary of "ao basis" -> "ao basis" (cartesian)
 ------------------------------------------------------------------------------
       Tag                 Description            Shells   Functions and Types
 ---------------- ------------------------------  ------  ---------------------
 Cl                    6-311++G(3df,3pd)            17       53   7s6p3d1f




 Summary of "ao basis" -> "ao basis" (cartesian)
 ------------------------------------------------------------------------------
       Tag                 Description            Shells   Functions and Types
 ---------------- ------------------------------  ------  ---------------------
 Cl                    6-311++G(3df,3pd)            17       53   7s6p3d1f


  Caching 1-el integrals 

            General Information
            -------------------
          SCF calculation type: DFT
          Wavefunction type:  spin polarized.
          No. of atoms     :     1
          No. of electrons :    16
           Alpha electrons :     9
            Beta electrons :     7
          Charge           :     1
          Spin multiplicity:     3
          Use of symmetry is: off; symmetry adaption is: off
          Maximum number of iterations: ***
          AO basis - number of functions:    53
                     number of shells:    17
          Convergence on energy requested: 1.00D-06
          Convergence on density requested: 1.00D-05
          Convergence on gradient requested: 5.00D-04

              XC Information
              --------------
                  TPSS metaGGA Exchange Functional  1.000          
             TPSS03 metaGGA Correlation Functional  1.000          

             Grid Information
             ----------------
          Grid used for XC integration:  medium    
          Radial quadrature: Mura-Knowles        
          Angular quadrature: Lebedev. 
          Tag              B.-S. Rad. Rad. Pts. Rad. Cut. Ang. Pts.
          ---              ---------- --------- --------- ---------
          Cl                  1.00       88           7.0       590
          Grid pruning is: on 
          Number of quadrature shells:    88
          Spatial weights used:  Erf1

          Convergence Information
          -----------------------
          Convergence aids based upon iterative change in 
          total energy or number of iterations. 
          Levelshifting, if invoked, occurs when the 
          HOMO/LUMO gap drops below (HL_TOL): 1.00D-02
          DIIS, if invoked, will attempt to extrapolate 
          using up to (NFOCK): 10 stored Fock matrices.

                    Damping( 0%)  Levelshifting(0.5)       DIIS
                  --------------- ------------------- ---------------
          dE  on:    start            ASAP                start   
          dE off:    2 iters        *** iters           *** iters 


      Screening Tolerance Information
      -------------------------------
          Density screening/tol_rho: 1.00D-10
          AO Gaussian exp screening on grid/accAOfunc:  14
          CD Gaussian exp screening on grid/accCDfunc:  20
          XC Gaussian exp screening on grid/accXCfunc:  20
          Schwarz screening/accCoul: 1.00D-08


      Superposition of Atomic Density Guess
      -------------------------------------

 Sum of atomic energies:        -459.47804774

 Renormalizing density from      17.00 to     16

      Non-variational initial energy
      ------------------------------

 Total energy =    -441.977465
 1-e energy   =    -597.513706
 2-e energy   =     155.536240
 HOMO         =      -1.025747
 LUMO         =      -1.025747

   Time after variat. SCF:      0.2
   Time prior to 1st pass:      0.2

 #quartets = 1.178D+04 #integrals = 1.651D+05 #direct =  0.0% #cached =100.0%


 Integral file          = ./Cl+.aoints.00
 Record size in doubles =    65536    No. of integs per rec  =    43688
 Max. records in memory =        4    Max. records in file   = 11667359
 No. of bits per label  =        8    No. of bits per value  =       64


File balance: exchanges=     0  moved=     0  time=   0.0


 Grid_pts file          = ./Cl+.gridpts.00
 Record size in doubles =  12289        No. of grid_pts per rec  =   3070
 Max. records in memory =      3        Max. recs in file   =  62220858


           Memory utilization after 1st SCF pass: 
           Heap Space remaining (MW):       12.81            12805260
          Stack Space remaining (MW):       13.11            13106660

   convergence    iter        energy       DeltaE   RMS-Dens  Diis-err    time
 ---------------- ----- ----------------- --------- --------- ---------  ------
 d= 0,ls=0.0,diis     1   -459.6176223067 -4.60D+02  1.87D-02  1.55D+00     0.7
                                                     1.98D-02  1.60D+00
 d= 0,ls=0.5,diis     2   -459.6848039393 -6.72D-02  7.90D-03  2.82D-01     0.8
                                                     7.40D-03  2.52D-01
 d= 0,ls=0.5,diis     3   -459.7340189734 -4.92D-02  1.59D-03  1.93D-03     0.9
                                                     1.26D-03  1.12D-03
 d= 0,ls=0.5,diis     4   -459.7358536046 -1.83D-03  2.20D-04  8.12D-05     1.0
                                                     2.19D-04  5.42D-05
 d= 0,ls=0.5,diis     5   -459.7359776510 -1.24D-04  8.02D-05  9.08D-06     1.1
                                                     7.88D-05  5.97D-06
  Resetting Diis
 d= 0,ls=0.5,diis     6   -459.7359651981  1.25D-05  3.38D-05  1.30D-06     1.1
                                                     3.00D-05  8.06D-07
 d= 0,ls=0.5,diis     7   -459.7359711276 -5.93D-06  1.28D-05  2.17D-07     1.2
                                                     1.12D-05  1.45D-07
 d= 0,ls=0.5,diis     8   -459.7359830692 -1.19D-05  4.62D-06  4.34D-08     1.3
                                                     4.65D-06  3.54D-08
 d= 0,ls=0.5,diis     9   -459.7359788837  4.19D-06  1.71D-06  4.69D-09     1.4
                                                     1.59D-06  4.32D-09
 d= 0,ls=0.5,diis    10   -459.7359779169  9.67D-07  7.06D-07  1.02D-09     1.5
                                                     6.70D-07  9.20D-10


         Total DFT energy =     -459.735977989371
      One electron energy =     -626.654688054073
           Coulomb energy =      194.781163922224
          Exchange energy =      -27.210208555407
       Correlation energy =       -0.652245302115
 Nuclear repulsion energy =        0.000000000000

 Numeric. integr. density =       16.000000000610

     Total iterative time =      1.3s



                    DFT Final Alpha Molecular Orbital Analysis
                    ------------------------------------------

 Vector    1  Occ=1.000000D+00  E=-1.016202D+02
              MO Center=  4.0D-17,  4.6D-18,  1.8D-17, r^2= 3.1D-03
   Bfn.  Coefficient  Atom+Function         Bfn.  Coefficient  Atom+Function  
  ----- ------------  ---------------      ----- ------------  ---------------
     2      0.653541  1 Cl s                  1      0.411992  1 Cl s          

 Vector    2  Occ=1.000000D+00  E=-9.855527D+00
              MO Center=  3.0D-16,  3.1D-16,  5.4D-16, r^2= 6.6D-02
   Bfn.  Coefficient  Atom+Function         Bfn.  Coefficient  Atom+Function  
  ----- ------------  ---------------      ----- ------------  ---------------
     4      0.616842  1 Cl s                  3      0.480917  1 Cl s          
     2     -0.325637  1 Cl s          

 Vector    3  Occ=1.000000D+00  E=-7.644533D+00
              MO Center= -5.9D-16, -6.0D-16, -2.0D-16, r^2= 5.8D-02
   Bfn.  Coefficient  Atom+Function         Bfn.  Coefficient  Atom+Function  
  ----- ------------  ---------------      ----- ------------  ---------------
     8      0.950101  1 Cl py                 7      0.729577  1 Cl px         
     9      0.297096  1 Cl pz                11      0.258045  1 Cl py         
    10      0.198151  1 Cl px         

 Vector    4  Occ=1.000000D+00  E=-7.644533D+00
              MO Center= -1.5D-16,  3.8D-16, -9.8D-17, r^2= 5.8D-02
   Bfn.  Coefficient  Atom+Function         Bfn.  Coefficient  Atom+Function  
  ----- ------------  ---------------      ----- ------------  ---------------
     9     -0.743547  1 Cl pz                 8      0.735611  1 Cl py         
     7     -0.655175  1 Cl px                12     -0.201945  1 Cl pz         
    11      0.199790  1 Cl py                10     -0.177944  1 Cl px         

 Vector    5  Occ=1.000000D+00  E=-7.620097D+00
              MO Center=  1.6D-16,  5.8D-17, -5.1D-18, r^2= 5.8D-02
   Bfn.  Coefficient  Atom+Function         Bfn.  Coefficient  Atom+Function  
  ----- ------------  ---------------      ----- ------------  ---------------
     9      0.939749  1 Cl pz                 7     -0.749901  1 Cl px         
     8      0.281985  1 Cl py                12      0.255295  1 Cl pz         
    10     -0.203720  1 Cl px         

 Vector    6  Occ=1.000000D+00  E=-1.279942D+00
              MO Center=  2.1D-15,  2.1D-15,  3.3D-15, r^2= 7.3D-01
   Bfn.  Coefficient  Atom+Function         Bfn.  Coefficient  Atom+Function  
  ----- ------------  ---------------      ----- ------------  ---------------
     6      0.731075  1 Cl s                  5      0.584659  1 Cl s          
     4     -0.465829  1 Cl s                  3     -0.212207  1 Cl s          

 Vector    7  Occ=1.000000D+00  E=-8.347910D-01
              MO Center= -1.8D-15, -2.9D-15,  3.5D-16, r^2= 9.3D-01
   Bfn.  Coefficient  Atom+Function         Bfn.  Coefficient  Atom+Function  
  ----- ------------  ---------------      ----- ------------  ---------------
    17      0.695349  1 Cl py                16      0.477208  1 Cl px         
     8     -0.314750  1 Cl py                 7     -0.216009  1 Cl px         
    14      0.198097  1 Cl py                18      0.172153  1 Cl pz         

 Vector    8  Occ=1.000000D+00  E=-8.347910D-01
              MO Center= -3.6D-15,  1.5D-15, -4.1D-16, r^2= 9.3D-01
   Bfn.  Coefficient  Atom+Function         Bfn.  Coefficient  Atom+Function  
  ----- ------------  ---------------      ----- ------------  ---------------
    18      0.531221  1 Cl pz                16      0.489842  1 Cl px         
    17     -0.467690  1 Cl py                 9     -0.240458  1 Cl pz         
     7     -0.221727  1 Cl px                 8      0.211700  1 Cl py         
    15      0.151339  1 Cl pz         

 Vector    9  Occ=1.000000D+00  E=-7.658670D-01
              MO Center= -1.7D-15,  1.6D-16, -9.8D-16, r^2= 9.8D-01
   Bfn.  Coefficient  Atom+Function         Bfn.  Coefficient  Atom+Function  
  ----- ------------  ---------------      ----- ------------  ---------------
    18      0.721031  1 Cl pz                16     -0.575368  1 Cl px         
     9     -0.292630  1 Cl pz                 7      0.233513  1 Cl px         
    17      0.216356  1 Cl py                15      0.165267  1 Cl pz         

 Vector   10  Occ=0.000000D+00  E=-2.178500D-01
              MO Center=  6.2D-16,  1.6D-14, -1.2D-16, r^2= 5.5D+00
   Bfn.  Coefficient  Atom+Function         Bfn.  Coefficient  Atom+Function  
  ----- ------------  ---------------      ----- ------------  ---------------
    22      1.199781  1 Cl s                  5     -0.405044  1 Cl s          
     6     -0.371763  1 Cl s                  4      0.192466  1 Cl s          

 Vector   11  Occ=0.000000D+00  E=-2.075514D-01
              MO Center= -6.9D-15, -2.4D-15, -5.6D-15, r^2= 1.8D+00
   Bfn.  Coefficient  Atom+Function         Bfn.  Coefficient  Atom+Function  
  ----- ------------  ---------------      ----- ------------  ---------------
    40      0.617288  1 Cl dxz               41     -0.583828  1 Cl dyy        
    38      0.395927  1 Cl dxx               42      0.389186  1 Cl dyz        
    34      0.325708  1 Cl dxz               35     -0.308053  1 Cl dyy        
    32      0.208908  1 Cl dxx               36      0.205352  1 Cl dyz        
    43      0.187901  1 Cl dzz        

 Vector   12  Occ=0.000000D+00  E=-2.075514D-01
              MO Center=  4.5D-15, -3.4D-16,  4.7D-15, r^2= 1.8D+00
   Bfn.  Coefficient  Atom+Function         Bfn.  Coefficient  Atom+Function  
  ----- ------------  ---------------      ----- ------------  ---------------
    39      0.977440  1 Cl dxy               42      0.697955  1 Cl dyz        
    33      0.515740  1 Cl dxy               36      0.368271  1 Cl dyz        
    40     -0.210353  1 Cl dxz               43     -0.188644  1 Cl dzz        

 Vector   13  Occ=0.000000D+00  E=-1.776853D-01
              MO Center=  3.8D-15, -6.6D-17, -3.6D-15, r^2= 1.9D+00
   Bfn.  Coefficient  Atom+Function         Bfn.  Coefficient  Atom+Function  
  ----- ------------  ---------------      ----- ------------  ---------------
    42      0.790337  1 Cl dyz               38     -0.519995  1 Cl dxx        
    40      0.403603  1 Cl dxz               36      0.362225  1 Cl dyz        
    39     -0.360712  1 Cl dxy               43      0.310830  1 Cl dzz        
    32     -0.238323  1 Cl dxx               41      0.209165  1 Cl dyy        
    34      0.184979  1 Cl dxz               33     -0.165321  1 Cl dxy        

 Vector   14  Occ=0.000000D+00  E=-1.776853D-01
              MO Center=  1.3D-15, -8.7D-16, -2.1D-15, r^2= 1.9D+00
   Bfn.  Coefficient  Atom+Function         Bfn.  Coefficient  Atom+Function  
  ----- ------------  ---------------      ----- ------------  ---------------
    39      0.684205  1 Cl dxy               43      0.572096  1 Cl dzz        
    42     -0.512976  1 Cl dyz               38     -0.366658  1 Cl dxx        
    33      0.313583  1 Cl dxy               37      0.262202  1 Cl dzz        
    36     -0.235106  1 Cl dyz               41     -0.205436  1 Cl dyy        
    32     -0.168046  1 Cl dxx        

 Vector   15  Occ=0.000000D+00  E=-1.655906D-01
              MO Center=  1.7D-15, -5.2D-15, -8.6D-15, r^2= 1.9D+00
   Bfn.  Coefficient  Atom+Function         Bfn.  Coefficient  Atom+Function  
  ----- ------------  ---------------      ----- ------------  ---------------
    40      1.065311  1 Cl dxz               34      0.465185  1 Cl dxz        
    42     -0.400589  1 Cl dyz               39      0.319662  1 Cl dxy        
    41      0.320201  1 Cl dyy               43     -0.287202  1 Cl dzz        
    36     -0.174924  1 Cl dyz               35      0.168045  1 Cl dyy        

 Vector   16  Occ=0.000000D+00  E=-1.330853D-01
              MO Center=  9.0D-15,  2.3D-15,  9.2D-15, r^2= 7.7D+00
   Bfn.  Coefficient  Atom+Function         Bfn.  Coefficient  Atom+Function  
  ----- ------------  ---------------      ----- ------------  ---------------
    25      0.666140  1 Cl pz                23      0.620476  1 Cl px         
    24     -0.575924  1 Cl py         

 Vector   17  Occ=0.000000D+00  E=-1.330819D-01
              MO Center= -8.0D-15, -1.1D-14,  3.0D-15, r^2= 7.7D+00
   Bfn.  Coefficient  Atom+Function         Bfn.  Coefficient  Atom+Function  
  ----- ------------  ---------------      ----- ------------  ---------------
    24      0.876677  1 Cl py                23      0.590344  1 Cl px         
    25      0.208074  1 Cl pz                17     -0.177530  1 Cl py         

 Vector   18  Occ=0.000000D+00  E=-1.244253D-01
              MO Center=  1.8D-15,  6.6D-16,  1.6D-15, r^2= 7.9D+00
   Bfn.  Coefficient  Atom+Function         Bfn.  Coefficient  Atom+Function  
  ----- ------------  ---------------      ----- ------------  ---------------
    25      0.858128  1 Cl pz                23     -0.683557  1 Cl px         
    24      0.256636  1 Cl py         

 Vector   19  Occ=0.000000D+00  E= 1.054106D-01
              MO Center= -2.2D-15,  6.5D-14, -1.5D-14, r^2= 6.9D+00
   Bfn.  Coefficient  Atom+Function         Bfn.  Coefficient  Atom+Function  
  ----- ------------  ---------------      ----- ------------  ---------------
    22      2.090686  1 Cl s                 41     -1.310191  1 Cl dyy        
    38     -1.298079  1 Cl dxx               43     -1.290033  1 Cl dzz        
     6      1.063656  1 Cl s                  4     -0.305332  1 Cl s          
    37     -0.274452  1 Cl dzz               32     -0.271552  1 Cl dxx        
    35     -0.267185  1 Cl dyy                5      0.248832  1 Cl s          

 Vector   20  Occ=0.000000D+00  E= 1.309869D-01
              MO Center=  2.7D-14, -1.7D-14,  2.8D-14, r^2= 7.8D+00
   Bfn.  Coefficient  Atom+Function         Bfn.  Coefficient  Atom+Function  
  ----- ------------  ---------------      ----- ------------  ---------------
    21      1.563281  1 Cl pz                19      1.470709  1 Cl px         
    20     -1.313054  1 Cl py                18     -1.133929  1 Cl pz         
    16     -1.066944  1 Cl px                25     -1.048435  1 Cl pz         
    23     -0.986227  1 Cl px                17      0.952533  1 Cl py         
    24      0.880537  1 Cl py                53      0.284923  1 Cl fzzz       

 Vector   21  Occ=0.000000D+00  E= 1.309916D-01
              MO Center= -2.5D-14, -3.9D-14, -8.5D-15, r^2= 7.8D+00
   Bfn.  Coefficient  Atom+Function         Bfn.  Coefficient  Atom+Function  
  ----- ------------  ---------------      ----- ------------  ---------------
    20      2.068520  1 Cl py                17     -1.500514  1 Cl py         
    24     -1.387200  1 Cl py                19      1.356121  1 Cl px         
    16     -0.983733  1 Cl px                23     -0.909450  1 Cl px         
    21      0.461607  1 Cl pz                52      0.378472  1 Cl fyzz       
    45      0.369706  1 Cl fxxy              50      0.367190  1 Cl fyyy       

 Vector   22  Occ=0.000000D+00  E= 1.416306D-01
              MO Center=  1.2D-15,  1.6D-15,  1.7D-16, r^2= 7.6D+00
   Bfn.  Coefficient  Atom+Function         Bfn.  Coefficient  Atom+Function  
  ----- ------------  ---------------      ----- ------------  ---------------
    21      1.916505  1 Cl pz                19     -1.525880  1 Cl px         
    18     -1.426998  1 Cl pz                25     -1.262240  1 Cl pz         
    16      1.136271  1 Cl px                23      1.004876  1 Cl px         
    20      0.572683  1 Cl py                17     -0.426497  1 Cl py         
    24     -0.377114  1 Cl py                46      0.359263  1 Cl fxxz       

 Vector   23  Occ=0.000000D+00  E= 5.550959D-01
              MO Center= -2.9D-15, -2.3D-15, -2.2D-15, r^2= 1.7D+00
   Bfn.  Coefficient  Atom+Function         Bfn.  Coefficient  Atom+Function  
  ----- ------------  ---------------      ----- ------------  ---------------
    34      0.760641  1 Cl dxz               35     -0.720598  1 Cl dyy        
    40     -0.699798  1 Cl dxz               41      0.662958  1 Cl dyy        
    36      0.495403  1 Cl dyz               32      0.491436  1 Cl dxx        
    42     -0.455776  1 Cl dyz               38     -0.452127  1 Cl dxx        
    37      0.229162  1 Cl dzz               43     -0.210831  1 Cl dzz        


                     DFT Final Beta Molecular Orbital Analysis
                     -----------------------------------------

 Vector    1  Occ=1.000000D+00  E=-1.016065D+02
              MO Center=  1.5D-17, -1.0D-17,  1.5D-17, r^2= 3.1D-03
   Bfn.  Coefficient  Atom+Function         Bfn.  Coefficient  Atom+Function  
  ----- ------------  ---------------      ----- ------------  ---------------
     2      0.653570  1 Cl s                  1      0.412026  1 Cl s          

 Vector    2  Occ=1.000000D+00  E=-9.844093D+00
              MO Center=  8.8D-16,  7.8D-16, -1.5D-15, r^2= 6.6D-02
   Bfn.  Coefficient  Atom+Function         Bfn.  Coefficient  Atom+Function  
  ----- ------------  ---------------      ----- ------------  ---------------
     4      0.623224  1 Cl s                  3      0.478110  1 Cl s          
     2     -0.325367  1 Cl s          

 Vector    3  Occ=1.000000D+00  E=-7.622611D+00
              MO Center=  3.5D-16, -9.0D-16,  1.0D-16, r^2= 5.8D-02
   Bfn.  Coefficient  Atom+Function         Bfn.  Coefficient  Atom+Function  
  ----- ------------  ---------------      ----- ------------  ---------------
     8      1.193350  1 Cl py                11      0.324227  1 Cl py         
     9     -0.313422  1 Cl pz         

 Vector    4  Occ=1.000000D+00  E=-7.622611D+00
              MO Center= -1.1D-16,  1.2D-16, -2.1D-17, r^2= 5.8D-02
   Bfn.  Coefficient  Atom+Function         Bfn.  Coefficient  Atom+Function  
  ----- ------------  ---------------      ----- ------------  ---------------
     7      0.979693  1 Cl px                 9      0.737445  1 Cl pz         
    10      0.266178  1 Cl px                12      0.200360  1 Cl pz         

 Vector    5  Occ=1.000000D+00  E=-7.613015D+00
              MO Center= -6.8D-16,  5.2D-16,  6.0D-16, r^2= 5.8D-02
   Bfn.  Coefficient  Atom+Function         Bfn.  Coefficient  Atom+Function  
  ----- ------------  ---------------      ----- ------------  ---------------
     9      0.940313  1 Cl pz                 7     -0.750351  1 Cl px         
     8      0.282154  1 Cl py                12      0.255589  1 Cl pz         
    10     -0.203955  1 Cl px         

 Vector    6  Occ=1.000000D+00  E=-1.191657D+00
              MO Center= -7.5D-16,  1.9D-17,  7.7D-16, r^2= 7.6D-01
   Bfn.  Coefficient  Atom+Function         Bfn.  Coefficient  Atom+Function  
  ----- ------------  ---------------      ----- ------------  ---------------
     6      0.771384  1 Cl s                  5      0.467093  1 Cl s          
     4     -0.464389  1 Cl s                  3     -0.191888  1 Cl s          

 Vector    7  Occ=1.000000D+00  E=-7.493318D-01
              MO Center=  2.2D-15, -2.2D-15, -3.3D-15, r^2= 1.0D+00
   Bfn.  Coefficient  Atom+Function         Bfn.  Coefficient  Atom+Function  
  ----- ------------  ---------------      ----- ------------  ---------------
    18      0.742670  1 Cl pz                16     -0.592637  1 Cl px         
     9     -0.284799  1 Cl pz                 7      0.227264  1 Cl px         
    17      0.222849  1 Cl py                21      0.152545  1 Cl pz         

 Vector    8  Occ=0.000000D+00  E=-7.308234D-01
              MO Center= -2.5D-15,  3.6D-15, -8.7D-16, r^2= 1.0D+00
   Bfn.  Coefficient  Atom+Function         Bfn.  Coefficient  Atom+Function  
  ----- ------------  ---------------      ----- ------------  ---------------
    17      0.574510  1 Cl py                18     -0.556739  1 Cl pz         
    16     -0.481654  1 Cl px                 8     -0.222893  1 Cl py         
     9      0.215998  1 Cl pz                 7      0.186867  1 Cl px         

 Vector    9  Occ=0.000000D+00  E=-7.308234D-01
              MO Center= -1.2D-15,  6.5D-16, -1.2D-15, r^2= 1.0D+00
   Bfn.  Coefficient  Atom+Function         Bfn.  Coefficient  Atom+Function  
  ----- ------------  ---------------      ----- ------------  ---------------
    17      0.704614  1 Cl py                16      0.564324  1 Cl px         
     8     -0.273369  1 Cl py                18      0.238889  1 Cl pz         
     7     -0.218941  1 Cl px                20      0.155773  1 Cl py         

 Vector   10  Occ=0.000000D+00  E=-1.958643D-01
              MO Center=  1.7D-14,  2.8D-15,  8.7D-15, r^2= 5.7D+00
   Bfn.  Coefficient  Atom+Function         Bfn.  Coefficient  Atom+Function  
  ----- ------------  ---------------      ----- ------------  ---------------
    22      1.266255  1 Cl s                  6     -0.368266  1 Cl s          
     5     -0.363814  1 Cl s                  4      0.188850  1 Cl s          

 Vector   11  Occ=0.000000D+00  E=-1.479786D-01
              MO Center=  8.3D-15, -7.0D-15,  6.1D-15, r^2= 1.9D+00
   Bfn.  Coefficient  Atom+Function         Bfn.  Coefficient  Atom+Function  
  ----- ------------  ---------------      ----- ------------  ---------------
    43      0.644730  1 Cl dzz               39      0.622406  1 Cl dxy        
    38     -0.478315  1 Cl dxx               42     -0.361122  1 Cl dyz        
    37      0.257250  1 Cl dzz               33      0.248343  1 Cl dxy        
    32     -0.190850  1 Cl dxx               41     -0.166411  1 Cl dyy        

 Vector   12  Occ=0.000000D+00  E=-1.479786D-01
              MO Center= -4.3D-15, -8.5D-15, -4.3D-15, r^2= 1.9D+00
   Bfn.  Coefficient  Atom+Function         Bfn.  Coefficient  Atom+Function  
  ----- ------------  ---------------      ----- ------------  ---------------
    42      0.907639  1 Cl dyz               39     -0.505601  1 Cl dxy        
    38     -0.454251  1 Cl dxx               40      0.409734  1 Cl dxz        
    36      0.362152  1 Cl dyz               41      0.254352  1 Cl dyy        
    33     -0.201737  1 Cl dxy               43      0.199900  1 Cl dzz        
    32     -0.181248  1 Cl dxx               34      0.163486  1 Cl dxz        

 Vector   13  Occ=0.000000D+00  E=-1.438678D-01
              MO Center= -1.1D-15,  5.0D-16,  2.3D-15, r^2= 2.0D+00
   Bfn.  Coefficient  Atom+Function         Bfn.  Coefficient  Atom+Function  
  ----- ------------  ---------------      ----- ------------  ---------------
    40      1.086607  1 Cl dxz               34      0.439169  1 Cl dxz        
    42     -0.408594  1 Cl dyz               39      0.326058  1 Cl dxy        
    41      0.319377  1 Cl dyy               43     -0.300167  1 Cl dzz        
    35      0.165049  1 Cl dyy               36     -0.165140  1 Cl dyz        

 Vector   14  Occ=0.000000D+00  E=-1.388868D-01
              MO Center= -3.9D-15, -2.1D-15, -2.0D-15, r^2= 1.9D+00
   Bfn.  Coefficient  Atom+Function         Bfn.  Coefficient  Atom+Function  
  ----- ------------  ---------------      ----- ------------  ---------------
    39      1.035385  1 Cl dxy               42      0.703910  1 Cl dyz        
    33      0.432295  1 Cl dxy               36      0.293897  1 Cl dyz        
    40     -0.285566  1 Cl dxz               43     -0.219544  1 Cl dzz        
    41      0.203804  1 Cl dyy        

 Vector   15  Occ=0.000000D+00  E=-1.388868D-01
              MO Center=  2.7D-15, -8.3D-15,  5.3D-15, r^2= 1.9D+00
   Bfn.  Coefficient  Atom+Function         Bfn.  Coefficient  Atom+Function  
  ----- ------------  ---------------      ----- ------------  ---------------
    40      0.635930  1 Cl dxz               41     -0.607683  1 Cl dyy        
    42      0.483949  1 Cl dyz               38      0.426562  1 Cl dxx        
    34      0.265514  1 Cl dxz               35     -0.253721  1 Cl dyy        
    36      0.202059  1 Cl dyz               43      0.181122  1 Cl dzz        
    32      0.178098  1 Cl dxx        

 Vector   16  Occ=0.000000D+00  E=-1.184002D-01
              MO Center= -1.6D-15,  1.4D-14, -4.1D-15, r^2= 8.1D+00
   Bfn.  Coefficient  Atom+Function         Bfn.  Coefficient  Atom+Function  
  ----- ------------  ---------------      ----- ------------  ---------------
    25      0.879067  1 Cl pz                23     -0.703937  1 Cl px         
    24      0.264839  1 Cl py         

 Vector   17  Occ=0.000000D+00  E=-1.100525D-01
              MO Center= -6.7D-15,  8.0D-15, -7.5D-15, r^2= 8.2D+00
   Bfn.  Coefficient  Atom+Function         Bfn.  Coefficient  Atom+Function  
  ----- ------------  ---------------      ----- ------------  ---------------
    25      0.748164  1 Cl pz                23      0.718851  1 Cl px         
    24     -0.573894  1 Cl py         

 Vector   18  Occ=0.000000D+00  E=-1.100501D-01
              MO Center= -8.3D-15, -3.5D-15, -3.7D-15, r^2= 8.2D+00
   Bfn.  Coefficient  Atom+Function         Bfn.  Coefficient  Atom+Function  
  ----- ------------  ---------------      ----- ------------  ---------------
    24      1.001421  1 Cl py                23      0.607363  1 Cl px         
    20     -0.198956  1 Cl py                25      0.184593  1 Cl pz         

 Vector   19  Occ=0.000000D+00  E= 1.253088D-01
              MO Center=  8.9D-15,  2.3D-14,  3.7D-14, r^2= 6.7D+00
   Bfn.  Coefficient  Atom+Function         Bfn.  Coefficient  Atom+Function  
  ----- ------------  ---------------      ----- ------------  ---------------
    22      2.067036  1 Cl s                 38     -1.334052  1 Cl dxx        
    41     -1.331206  1 Cl dyy               43     -1.335942  1 Cl dzz        
     6      1.194799  1 Cl s                  4     -0.312377  1 Cl s          
    35     -0.284773  1 Cl dyy               32     -0.274692  1 Cl dxx        
    37     -0.267993  1 Cl dzz                5      0.201242  1 Cl s          

 Vector   20  Occ=0.000000D+00  E= 1.497038D-01
              MO Center=  1.6D-14, -3.2D-15, -1.9D-14, r^2= 7.4D+00
   Bfn.  Coefficient  Atom+Function         Bfn.  Coefficient  Atom+Function  
  ----- ------------  ---------------      ----- ------------  ---------------
    21      1.921144  1 Cl pz                19     -1.537658  1 Cl px         
    18     -1.468722  1 Cl pz                25     -1.247600  1 Cl pz         
    16      1.175789  1 Cl px                23      0.998436  1 Cl px         
    20      0.578429  1 Cl py                17     -0.442314  1 Cl py         
    24     -0.375580  1 Cl py                46      0.361407  1 Cl fxxz       

 Vector   21  Occ=0.000000D+00  E= 1.602085D-01
              MO Center= -9.3D-15,  9.2D-15, -1.1D-14, r^2= 7.4D+00
   Bfn.  Coefficient  Atom+Function         Bfn.  Coefficient  Atom+Function  
  ----- ------------  ---------------      ----- ------------  ---------------
    21      1.616301  1 Cl pz                19      1.568468  1 Cl px         
    18     -1.291914  1 Cl pz                16     -1.253944  1 Cl px         
    20     -1.199084  1 Cl py                25     -1.032604  1 Cl pz         
    23     -1.001915  1 Cl px                17      0.958586  1 Cl py         
    24      0.765980  1 Cl py                53      0.328954  1 Cl fzzz       

 Vector   22  Occ=0.000000D+00  E= 1.602116D-01
              MO Center= -1.4D-14, -2.2D-14, -4.5D-15, r^2= 7.4D+00
   Bfn.  Coefficient  Atom+Function         Bfn.  Coefficient  Atom+Function  
  ----- ------------  ---------------      ----- ------------  ---------------
    20      2.175237  1 Cl py                17     -1.738854  1 Cl py         
    24     -1.389605  1 Cl py                19      1.281174  1 Cl px         
    16     -1.024178  1 Cl px                23     -0.818439  1 Cl px         
    45      0.441014  1 Cl fxxy              52      0.443065  1 Cl fyzz       
    50      0.440288  1 Cl fyyy              21      0.370483  1 Cl pz         

 Vector   23  Occ=0.000000D+00  E= 6.386310D-01
              MO Center=  8.3D-16, -6.2D-16, -1.0D-15, r^2= 1.5D+00
   Bfn.  Coefficient  Atom+Function         Bfn.  Coefficient  Atom+Function  
  ----- ------------  ---------------      ----- ------------  ---------------
    34      1.279508  1 Cl dxz               40     -1.079395  1 Cl dxz        
    36     -0.481132  1 Cl dyz               41     -0.421061  1 Cl dyy        
    42      0.405884  1 Cl dyz               33      0.383938  1 Cl dxy        
    37     -0.369926  1 Cl dzz               35      0.359603  1 Cl dyy        
    39     -0.323891  1 Cl dxy               28      0.291844  1 Cl dxz        


   alpha - beta orbital overlaps 
   ----------------------------- 


   alpha      1      2      3      4      5      6      7      8      9     10
    beta      1      2      3      4      5      6      9      8      7     10
 overlap   1.000  1.000  0.709  0.709  1.000  0.998  0.994  0.994  1.000  0.999


   alpha     11     12     13     14     15     16     17     18     19     20
    beta     15     14     12     11     13     17     18     16     19     21
 overlap   0.994  0.994  0.980  0.980  0.999  0.995  0.995  1.000  0.999  0.995


   alpha     21     22     23     24     25     26     27     28     29     30
    beta     22     20     27     26     25     24     23     28     30     31
 overlap   0.995  1.000  0.992  0.992  0.733  0.733  0.998  0.999  0.995  0.995


   alpha     31     32     33     34     35     36     37     38     39     40
    beta     29     33     32     34     35     36     37     38     39     40
 overlap   1.000  0.961  0.961  0.829  0.829  0.956  0.956  1.000  0.982  0.982


   alpha     41     42     43     44     45     46     47     48     49     50
    beta     41     42     44     43     45     46     47     48     49     51
 overlap   1.000  1.000  0.756  0.756  0.985  0.985  1.000  1.000  1.000  0.829


   alpha     51     52     53
    beta     50     52     53
 overlap   0.829  1.000  1.000

     --------------------------
     Expectation value of S2:  
     --------------------------
      <S2> =      2.0038 (Exact =     2.0000)


 Parallel integral file used      16 records with       0 large values


 Task  times  cpu:        1.5s     wall:        2.0s


                                NWChem Input Module
                                -------------------


 Summary of allocated global arrays
-----------------------------------
  No active global arrays



                         GA Statistics for process    0
                         ------------------------------

       create   destroy   get      put      acc     scatter   gather  read&inc
calls:  313      313     1196      891      327        0        0       71     
number of processes/call 1.69e+00 1.49e+00 3.03e+00 0.00e+00 0.00e+00
bytes total:             1.77e+07 6.17e+06 7.35e+06 0.00e+00 0.00e+00 5.68e+02
bytes remote:            1.31e+06 5.14e+05 1.18e+06 0.00e+00 0.00e+00 0.00e+00
Max memory consumed for GA by this process: 1415736 bytes

MA_summarize_allocated_blocks: starting scan ...
MA_summarize_allocated_blocks: scan completed: 0 heap blocks, 0 stack blocks
MA usage statistics:

	allocation statistics:
					      heap	     stack
					      ----	     -----
	current number of blocks	         0	         0
	maximum number of blocks	        23	        51
	current total bytes		         0	         0
	maximum total bytes		   2415512	  22513064
	maximum total K-bytes		      2416	     22514
	maximum total M-bytes		         3	        23


                                     CITATION
                                     --------
                Please cite the following reference when publishing
                           results obtained with NWChem:

                 M. Valiev, E.J. Bylaska, N. Govind, K. Kowalski,
              T.P. Straatsma, H.J.J. van Dam, D. Wang, J. Nieplocha,
                        E. Apra, T.L. Windus, W.A. de Jong
                 "NWChem: a comprehensive and scalable open-source
                  solution for large scale molecular simulations"
                      Comput. Phys. Commun. 181, 1477 (2010)
                           doi:10.1016/j.cpc.2010.04.018

                                      AUTHORS
                                      -------
          E. Apra, E. J. Bylaska, W. A. de Jong, N. Govind, K. Kowalski,
       T. P. Straatsma, M. Valiev, H. J. J. van Dam, D. Wang, T. L. Windus,
        J. Hammond, J. Autschbach, K. Bhaskaran-Nair, J. Brabec, K. Lopata,
       S. A. Fischer, S. Krishnamoorthy, W. Ma, M. Klemm, O. Villa, Y. Chen,
    V. Anisimov, F. Aquino, S. Hirata, M. T. Hackler, T. Risthaus, M. Malagoli,
       A. Marenich, A. Otero-de-la-Roza, J. Mullin, P. Nichols, R. Peverati,
     J. Pittner, Y. Zhao, P.-D. Fan, A. Fonari, M. Williamson, R. J. Harrison,
       J. R. Rehr, M. Dupuis, D. Silverstein, D. M. A. Smith, J. Nieplocha,
        V. Tipparaju, M. Krishnan, B. E. Van Kuiken, A. Vazquez-Mayagoitia,
        L. Jensen, M. Swart, Q. Wu, T. Van Voorhis, A. A. Auer, M. Nooijen,
      L. D. Crosby, E. Brown, G. Cisneros, G. I. Fann, H. Fruchtl, J. Garza,
        K. Hirao, R. A. Kendall, J. A. Nichols, K. Tsemekhman, K. Wolinski,
     J. Anchell, D. E. Bernholdt, P. Borowski, T. Clark, D. Clerc, H. Dachsel,
   M. J. O. Deegan, K. Dyall, D. Elwood, E. Glendening, M. Gutowski, A. C. Hess,
         J. Jaffe, B. G. Johnson, J. Ju, R. Kobayashi, R. Kutteh, Z. Lin,
   R. Littlefield, X. Long, B. Meng, T. Nakajima, S. Niu, L. Pollack, M. Rosing,
   K. Glaesemann, G. Sandrone, M. Stave, H. Taylor, G. Thomas, J. H. van Lenthe,
                               A. T. Wong, Z. Zhang.

 Total times  cpu:        1.5s     wall:        2.2s
