[1537795734.845770] [r8n4:5281 :0]         sys.c:744  MXM  WARN  Conflicting CPU frequencies detected, using: 1798.49
[1537795734.855133] [r8n4:5282 :0]         sys.c:744  MXM  WARN  Conflicting CPU frequencies detected, using: 1898.13
[1537795734.855206] [r8n4:5299 :0]         sys.c:744  MXM  WARN  Conflicting CPU frequencies detected, using: 1898.13
[1537795734.855543] [r8n4:5286 :0]         sys.c:744  MXM  WARN  Conflicting CPU frequencies detected, using: 1898.13
[1537795734.856717] [r8n4:5284 :0]         sys.c:744  MXM  WARN  Conflicting CPU frequencies detected, using: 1898.13
[1537795734.856875] [r8n4:5283 :0]         sys.c:744  MXM  WARN  Conflicting CPU frequencies detected, using: 1898.13
[1537795734.856953] [r8n4:5285 :0]         sys.c:744  MXM  WARN  Conflicting CPU frequencies detected, using: 1898.13
[1537795734.857262] [r8n4:5297 :0]         sys.c:744  MXM  WARN  Conflicting CPU frequencies detected, using: 1898.13
[1537795734.864880] [r8n4:5303 :0]         sys.c:744  MXM  WARN  Conflicting CPU frequencies detected, using: 1994.98
[1537795734.865191] [r8n4:5301 :0]         sys.c:744  MXM  WARN  Conflicting CPU frequencies detected, using: 1994.98
[1537795734.893917] [r8n4:5309 :0]         sys.c:744  MXM  WARN  Conflicting CPU frequencies detected, using: 2194.70
[1537795734.893933] [r8n4:5311 :0]         sys.c:744  MXM  WARN  Conflicting CPU frequencies detected, using: 2194.70
[1537795734.893937] [r8n4:5307 :0]         sys.c:744  MXM  WARN  Conflicting CPU frequencies detected, using: 2194.70
[1537795734.903247] [r8n4:5317 :0]         sys.c:744  MXM  WARN  Conflicting CPU frequencies detected, using: 2299.55
[1537795734.904743] [r8n4:5313 :0]         sys.c:744  MXM  WARN  Conflicting CPU frequencies detected, using: 2299.55
[1537795734.904753] [r8n4:5315 :0]         sys.c:744  MXM  WARN  Conflicting CPU frequencies detected, using: 2299.55
 argument  1 = /storage/home/bikashp/nwchem_run/rabeet/ip13g2/nwip13g2/Cl.nw
                                         
                                         


              Northwest Computational Chemistry Package (NWChem) 6.6
              ------------------------------------------------------


                    Environmental Molecular Sciences Laboratory
                       Pacific Northwest National Laboratory
                                Richland, WA 99352

                              Copyright (c) 1994-2015
                       Pacific Northwest National Laboratory
                            Battelle Memorial Institute

             NWChem is an open-source computational chemistry package
                        distributed under the terms of the
                      Educational Community License (ECL) 2.0
             A copy of the license is included with this distribution
                              in the LICENSE.TXT file

                                  ACKNOWLEDGMENT
                                  --------------

            This software and its documentation were developed at the
            EMSL at Pacific Northwest National Laboratory, a multiprogram
            national laboratory, operated for the U.S. Department of Energy
            by Battelle under Contract Number DE-AC05-76RL01830. Support
            for this work was provided by the Department of Energy Office
            of Biological and Environmental Research, Office of Basic
            Energy Sciences, and the Office of Advanced Scientific Computing.


           Job information
           ---------------

    hostname        = r8n4.niserhpc.org
    program         = /home/bikashp/Code/nwchem-6.6_tpssloc/bin/LINUX64/nwchem
    date            = Mon Sep 24 18:58:58 2018

    compiled        = Tue_Sep_18_16:24:59_2018
    source          = /home/bikashp/Code/nwchem-6.6_tpssloc
    nwchem branch   = 6.6
    nwchem revision = 27746
    ga revision     = 10594
    input           = /storage/home/bikashp/nwchem_run/rabeet/ip13g2/nwip13g2/Cl.nw
    prefix          = Cl.
    data base       = ./Cl.db
    status          = startup
    nproc           =       16
    time left       =     -1s



           Memory information
           ------------------

    heap     =   13107196 doubles =    100.0 Mbytes
    stack    =   13107201 doubles =    100.0 Mbytes
    global   =   26214400 doubles =    200.0 Mbytes (distinct from heap & stack)
    total    =   52428797 doubles =    400.0 Mbytes
    verify   = yes
    hardfail = no 


           Directory information
           ---------------------

  0 permanent = .
  0 scratch   = .




                                NWChem Input Module
                                -------------------



 Scaling coordinates for geometry "geometry" by  1.889725989
 (inverse scale =  0.529177249)



                             Geometry "geometry" -> ""
                             -------------------------

 Output coordinates in angstroms (scale by  1.889725989 to convert to a.u.)

  No.       Tag          Charge          X              Y              Z
 ---- ---------------- ---------- -------------- -------------- --------------
    1 Cl                  17.0000     0.00000000     0.00000000     0.00000000

      Atomic Mass 
      ----------- 

      Cl                34.968850


 Effective nuclear repulsion energy (a.u.)       0.0000000000

            Nuclear Dipole moment (a.u.) 
            ----------------------------
        X                 Y               Z
 ---------------- ---------------- ----------------
     0.0000000000     0.0000000000     0.0000000000


            XYZ format geometry
            -------------------
     1
 geometry
 Cl                    0.00000000     0.00000000     0.00000000



 Summary of "ao basis" -> "" (cartesian)
 ------------------------------------------------------------------------------
       Tag                 Description            Shells   Functions and Types
 ---------------- ------------------------------  ------  ---------------------
 *                     6-311++G(3df,3pd)              on all atoms 



                                 NWChem DFT Module
                                 -----------------


                      Basis "ao basis" -> "ao basis" (cartesian)
                      -----
  Cl (Chlorine)
  -------------
            Exponent  Coefficients 
       -------------- ---------------------------------------------------------
  1 S  1.05819000E+05  0.000738
  1 S  1.58720000E+04  0.005718
  1 S  3.61965000E+03  0.029495
  1 S  1.03080000E+03  0.117286
  1 S  3.39908000E+02  0.362949
  1 S  1.24538000E+02  0.584149

  2 S  1.24538000E+02  0.134177
  2 S  4.95135000E+01  0.624250
  2 S  2.08056000E+01  0.291756

  3 S  6.58346000E+00  1.000000

  4 S  2.56468000E+00  1.000000

  5 S  5.59763000E-01  1.000000

  6 S  1.83273000E-01  1.000000

  7 P  5.89776000E+02  0.002391
  7 P  1.39849000E+02  0.018504
  7 P  4.51413000E+01  0.081377
  7 P  1.68733000E+01  0.221552
  7 P  6.74110000E+00  0.772569

  8 P  6.74110000E+00 -1.572244
  8 P  2.77152000E+00  0.992389

  9 P  1.02387000E+00  1.000000

 10 P  3.81368000E-01  1.000000

 11 P  1.09437000E-01  1.000000

 12 S  4.83000000E-02  1.000000

 13 P  4.83000000E-02  1.000000

 14 D  3.00000000E+00  1.000000

 15 D  7.50000000E-01  1.000000

 16 D  1.87500000E-01  1.000000

 17 F  7.00000000E-01  1.000000



 Summary of "ao basis" -> "ao basis" (cartesian)
 ------------------------------------------------------------------------------
       Tag                 Description            Shells   Functions and Types
 ---------------- ------------------------------  ------  ---------------------
 Cl                    6-311++G(3df,3pd)            17       53   7s6p3d1f




 Summary of "ao basis" -> "ao basis" (cartesian)
 ------------------------------------------------------------------------------
       Tag                 Description            Shells   Functions and Types
 ---------------- ------------------------------  ------  ---------------------
 Cl                    6-311++G(3df,3pd)            17       53   7s6p3d1f


  Caching 1-el integrals 

            General Information
            -------------------
          SCF calculation type: DFT
          Wavefunction type:  spin polarized.
          No. of atoms     :     1
          No. of electrons :    17
           Alpha electrons :     9
            Beta electrons :     8
          Charge           :     0
          Spin multiplicity:     2
          Use of symmetry is: off; symmetry adaption is: off
          Maximum number of iterations: ***
          AO basis - number of functions:    53
                     number of shells:    17
          Convergence on energy requested: 1.00D-06
          Convergence on density requested: 1.00D-05
          Convergence on gradient requested: 5.00D-04

              XC Information
              --------------
                  TPSS metaGGA Exchange Functional  1.000          
             TPSS03 metaGGA Correlation Functional  1.000          

             Grid Information
             ----------------
          Grid used for XC integration:  medium    
          Radial quadrature: Mura-Knowles        
          Angular quadrature: Lebedev. 
          Tag              B.-S. Rad. Rad. Pts. Rad. Cut. Ang. Pts.
          ---              ---------- --------- --------- ---------
          Cl                  1.00       88           7.0       590
          Grid pruning is: on 
          Number of quadrature shells:    88
          Spatial weights used:  Erf1

          Convergence Information
          -----------------------
          Convergence aids based upon iterative change in 
          total energy or number of iterations. 
          Levelshifting, if invoked, occurs when the 
          HOMO/LUMO gap drops below (HL_TOL): 1.00D-02
          DIIS, if invoked, will attempt to extrapolate 
          using up to (NFOCK): 10 stored Fock matrices.

                    Damping( 0%)  Levelshifting(0.5)       DIIS
                  --------------- ------------------- ---------------
          dE  on:    start            ASAP                start   
          dE off:    2 iters        *** iters           *** iters 


      Screening Tolerance Information
      -------------------------------
          Density screening/tol_rho: 1.00D-10
          AO Gaussian exp screening on grid/accAOfunc:  14
          CD Gaussian exp screening on grid/accCDfunc:  20
          XC Gaussian exp screening on grid/accXCfunc:  20
          Schwarz screening/accCoul: 1.00D-08


      Superposition of Atomic Density Guess
      -------------------------------------

 Sum of atomic energies:        -459.47804774

      Non-variational initial energy
      ------------------------------

 Total energy =    -459.272479
 1-e energy   =    -634.858312
 2-e energy   =     175.585834
 HOMO         =      -0.428015
 LUMO         =       0.090671

   Time after variat. SCF:      0.4
   Time prior to 1st pass:      0.4

 #quartets = 1.178D+04 #integrals = 1.651D+05 #direct =  0.0% #cached =100.0%


 Integral file          = ./Cl.aoints.00
 Record size in doubles =    65536    No. of integs per rec  =    43688
 Max. records in memory =        4    Max. records in file   = 11667308
 No. of bits per label  =        8    No. of bits per value  =       64


File balance: exchanges=     0  moved=     0  time=   0.0


 Grid_pts file          = ./Cl.gridpts.00
 Record size in doubles =  12289        No. of grid_pts per rec  =   3070
 Max. records in memory =      3        Max. recs in file   =  62220584


           Memory utilization after 1st SCF pass: 
           Heap Space remaining (MW):       12.81            12805260
          Stack Space remaining (MW):       13.11            13106660

   convergence    iter        energy       DeltaE   RMS-Dens  Diis-err    time
 ---------------- ----- ----------------- --------- --------- ---------  ------
 d= 0,ls=0.0,diis     1   -460.2084393055 -4.60D+02  2.00D-02  2.59D-01     0.8
                                                     3.05D-02  2.44D-01
 d= 0,ls=0.5,diis     2   -460.1958899913  1.25D-02  4.88D-03  7.44D-02     0.8
                                                     2.16D-03  1.34D-02
 d= 0,ls=0.5,diis     3   -460.2089338040 -1.30D-02  1.54D-03  6.35D-03     0.9
                                                     4.10D-04  4.70D-04
 d= 0,ls=0.5,diis     4   -460.2094472875 -5.13D-04  5.08D-04  6.01D-04     1.0
                                                     2.95D-04  9.27D-05
 d= 0,ls=0.5,diis     5   -460.2098672097 -4.20D-04  2.24D-04  9.37D-05     1.1
                                                     1.16D-04  1.19D-05
  Resetting Diis
 d= 0,ls=0.5,diis     6   -460.2097888217  7.84D-05  9.02D-05  1.30D-05     1.2
                                                     3.59D-05  7.90D-07
 d= 0,ls=0.5,diis     7   -460.2097821921  6.63D-06  4.25D-05  2.47D-06     1.3
                                                     9.31D-06  8.45D-08
 d= 0,ls=0.5,diis     8   -460.2097763343  5.86D-06  2.11D-05  6.00D-07     1.3
                                                     9.22D-06  3.17D-08
 d= 0,ls=0.5,diis     9   -460.2097807577 -4.42D-06  1.02D-05  1.53D-07     1.4
                                                     2.35D-06  2.49D-09
 d= 0,ls=0.5,diis    10   -460.2097789685  1.79D-06  5.38D-06  3.89D-08     1.5
                                                     9.35D-07  6.49D-10
 d= 0,ls=0.5,diis    11   -460.2097797794 -8.11D-07  2.90D-06  1.03D-08     1.6
                                                     2.18D-07  2.71D-10


         Total DFT energy =     -460.209779171052
      One electron energy =     -634.129224281753
           Coulomb energy =      202.101393219940
          Exchange energy =      -27.485476875327
       Correlation energy =       -0.696471233911
 Nuclear repulsion energy =        0.000000000000

 Numeric. integr. density =       17.000000000265

     Total iterative time =      1.3s



                    DFT Final Alpha Molecular Orbital Analysis
                    ------------------------------------------

 Vector    1  Occ=1.000000D+00  E=-1.011421D+02
              MO Center=  3.7D-17,  2.6D-17, -2.0D-17, r^2= 3.1D-03
   Bfn.  Coefficient  Atom+Function         Bfn.  Coefficient  Atom+Function  
  ----- ------------  ---------------      ----- ------------  ---------------
     2      0.653538  1 Cl s                  1      0.411997  1 Cl s          

 Vector    2  Occ=1.000000D+00  E=-9.391427D+00
              MO Center= -8.1D-16, -1.0D-15, -8.3D-16, r^2= 6.6D-02
   Bfn.  Coefficient  Atom+Function         Bfn.  Coefficient  Atom+Function  
  ----- ------------  ---------------      ----- ------------  ---------------
     4      0.617080  1 Cl s                  3      0.480210  1 Cl s          
     2     -0.325428  1 Cl s          

 Vector    3  Occ=1.000000D+00  E=-7.184091D+00
              MO Center=  4.6D-17,  4.3D-16, -3.0D-16, r^2= 5.8D-02
   Bfn.  Coefficient  Atom+Function         Bfn.  Coefficient  Atom+Function  
  ----- ------------  ---------------      ----- ------------  ---------------
     8      0.922984  1 Cl py                 7      0.601216  1 Cl px         
     9     -0.554797  1 Cl pz                11      0.250683  1 Cl py         
    10      0.163291  1 Cl px                12     -0.150683  1 Cl pz         

 Vector    4  Occ=1.000000D+00  E=-7.162272D+00
              MO Center=  4.2D-16, -2.7D-16, -2.3D-16, r^2= 5.8D-02
   Bfn.  Coefficient  Atom+Function         Bfn.  Coefficient  Atom+Function  
  ----- ------------  ---------------      ----- ------------  ---------------
     7      1.060132  1 Cl px                 8     -0.620862  1 Cl py         
    10      0.287992  1 Cl px                11     -0.168661  1 Cl py         

 Vector    5  Occ=1.000000D+00  E=-7.162272D+00
              MO Center=  1.9D-16,  1.0D-15,  1.1D-15, r^2= 5.8D-02
   Bfn.  Coefficient  Atom+Function         Bfn.  Coefficient  Atom+Function  
  ----- ------------  ---------------      ----- ------------  ---------------
     9      1.096002  1 Cl pz                 8      0.533394  1 Cl py         
    12      0.297736  1 Cl pz                 7      0.192518  1 Cl px         

 Vector    6  Occ=1.000000D+00  E=-8.427183D-01
              MO Center=  3.4D-15,  4.3D-15, -7.4D-15, r^2= 7.9D-01
   Bfn.  Coefficient  Atom+Function         Bfn.  Coefficient  Atom+Function  
  ----- ------------  ---------------      ----- ------------  ---------------
     6      0.770990  1 Cl s                  5      0.606432  1 Cl s          
     4     -0.455164  1 Cl s                  3     -0.216383  1 Cl s          

 Vector    7  Occ=1.000000D+00  E=-4.399990D-01
              MO Center= -3.2D-16, -1.8D-15, -2.1D-15, r^2= 1.1D+00
   Bfn.  Coefficient  Atom+Function         Bfn.  Coefficient  Atom+Function  
  ----- ------------  ---------------      ----- ------------  ---------------
    17      0.693996  1 Cl py                16      0.452057  1 Cl px         
    18     -0.417155  1 Cl pz                 8     -0.276288  1 Cl py         
    20      0.187199  1 Cl py                 7     -0.179969  1 Cl px         
     9      0.166074  1 Cl pz         

 Vector    8  Occ=1.000000D+00  E=-3.764080D-01
              MO Center= -5.3D-17,  2.4D-15, -8.8D-16, r^2= 1.2D+00
   Bfn.  Coefficient  Atom+Function         Bfn.  Coefficient  Atom+Function  
  ----- ------------  ---------------      ----- ------------  ---------------
    16      0.811227  1 Cl px                17     -0.475126  1 Cl py         
     7     -0.312344  1 Cl px                19      0.249205  1 Cl px         
     8      0.182936  1 Cl py                13      0.155559  1 Cl px         
    47     -0.150674  1 Cl fxyy       

 Vector    9  Occ=1.000000D+00  E=-3.764076D-01
              MO Center= -2.5D-15,  1.6D-15, -6.7D-16, r^2= 1.2D+00
   Bfn.  Coefficient  Atom+Function         Bfn.  Coefficient  Atom+Function  
  ----- ------------  ---------------      ----- ------------  ---------------
    18      0.838697  1 Cl pz                17      0.408135  1 Cl py         
     9     -0.322927  1 Cl pz                21      0.257669  1 Cl pz         
    15      0.160836  1 Cl pz                 8     -0.157146  1 Cl py         
    46     -0.154529  1 Cl fxxz              53     -0.152664  1 Cl fzzz       
    51     -0.151323  1 Cl fyyz       

 Vector   10  Occ=0.000000D+00  E= 2.471735D-03
              MO Center=  2.7D-14, -2.7D-14,  1.6D-14, r^2= 6.6D+00
   Bfn.  Coefficient  Atom+Function         Bfn.  Coefficient  Atom+Function  
  ----- ------------  ---------------      ----- ------------  ---------------
    22      1.545053  1 Cl s                  5     -0.327384  1 Cl s          
     6     -0.212924  1 Cl s                 41     -0.197606  1 Cl dyy        
    38     -0.191931  1 Cl dxx               43     -0.191311  1 Cl dzz        

 Vector   11  Occ=0.000000D+00  E= 5.669765D-02
              MO Center=  2.7D-15,  1.1D-14, -6.7D-15, r^2= 9.3D+00
   Bfn.  Coefficient  Atom+Function         Bfn.  Coefficient  Atom+Function  
  ----- ------------  ---------------      ----- ------------  ---------------
    24      1.045761  1 Cl py                23      0.681191  1 Cl px         
    25     -0.628598  1 Cl pz                20     -0.441151  1 Cl py         
    19     -0.287358  1 Cl px                21      0.265172  1 Cl pz         

 Vector   12  Occ=0.000000D+00  E= 6.394948D-02
              MO Center= -2.9D-14,  2.2D-14, -5.3D-15, r^2= 9.5D+00
   Bfn.  Coefficient  Atom+Function         Bfn.  Coefficient  Atom+Function  
  ----- ------------  ---------------      ----- ------------  ---------------
    23      1.227684  1 Cl px                24     -0.719035  1 Cl py         
    19     -0.559113  1 Cl px                20      0.327464  1 Cl py         
    13     -0.158872  1 Cl px         

 Vector   13  Occ=0.000000D+00  E= 6.395104D-02
              MO Center= -3.6D-16, -3.2D-15, -1.0D-14, r^2= 9.5D+00
   Bfn.  Coefficient  Atom+Function         Bfn.  Coefficient  Atom+Function  
  ----- ------------  ---------------      ----- ------------  ---------------
    25      1.269240  1 Cl pz                24      0.617655  1 Cl py         
    21     -0.578016  1 Cl pz                20     -0.281282  1 Cl py         
    23      0.223024  1 Cl px                15     -0.164237  1 Cl pz         

 Vector   14  Occ=0.000000D+00  E= 1.380883D-01
              MO Center=  1.9D-15,  3.3D-15, -3.5D-15, r^2= 2.1D+00
   Bfn.  Coefficient  Atom+Function         Bfn.  Coefficient  Atom+Function  
  ----- ------------  ---------------      ----- ------------  ---------------
    39      0.907501  1 Cl dxy               42     -0.837430  1 Cl dyz        
    40     -0.545489  1 Cl dxz               33      0.289312  1 Cl dxy        
    36     -0.266973  1 Cl dyz               41      0.240617  1 Cl dyy        
    43     -0.204287  1 Cl dzz               34     -0.173902  1 Cl dxz        
    38     -0.160414  1 Cl dxx        

 Vector   15  Occ=0.000000D+00  E= 1.438084D-01
              MO Center=  3.4D-16,  3.0D-15, -2.1D-15, r^2= 2.1D+00
   Bfn.  Coefficient  Atom+Function         Bfn.  Coefficient  Atom+Function  
  ----- ------------  ---------------      ----- ------------  ---------------
    38      0.608143  1 Cl dxx               39      0.576693  1 Cl dxy        
    41     -0.547950  1 Cl dyy               40     -0.495960  1 Cl dxz        
    42      0.429508  1 Cl dyz               32      0.183450  1 Cl dxx        
    33      0.173963  1 Cl dxy               35     -0.165293  1 Cl dyy        

 Vector   16  Occ=0.000000D+00  E= 1.438086D-01
              MO Center=  2.7D-15,  1.7D-15,  1.2D-16, r^2= 2.1D+00
   Bfn.  Coefficient  Atom+Function         Bfn.  Coefficient  Atom+Function  
  ----- ------------  ---------------      ----- ------------  ---------------
    42      0.684001  1 Cl dyz               43     -0.580524  1 Cl dzz        
    40      0.525981  1 Cl dxz               39      0.476901  1 Cl dxy        
    41      0.468783  1 Cl dyy               36      0.206333  1 Cl dyz        
    37     -0.175119  1 Cl dzz               34      0.158666  1 Cl dxz        

 Vector   17  Occ=0.000000D+00  E= 1.692713D-01
              MO Center= -3.8D-15,  1.5D-15, -3.6D-15, r^2= 2.2D+00
   Bfn.  Coefficient  Atom+Function         Bfn.  Coefficient  Atom+Function  
  ----- ------------  ---------------      ----- ------------  ---------------
    40      1.157844  1 Cl dxz               42     -0.601014  1 Cl dyz        
    39      0.439971  1 Cl dxy               41     -0.323927  1 Cl dyy        
    34      0.302021  1 Cl dxz               38      0.196504  1 Cl dxx        
    36     -0.156773  1 Cl dyz        

 Vector   18  Occ=0.000000D+00  E= 1.692713D-01
              MO Center= -4.4D-16,  1.4D-15,  8.1D-17, r^2= 2.2D+00
   Bfn.  Coefficient  Atom+Function         Bfn.  Coefficient  Atom+Function  
  ----- ------------  ---------------      ----- ------------  ---------------
    39      0.741191  1 Cl dxy               42      0.645063  1 Cl dyz        
    43      0.579726  1 Cl dzz               38     -0.532193  1 Cl dxx        
    33      0.193338  1 Cl dxy               36      0.168263  1 Cl dyz        
    37      0.151220  1 Cl dzz        

 Vector   19  Occ=0.000000D+00  E= 3.300505D-01
              MO Center=  5.0D-14, -3.6D-14, -2.7D-14, r^2= 6.0D+00
   Bfn.  Coefficient  Atom+Function         Bfn.  Coefficient  Atom+Function  
  ----- ------------  ---------------      ----- ------------  ---------------
    22      1.929426  1 Cl s                  6      1.605651  1 Cl s          
    41     -1.437363  1 Cl dyy               38     -1.423916  1 Cl dxx        
    43     -1.422444  1 Cl dzz                4     -0.324949  1 Cl s          
    32     -0.305753  1 Cl dxx               37     -0.306149  1 Cl dzz        
    35     -0.302140  1 Cl dyy                3     -0.176673  1 Cl s          

 Vector   20  Occ=0.000000D+00  E= 3.619532D-01
              MO Center= -6.5D-15, -1.4D-14,  1.1D-14, r^2= 6.3D+00
   Bfn.  Coefficient  Atom+Function         Bfn.  Coefficient  Atom+Function  
  ----- ------------  ---------------      ----- ------------  ---------------
    20      1.907896  1 Cl py                17     -1.695322  1 Cl py         
    19      1.242771  1 Cl px                21     -1.146819  1 Cl pz         
    16     -1.104304  1 Cl px                24     -1.105832  1 Cl py         
    18      1.019043  1 Cl pz                23     -0.720320  1 Cl px         
    25      0.664706  1 Cl pz                50      0.439092  1 Cl fyyy       

 Vector   21  Occ=0.000000D+00  E= 3.735465D-01
              MO Center= -5.0D-14,  2.4D-14,  3.9D-15, r^2= 6.2D+00
   Bfn.  Coefficient  Atom+Function         Bfn.  Coefficient  Atom+Function  
  ----- ------------  ---------------      ----- ------------  ---------------
    19     -2.179912  1 Cl px                16      1.993520  1 Cl px         
    20      1.276813  1 Cl py                23      1.245800  1 Cl px         
    17     -1.167640  1 Cl py                24     -0.729687  1 Cl py         
    44     -0.514360  1 Cl fxxx              47     -0.516413  1 Cl fxyy       
    49     -0.515988  1 Cl fxzz              45      0.315546  1 Cl fxxy       

 Vector   22  Occ=0.000000D+00  E= 3.735472D-01
              MO Center=  1.3D-14,  5.3D-15,  3.5D-14, r^2= 6.2D+00
   Bfn.  Coefficient  Atom+Function         Bfn.  Coefficient  Atom+Function  
  ----- ------------  ---------------      ----- ------------  ---------------
    21     -2.253748  1 Cl pz                18      2.061035  1 Cl pz         
    25      1.287999  1 Cl pz                20     -1.096674  1 Cl py         
    17      1.002899  1 Cl py                24      0.626740  1 Cl py         
    46     -0.533339  1 Cl fxxz              51     -0.531885  1 Cl fyyz       
    53     -0.532494  1 Cl fzzz              19     -0.396133  1 Cl px         

 Vector   23  Occ=0.000000D+00  E= 9.351351D-01
              MO Center= -1.9D-16,  3.8D-15, -2.1D-15, r^2= 1.4D+00
   Bfn.  Coefficient  Atom+Function         Bfn.  Coefficient  Atom+Function  
  ----- ------------  ---------------      ----- ------------  ---------------
    33      1.039006  1 Cl dxy               36     -0.958778  1 Cl dyz        
    39     -0.806109  1 Cl dxy               42      0.743864  1 Cl dyz        
    34     -0.624534  1 Cl dxz               40      0.484542  1 Cl dxz        
    35      0.344592  1 Cl dyy               27      0.221625  1 Cl dxy        
    41     -0.207212  1 Cl dyy               30     -0.204512  1 Cl dyz        


                     DFT Final Beta Molecular Orbital Analysis
                     -----------------------------------------

 Vector    1  Occ=1.000000D+00  E=-1.011358D+02
              MO Center= -1.7D-17,  2.1D-18,  5.5D-18, r^2= 3.1D-03
   Bfn.  Coefficient  Atom+Function         Bfn.  Coefficient  Atom+Function  
  ----- ------------  ---------------      ----- ------------  ---------------
     2      0.653551  1 Cl s                  1      0.412012  1 Cl s          

 Vector    2  Occ=1.000000D+00  E=-9.386241D+00
              MO Center= -1.8D-16, -1.8D-15,  4.6D-16, r^2= 6.6D-02
   Bfn.  Coefficient  Atom+Function         Bfn.  Coefficient  Atom+Function  
  ----- ------------  ---------------      ----- ------------  ---------------
     4      0.620000  1 Cl s                  3      0.478890  1 Cl s          
     2     -0.325302  1 Cl s          

 Vector    3  Occ=1.000000D+00  E=-7.167319D+00
              MO Center=  6.1D-16,  5.8D-16, -8.0D-16, r^2= 5.8D-02
   Bfn.  Coefficient  Atom+Function         Bfn.  Coefficient  Atom+Function  
  ----- ------------  ---------------      ----- ------------  ---------------
     8      0.923352  1 Cl py                 7      0.601456  1 Cl px         
     9     -0.555019  1 Cl pz                11      0.250776  1 Cl py         
    10      0.163352  1 Cl px                12     -0.150740  1 Cl pz         

 Vector    4  Occ=1.000000D+00  E=-7.159088D+00
              MO Center=  7.4D-17, -8.9D-17,  9.0D-16, r^2= 5.8D-02
   Bfn.  Coefficient  Atom+Function         Bfn.  Coefficient  Atom+Function  
  ----- ------------  ---------------      ----- ------------  ---------------
     9      1.093516  1 Cl pz                 8      0.546720  1 Cl py         
    12      0.297138  1 Cl pz                 7      0.169766  1 Cl px         

 Vector    5  Occ=1.000000D+00  E=-7.159088D+00
              MO Center= -4.4D-16,  3.1D-17,  2.4D-16, r^2= 5.8D-02
   Bfn.  Coefficient  Atom+Function         Bfn.  Coefficient  Atom+Function  
  ----- ------------  ---------------      ----- ------------  ---------------
     7      1.064267  1 Cl px                 8     -0.609416  1 Cl py         
    10      0.289190  1 Cl px                11     -0.165595  1 Cl py         

 Vector    6  Occ=1.000000D+00  E=-8.011340D-01
              MO Center=  2.8D-15, -3.9D-15,  1.1D-15, r^2= 8.1D-01
   Bfn.  Coefficient  Atom+Function         Bfn.  Coefficient  Atom+Function  
  ----- ------------  ---------------      ----- ------------  ---------------
     6      0.795422  1 Cl s                  5      0.566724  1 Cl s          
     4     -0.456441  1 Cl s                  3     -0.208876  1 Cl s          

 Vector    7  Occ=1.000000D+00  E=-3.679272D-01
              MO Center=  3.4D-16,  5.5D-16,  1.1D-15, r^2= 1.2D+00
   Bfn.  Coefficient  Atom+Function         Bfn.  Coefficient  Atom+Function  
  ----- ------------  ---------------      ----- ------------  ---------------
    18      0.856181  1 Cl pz                17      0.416213  1 Cl py         
     9     -0.318588  1 Cl pz                21      0.260298  1 Cl pz         
    46     -0.161779  1 Cl fxxz              51     -0.161277  1 Cl fyyz       
    53     -0.161488  1 Cl fzzz               8     -0.154874  1 Cl py         
    16      0.151109  1 Cl px         

 Vector    8  Occ=1.000000D+00  E=-3.679267D-01
              MO Center= -1.9D-15, -2.3D-15,  3.0D-15, r^2= 1.2D+00
   Bfn.  Coefficient  Atom+Function         Bfn.  Coefficient  Atom+Function  
  ----- ------------  ---------------      ----- ------------  ---------------
    16      0.827949  1 Cl px                17     -0.485331  1 Cl py         
     7     -0.308084  1 Cl px                19      0.251715  1 Cl px         
     8      0.180594  1 Cl py                44     -0.155927  1 Cl fxxx       
    47     -0.156631  1 Cl fxyy              49     -0.156481  1 Cl fxzz       

 Vector    9  Occ=0.000000D+00  E=-3.574403D-01
              MO Center=  5.7D-16, -1.0D-14,  3.1D-15, r^2= 1.2D+00
   Bfn.  Coefficient  Atom+Function         Bfn.  Coefficient  Atom+Function  
  ----- ------------  ---------------      ----- ------------  ---------------
    17      0.730980  1 Cl py                16      0.476148  1 Cl px         
    18     -0.439386  1 Cl pz                 8     -0.259255  1 Cl py         
    20      0.212904  1 Cl py                 7     -0.168874  1 Cl px         
     9      0.155836  1 Cl pz         

 Vector   10  Occ=0.000000D+00  E= 9.842564D-03
              MO Center=  2.3D-14,  9.2D-15, -1.1D-14, r^2= 6.7D+00
   Bfn.  Coefficient  Atom+Function         Bfn.  Coefficient  Atom+Function  
  ----- ------------  ---------------      ----- ------------  ---------------
    22      1.569668  1 Cl s                  5     -0.317568  1 Cl s          
    41     -0.214855  1 Cl dyy                6     -0.211952  1 Cl s          
    38     -0.206490  1 Cl dxx               43     -0.205574  1 Cl dzz        

 Vector   11  Occ=0.000000D+00  E= 6.587356D-02
              MO Center=  1.2D-15, -8.1D-16,  3.0D-16, r^2= 9.5D+00
   Bfn.  Coefficient  Atom+Function         Bfn.  Coefficient  Atom+Function  
  ----- ------------  ---------------      ----- ------------  ---------------
    25      1.283309  1 Cl pz                21     -0.595275  1 Cl pz         
    24      0.571648  1 Cl py                23      0.306655  1 Cl px         
    20     -0.265164  1 Cl py                15     -0.163620  1 Cl pz         

 Vector   12  Occ=0.000000D+00  E= 6.587362D-02
              MO Center= -1.0D-14,  8.6D-15,  2.6D-15, r^2= 9.5D+00
   Bfn.  Coefficient  Atom+Function         Bfn.  Coefficient  Atom+Function  
  ----- ------------  ---------------      ----- ------------  ---------------
    23      1.217506  1 Cl px                24     -0.763520  1 Cl py         
    19     -0.564751  1 Cl px                20      0.354166  1 Cl py         
    13     -0.155229  1 Cl px         

 Vector   13  Occ=0.000000D+00  E= 6.991115D-02
              MO Center= -9.5D-15, -1.2D-14,  7.0D-15, r^2= 9.6D+00
   Bfn.  Coefficient  Atom+Function         Bfn.  Coefficient  Atom+Function  
  ----- ------------  ---------------      ----- ------------  ---------------
    24      1.085718  1 Cl py                23      0.707234  1 Cl px         
    25     -0.652630  1 Cl pz                20     -0.514817  1 Cl py         
    19     -0.335350  1 Cl px                21      0.309459  1 Cl pz         

 Vector   14  Occ=0.000000D+00  E= 1.679722D-01
              MO Center= -7.1D-16, -4.0D-15,  4.0D-15, r^2= 2.2D+00
   Bfn.  Coefficient  Atom+Function         Bfn.  Coefficient  Atom+Function  
  ----- ------------  ---------------      ----- ------------  ---------------
    42      0.703916  1 Cl dyz               43     -0.595481  1 Cl dzz        
    40      0.536008  1 Cl dxz               39      0.492557  1 Cl dxy        
    41      0.477048  1 Cl dyy               36      0.183091  1 Cl dyz        
    37     -0.154886  1 Cl dzz        

 Vector   15  Occ=0.000000D+00  E= 1.679725D-01
              MO Center= -3.6D-15, -1.4D-15,  1.3D-15, r^2= 2.2D+00
   Bfn.  Coefficient  Atom+Function         Bfn.  Coefficient  Atom+Function  
  ----- ------------  ---------------      ----- ------------  ---------------
    38      0.622693  1 Cl dxx               39      0.588117  1 Cl dxy        
    41     -0.564699  1 Cl dyy               40     -0.511778  1 Cl dxz        
    42      0.435919  1 Cl dyz               32      0.161964  1 Cl dxx        
    33      0.152971  1 Cl dxy        

 Vector   16  Occ=0.000000D+00  E= 1.680815D-01
              MO Center=  2.7D-15, -1.7D-15, -9.6D-16, r^2= 2.2D+00
   Bfn.  Coefficient  Atom+Function         Bfn.  Coefficient  Atom+Function  
  ----- ------------  ---------------      ----- ------------  ---------------
    39      0.703481  1 Cl dxy               42      0.695216  1 Cl dyz        
    43      0.568513  1 Cl dzz               38     -0.548321  1 Cl dxx        
    33      0.180249  1 Cl dxy               36      0.178132  1 Cl dyz        

 Vector   17  Occ=0.000000D+00  E= 1.680815D-01
              MO Center=  2.8D-15, -1.6D-15,  1.8D-15, r^2= 2.2D+00
   Bfn.  Coefficient  Atom+Function         Bfn.  Coefficient  Atom+Function  
  ----- ------------  ---------------      ----- ------------  ---------------
    40      1.163612  1 Cl dxz               42     -0.546138  1 Cl dyz        
    39      0.502098  1 Cl dxy               41     -0.327671  1 Cl dyy        
    34      0.298147  1 Cl dxz               43      0.176188  1 Cl dzz        
    38      0.151483  1 Cl dxx        

 Vector   18  Occ=0.000000D+00  E= 1.745195D-01
              MO Center=  4.2D-15,  1.1D-15, -7.2D-16, r^2= 2.1D+00
   Bfn.  Coefficient  Atom+Function         Bfn.  Coefficient  Atom+Function  
  ----- ------------  ---------------      ----- ------------  ---------------
    39      0.935932  1 Cl dxy               42     -0.863646  1 Cl dyz        
    40     -0.562571  1 Cl dxz               33      0.251484  1 Cl dxy        
    41      0.245505  1 Cl dyy               36     -0.232061  1 Cl dyz        
    43     -0.213321  1 Cl dzz               38     -0.168092  1 Cl dxx        
    34     -0.151163  1 Cl dxz        

 Vector   19  Occ=0.000000D+00  E= 3.399220D-01
              MO Center=  1.2D-14, -5.3D-14,  5.8D-14, r^2= 5.9D+00
   Bfn.  Coefficient  Atom+Function         Bfn.  Coefficient  Atom+Function  
  ----- ------------  ---------------      ----- ------------  ---------------
    22      1.915280  1 Cl s                  6      1.659500  1 Cl s          
    38     -1.438164  1 Cl dxx               41     -1.440584  1 Cl dyy        
    43     -1.437899  1 Cl dzz                4     -0.328663  1 Cl s          
    35     -0.312440  1 Cl dyy               32     -0.302826  1 Cl dxx        
    37     -0.301773  1 Cl dzz                3     -0.177464  1 Cl s          

 Vector   20  Occ=0.000000D+00  E= 3.778102D-01
              MO Center= -5.5D-15, -1.2D-14, -2.6D-14, r^2= 6.1D+00
   Bfn.  Coefficient  Atom+Function         Bfn.  Coefficient  Atom+Function  
  ----- ------------  ---------------      ----- ------------  ---------------
    21     -2.256851  1 Cl pz                18      2.092107  1 Cl pz         
    25      1.282839  1 Cl pz                20     -1.092130  1 Cl py         
    17      1.012407  1 Cl py                24      0.620789  1 Cl py         
    46     -0.542199  1 Cl fxxz              51     -0.542300  1 Cl fyyz       
    53     -0.542258  1 Cl fzzz              19     -0.405963  1 Cl px         

 Vector   21  Occ=0.000000D+00  E= 3.778104D-01
              MO Center= -4.5D-14,  2.7D-14, -9.2D-15, r^2= 6.1D+00
   Bfn.  Coefficient  Atom+Function         Bfn.  Coefficient  Atom+Function  
  ----- ------------  ---------------      ----- ------------  ---------------
    19     -2.180190  1 Cl px                16      2.021043  1 Cl px         
    20      1.282755  1 Cl py                23      1.239263  1 Cl px         
    17     -1.189118  1 Cl py                24     -0.729143  1 Cl py         
    44     -0.523884  1 Cl fxxx              47     -0.523746  1 Cl fxyy       
    49     -0.523779  1 Cl fxzz              45      0.307292  1 Cl fxxy       

 Vector   22  Occ=0.000000D+00  E= 3.887927D-01
              MO Center=  2.6D-14,  3.9D-14, -2.5D-14, r^2= 6.1D+00
   Bfn.  Coefficient  Atom+Function         Bfn.  Coefficient  Atom+Function  
  ----- ------------  ---------------      ----- ------------  ---------------
    20     -1.915895  1 Cl py                17      1.842276  1 Cl py         
    19     -1.247990  1 Cl px                16      1.200035  1 Cl px         
    21      1.151624  1 Cl pz                18     -1.107373  1 Cl pz         
    24      1.076592  1 Cl py                23      0.701279  1 Cl px         
    25     -0.647128  1 Cl pz                45     -0.489414  1 Cl fxxy       

 Vector   23  Occ=0.000000D+00  E= 9.846294D-01
              MO Center= -1.5D-15,  1.9D-15, -1.9D-16, r^2= 1.3D+00
   Bfn.  Coefficient  Atom+Function         Bfn.  Coefficient  Atom+Function  
  ----- ------------  ---------------      ----- ------------  ---------------
    33      0.793708  1 Cl dxy               36      0.757458  1 Cl dyz        
    37      0.635501  1 Cl dzz               32     -0.604625  1 Cl dxx        
    39     -0.580638  1 Cl dxy               42     -0.554120  1 Cl dyz        
    43     -0.464897  1 Cl dzz               38      0.442320  1 Cl dxx        
    27      0.175269  1 Cl dxy               30      0.167264  1 Cl dyz        


   alpha - beta orbital overlaps 
   ----------------------------- 


   alpha      1      2      3      4      5      6      7      8      9     10
    beta      1      2      3      5      4      6      9      8      7     10
 overlap   1.000  1.000  1.000  1.000  1.000  0.999  0.998  1.000  1.000  1.000


   alpha     11     12     13     14     15     16     17     18     19     20
    beta     13     12     11     18     15     14     17     16     19     22
 overlap   0.999  0.998  0.998  0.999  1.000  1.000  0.996  0.996  0.999  0.998


   alpha     21     22     23     24     25     26     27     28     29     30
    beta     21     20     27     26     25     24     23     28     29     31
 overlap   1.000  1.000  0.998  1.000  1.000  0.998  0.998  0.999  1.000  1.000


   alpha     31     32     33     34     35     36     37     38     39     40
    beta     30     32     34     33     35     36     37     38     39     41
 overlap   1.000  1.000  1.000  1.000  0.987  0.987  0.995  0.995  1.000  1.000


   alpha     41     42     43     44     45     46     47     48     49     50
    beta     40     42     43     45     44     47     46     48     49     50
 overlap   1.000  1.000  1.000  0.997  0.997  0.999  0.999  1.000  1.000  1.000


   alpha     51     52     53
    beta     52     51     53
 overlap   1.000  1.000  1.000

     --------------------------
     Expectation value of S2:  
     --------------------------
      <S2> =      0.7532 (Exact =     0.7500)


 Parallel integral file used      16 records with       0 large values


 Task  times  cpu:        1.4s     wall:        1.9s


                                NWChem Input Module
                                -------------------


 Summary of allocated global arrays
-----------------------------------
  No active global arrays



                         GA Statistics for process    0
                         ------------------------------

       create   destroy   get      put      acc     scatter   gather  read&inc
calls:  331      331     1130      924      255        0        0       40     
number of processes/call 1.78e+00 1.50e+00 3.84e+00 0.00e+00 0.00e+00
bytes total:             1.61e+07 6.74e+06 5.73e+06 0.00e+00 0.00e+00 3.20e+02
bytes remote:            1.39e+06 5.56e+05 1.26e+06 0.00e+00 0.00e+00 0.00e+00
Max memory consumed for GA by this process: 1415736 bytes

MA_summarize_allocated_blocks: starting scan ...
MA_summarize_allocated_blocks: scan completed: 0 heap blocks, 0 stack blocks
MA usage statistics:

	allocation statistics:
					      heap	     stack
					      ----	     -----
	current number of blocks	         0	         0
	maximum number of blocks	        23	        51
	current total bytes		         0	         0
	maximum total bytes		   2415512	  22513064
	maximum total K-bytes		      2416	     22514
	maximum total M-bytes		         3	        23


                                     CITATION
                                     --------
                Please cite the following reference when publishing
                           results obtained with NWChem:

                 M. Valiev, E.J. Bylaska, N. Govind, K. Kowalski,
              T.P. Straatsma, H.J.J. van Dam, D. Wang, J. Nieplocha,
                        E. Apra, T.L. Windus, W.A. de Jong
                 "NWChem: a comprehensive and scalable open-source
                  solution for large scale molecular simulations"
                      Comput. Phys. Commun. 181, 1477 (2010)
                           doi:10.1016/j.cpc.2010.04.018

                                      AUTHORS
                                      -------
          E. Apra, E. J. Bylaska, W. A. de Jong, N. Govind, K. Kowalski,
       T. P. Straatsma, M. Valiev, H. J. J. van Dam, D. Wang, T. L. Windus,
        J. Hammond, J. Autschbach, K. Bhaskaran-Nair, J. Brabec, K. Lopata,
       S. A. Fischer, S. Krishnamoorthy, W. Ma, M. Klemm, O. Villa, Y. Chen,
    V. Anisimov, F. Aquino, S. Hirata, M. T. Hackler, T. Risthaus, M. Malagoli,
       A. Marenich, A. Otero-de-la-Roza, J. Mullin, P. Nichols, R. Peverati,
     J. Pittner, Y. Zhao, P.-D. Fan, A. Fonari, M. Williamson, R. J. Harrison,
       J. R. Rehr, M. Dupuis, D. Silverstein, D. M. A. Smith, J. Nieplocha,
        V. Tipparaju, M. Krishnan, B. E. Van Kuiken, A. Vazquez-Mayagoitia,
        L. Jensen, M. Swart, Q. Wu, T. Van Voorhis, A. A. Auer, M. Nooijen,
      L. D. Crosby, E. Brown, G. Cisneros, G. I. Fann, H. Fruchtl, J. Garza,
        K. Hirao, R. A. Kendall, J. A. Nichols, K. Tsemekhman, K. Wolinski,
     J. Anchell, D. E. Bernholdt, P. Borowski, T. Clark, D. Clerc, H. Dachsel,
   M. J. O. Deegan, K. Dyall, D. Elwood, E. Glendening, M. Gutowski, A. C. Hess,
         J. Jaffe, B. G. Johnson, J. Ju, R. Kobayashi, R. Kutteh, Z. Lin,
   R. Littlefield, X. Long, B. Meng, T. Nakajima, S. Niu, L. Pollack, M. Rosing,
   K. Glaesemann, G. Sandrone, M. Stave, H. Taylor, G. Thomas, J. H. van Lenthe,
                               A. T. Wong, Z. Zhang.

 Total times  cpu:        1.4s     wall:        2.1s
