[1537795754.848711] [r8n4:5812 :0]         sys.c:744  MXM  WARN  Conflicting CPU frequencies detected, using: 1699.30
[1537795754.859713] [r8n4:5816 :0]         sys.c:744  MXM  WARN  Conflicting CPU frequencies detected, using: 1795.71
[1537795754.860057] [r8n4:5814 :0]         sys.c:744  MXM  WARN  Conflicting CPU frequencies detected, using: 1795.71
[1537795754.860304] [r8n4:5813 :0]         sys.c:744  MXM  WARN  Conflicting CPU frequencies detected, using: 1795.71
[1537795754.860354] [r8n4:5815 :0]         sys.c:744  MXM  WARN  Conflicting CPU frequencies detected, using: 1795.71
[1537795754.860378] [r8n4:5818 :0]         sys.c:744  MXM  WARN  Conflicting CPU frequencies detected, using: 1795.71
[1537795754.860420] [r8n4:5817 :0]         sys.c:744  MXM  WARN  Conflicting CPU frequencies detected, using: 1795.71
[1537795754.879372] [r8n4:5824 :0]         sys.c:744  MXM  WARN  Conflicting CPU frequencies detected, using: 1899.92
[1537795754.879623] [r8n4:5822 :0]         sys.c:744  MXM  WARN  Conflicting CPU frequencies detected, using: 1899.92
[1537795754.880599] [r8n4:5820 :0]         sys.c:744  MXM  WARN  Conflicting CPU frequencies detected, using: 1899.92
[1537795754.901395] [r8n4:5836 :0]         sys.c:744  MXM  WARN  Conflicting CPU frequencies detected, using: 2198.75
[1537795754.901396] [r8n4:5834 :0]         sys.c:744  MXM  WARN  Conflicting CPU frequencies detected, using: 2198.75
[1537795754.901395] [r8n4:5830 :0]         sys.c:744  MXM  WARN  Conflicting CPU frequencies detected, using: 2198.75
[1537795754.901575] [r8n4:5826 :0]         sys.c:744  MXM  WARN  Conflicting CPU frequencies detected, using: 2198.75
[1537795754.901629] [r8n4:5828 :0]         sys.c:744  MXM  WARN  Conflicting CPU frequencies detected, using: 2198.75
[1537795754.902219] [r8n4:5832 :0]         sys.c:744  MXM  WARN  Conflicting CPU frequencies detected, using: 2198.75
 argument  1 = /storage/home/bikashp/nwchem_run/rabeet/ip13g2/nwip13g2/Cl2+.nw
                                         
                                         


              Northwest Computational Chemistry Package (NWChem) 6.6
              ------------------------------------------------------


                    Environmental Molecular Sciences Laboratory
                       Pacific Northwest National Laboratory
                                Richland, WA 99352

                              Copyright (c) 1994-2015
                       Pacific Northwest National Laboratory
                            Battelle Memorial Institute

             NWChem is an open-source computational chemistry package
                        distributed under the terms of the
                      Educational Community License (ECL) 2.0
             A copy of the license is included with this distribution
                              in the LICENSE.TXT file

                                  ACKNOWLEDGMENT
                                  --------------

            This software and its documentation were developed at the
            EMSL at Pacific Northwest National Laboratory, a multiprogram
            national laboratory, operated for the U.S. Department of Energy
            by Battelle under Contract Number DE-AC05-76RL01830. Support
            for this work was provided by the Department of Energy Office
            of Biological and Environmental Research, Office of Basic
            Energy Sciences, and the Office of Advanced Scientific Computing.


           Job information
           ---------------

    hostname        = r8n4.niserhpc.org
    program         = /home/bikashp/Code/nwchem-6.6_tpssloc/bin/LINUX64/nwchem
    date            = Mon Sep 24 18:59:18 2018

    compiled        = Tue_Sep_18_16:24:59_2018
    source          = /home/bikashp/Code/nwchem-6.6_tpssloc
    nwchem branch   = 6.6
    nwchem revision = 27746
    ga revision     = 10594
    input           = /storage/home/bikashp/nwchem_run/rabeet/ip13g2/nwip13g2/Cl2+.nw
    prefix          = Cl2+.
    data base       = ./Cl2+.db
    status          = startup
    nproc           =       16
    time left       =     -1s



           Memory information
           ------------------

    heap     =   13107196 doubles =    100.0 Mbytes
    stack    =   13107201 doubles =    100.0 Mbytes
    global   =   26214400 doubles =    200.0 Mbytes (distinct from heap & stack)
    total    =   52428797 doubles =    400.0 Mbytes
    verify   = yes
    hardfail = no 


           Directory information
           ---------------------

  0 permanent = .
  0 scratch   = .




                                NWChem Input Module
                                -------------------



 Scaling coordinates for geometry "geometry" by  1.889725989
 (inverse scale =  0.529177249)


          ------
          auto-z
          ------


                             Geometry "geometry" -> ""
                             -------------------------

 Output coordinates in angstroms (scale by  1.889725989 to convert to a.u.)

  No.       Tag          Charge          X              Y              Z
 ---- ---------------- ---------- -------------- -------------- --------------
    1 Cl                  17.0000     0.00000000     0.00000000    -0.95047000
    2 Cl                  17.0000     0.00000000     0.00000000     0.95047000

      Atomic Mass 
      ----------- 

      Cl                34.968850


 Effective nuclear repulsion energy (a.u.)      80.4508427204

            Nuclear Dipole moment (a.u.) 
            ----------------------------
        X                 Y               Z
 ---------------- ---------------- ----------------
     0.0000000000     0.0000000000     0.0000000000



                                Z-matrix (autoz)
                                -------- 

 Units are Angstrom for bonds and degrees for angles

      Type          Name      I     J     K     L     M      Value
      ----------- --------  ----- ----- ----- ----- ----- ----------
    1 Stretch                  1     2                       1.90094


            XYZ format geometry
            -------------------
     2
 geometry
 Cl                    0.00000000     0.00000000    -0.95047000
 Cl                    0.00000000     0.00000000     0.95047000

 ==============================================================================
                                internuclear distances
 ------------------------------------------------------------------------------
       center one      |      center two      | atomic units |  angstroms
 ------------------------------------------------------------------------------
    2 Cl               |   1 Cl               |     3.59226  |     1.90094
 ------------------------------------------------------------------------------
                         number of included internuclear distances:          1
 ==============================================================================





 Summary of "ao basis" -> "" (cartesian)
 ------------------------------------------------------------------------------
       Tag                 Description            Shells   Functions and Types
 ---------------- ------------------------------  ------  ---------------------
 *                     6-311++G(3df,3pd)              on all atoms 



                                 NWChem DFT Module
                                 -----------------


                      Basis "ao basis" -> "ao basis" (cartesian)
                      -----
  Cl (Chlorine)
  -------------
            Exponent  Coefficients 
       -------------- ---------------------------------------------------------
  1 S  1.05819000E+05  0.000738
  1 S  1.58720000E+04  0.005718
  1 S  3.61965000E+03  0.029495
  1 S  1.03080000E+03  0.117286
  1 S  3.39908000E+02  0.362949
  1 S  1.24538000E+02  0.584149

  2 S  1.24538000E+02  0.134177
  2 S  4.95135000E+01  0.624250
  2 S  2.08056000E+01  0.291756

  3 S  6.58346000E+00  1.000000

  4 S  2.56468000E+00  1.000000

  5 S  5.59763000E-01  1.000000

  6 S  1.83273000E-01  1.000000

  7 P  5.89776000E+02  0.002391
  7 P  1.39849000E+02  0.018504
  7 P  4.51413000E+01  0.081377
  7 P  1.68733000E+01  0.221552
  7 P  6.74110000E+00  0.772569

  8 P  6.74110000E+00 -1.572244
  8 P  2.77152000E+00  0.992389

  9 P  1.02387000E+00  1.000000

 10 P  3.81368000E-01  1.000000

 11 P  1.09437000E-01  1.000000

 12 S  4.83000000E-02  1.000000

 13 P  4.83000000E-02  1.000000

 14 D  3.00000000E+00  1.000000

 15 D  7.50000000E-01  1.000000

 16 D  1.87500000E-01  1.000000

 17 F  7.00000000E-01  1.000000



 Summary of "ao basis" -> "ao basis" (cartesian)
 ------------------------------------------------------------------------------
       Tag                 Description            Shells   Functions and Types
 ---------------- ------------------------------  ------  ---------------------
 Cl                    6-311++G(3df,3pd)            17       53   7s6p3d1f




 Summary of "ao basis" -> "ao basis" (cartesian)
 ------------------------------------------------------------------------------
       Tag                 Description            Shells   Functions and Types
 ---------------- ------------------------------  ------  ---------------------
 Cl                    6-311++G(3df,3pd)            17       53   7s6p3d1f


  Caching 1-el integrals 

            General Information
            -------------------
          SCF calculation type: DFT
          Wavefunction type:  spin polarized.
          No. of atoms     :     2
          No. of electrons :    33
           Alpha electrons :    17
            Beta electrons :    16
          Charge           :     1
          Spin multiplicity:     2
          Use of symmetry is: off; symmetry adaption is: off
          Maximum number of iterations: ***
          AO basis - number of functions:   106
                     number of shells:    34
          Convergence on energy requested: 1.00D-06
          Convergence on density requested: 1.00D-05
          Convergence on gradient requested: 5.00D-04

              XC Information
              --------------
                  TPSS metaGGA Exchange Functional  1.000          
             TPSS03 metaGGA Correlation Functional  1.000          

             Grid Information
             ----------------
          Grid used for XC integration:  medium    
          Radial quadrature: Mura-Knowles        
          Angular quadrature: Lebedev. 
          Tag              B.-S. Rad. Rad. Pts. Rad. Cut. Ang. Pts.
          ---              ---------- --------- --------- ---------
          Cl                  1.00       88          11.0       590
          Grid pruning is: on 
          Number of quadrature shells:   176
          Spatial weights used:  Erf1

          Convergence Information
          -----------------------
          Convergence aids based upon iterative change in 
          total energy or number of iterations. 
          Levelshifting, if invoked, occurs when the 
          HOMO/LUMO gap drops below (HL_TOL): 1.00D-02
          DIIS, if invoked, will attempt to extrapolate 
          using up to (NFOCK): 10 stored Fock matrices.

                    Damping( 0%)  Levelshifting(0.5)       DIIS
                  --------------- ------------------- ---------------
          dE  on:    start            ASAP                start   
          dE off:    2 iters        *** iters           *** iters 


      Screening Tolerance Information
      -------------------------------
          Density screening/tol_rho: 1.00D-10
          AO Gaussian exp screening on grid/accAOfunc:  14
          CD Gaussian exp screening on grid/accCDfunc:  20
          XC Gaussian exp screening on grid/accXCfunc:  20
          Schwarz screening/accCoul: 1.00D-08


      Superposition of Atomic Density Guess
      -------------------------------------

 Sum of atomic energies:        -918.95609548

 Renormalizing density from      34.00 to     33

      Non-variational initial energy
      ------------------------------

 Total energy =    -902.136915
 1-e energy   =   -1388.297795
 2-e energy   =     405.710038
 HOMO         =      -0.764864
 LUMO         =      -0.513624

   Time after variat. SCF:      0.5
   Time prior to 1st pass:      0.5

 Integral file          = ./Cl2+.aoints.00
 Record size in doubles =    65536    No. of integs per rec  =    43688
 Max. records in memory =       33    Max. records in file   = 11667412
 No. of bits per label  =        8    No. of bits per value  =       64


 #quartets = 1.534D+05 #integrals = 3.762D+06 #direct =  0.0% #cached =100.0%


File balance: exchanges=     0  moved=     0  time=   0.0


 Grid_pts file          = ./Cl2+.gridpts.00
 Record size in doubles =  12289        No. of grid_pts per rec  =   3070
 Max. records in memory =      4        Max. recs in file   =  62221142


           Memory utilization after 1st SCF pass: 
           Heap Space remaining (MW):       10.89            10891596
          Stack Space remaining (MW):       13.11            13106236

   convergence    iter        energy       DeltaE   RMS-Dens  Diis-err    time
 ---------------- ----- ----------------- --------- --------- ---------  ------
 d= 0,ls=0.0,diis     1   -920.0545113653 -1.00D+03  1.27D-02  1.23D+00     1.1
                                                     1.87D-02  1.26D+00
 d= 0,ls=0.5,diis     2   -920.0504479440  4.06D-03  3.85D-03  2.46D-01     1.4
                                                     3.58D-03  2.09D-01
 d= 0,ls=0.5,diis     3   -920.1077016491 -5.73D-02  1.05D-03  5.94D-03     1.7
                                                     5.84D-04  9.87D-04
 d= 0,ls=0.5,diis     4   -920.1094507593 -1.75D-03  2.04D-04  3.11D-04     1.9
                                                     1.54D-04  1.81D-04
 d= 0,ls=0.5,diis     5   -920.1100224684 -5.72D-04  8.82D-05  5.86D-05     2.2
                                                     7.69D-05  3.39D-05
  Resetting Diis
 d= 0,ls=0.5,diis     6   -920.1099948377  2.76D-05  3.87D-05  9.88D-06     2.5
                                                     2.94D-05  3.70D-06
 d= 0,ls=0.5,diis     7   -920.1100028363 -8.00D-06  1.58D-05  1.50D-06     2.8
                                                     1.10D-05  7.12D-07
 d= 0,ls=0.5,diis     8   -920.1100410145 -3.82D-05  7.93D-06  3.30D-07     3.1
                                                     6.87D-06  2.19D-07
 d= 0,ls=0.5,diis     9   -920.1100256402  1.54D-05  3.57D-06  9.17D-08     3.4
                                                     3.11D-06  6.73D-08
 d= 0,ls=0.5,diis    10   -920.1100300015 -4.36D-06  1.65D-06  1.62D-08     3.7
                                                     1.39D-06  1.13D-08
 d= 0,ls=0.5,diis    11   -920.1100332050 -3.20D-06  7.70D-07  2.94D-09     4.0
                                                     6.68D-07  2.19D-09
 d= 0,ls=0.5,diis    12   -920.1100342167 -1.01D-06  3.54D-07  5.89D-10     4.3
                                                     3.15D-07  4.76D-10
 d= 0,ls=0.5,diis    13   -920.1100346243 -4.08D-07  1.62D-07  1.29D-10     4.7
                                                     1.45D-07  1.09D-10


         Total DFT energy =     -920.110034804247
      One electron energy =    -1417.473650254738
           Coulomb energy =      473.035355092961
          Exchange energy =      -54.722645998843
       Correlation energy =       -1.399936364025
 Nuclear repulsion energy =       80.450842720398

 Numeric. integr. density =       33.000000144244

     Total iterative time =      4.4s



                    DFT Final Alpha Molecular Orbital Analysis
                    ------------------------------------------

 Vector    6  Occ=1.000000D+00  E=-7.524883D+00
              MO Center= -7.2D-15, -5.5D-15, -1.9D-09, r^2= 9.6D-01
   Bfn.  Coefficient  Atom+Function         Bfn.  Coefficient  Atom+Function  
  ----- ------------  ---------------      ----- ------------  ---------------
     9      0.872398  1 Cl pz                62      0.872398  2 Cl pz         
    12      0.236997  1 Cl pz                65      0.236997  2 Cl pz         

 Vector    7  Occ=1.000000D+00  E=-7.521401D+00
              MO Center=  2.4D-15,  2.8D-15,  3.9D-08, r^2= 9.6D-01
   Bfn.  Coefficient  Atom+Function         Bfn.  Coefficient  Atom+Function  
  ----- ------------  ---------------      ----- ------------  ---------------
     8      0.627675  1 Cl py                61      0.627675  2 Cl py         
     7      0.606191  1 Cl px                60      0.606191  2 Cl px         
    11      0.170513  1 Cl py                64      0.170513  2 Cl py         
    10      0.164677  1 Cl px                63      0.164677  2 Cl px         

 Vector    8  Occ=1.000000D+00  E=-7.521382D+00
              MO Center=  5.8D-15,  6.3D-15, -3.9D-08, r^2= 9.6D-01
   Bfn.  Coefficient  Atom+Function         Bfn.  Coefficient  Atom+Function  
  ----- ------------  ---------------      ----- ------------  ---------------
     8      0.627693  1 Cl py                61     -0.627693  2 Cl py         
     7      0.606208  1 Cl px                60     -0.606208  2 Cl px         
    11      0.170523  1 Cl py                64     -0.170523  2 Cl py         
    10      0.164686  1 Cl px                63     -0.164686  2 Cl px         

 Vector    9  Occ=1.000000D+00  E=-7.508165D+00
              MO Center=  7.2D-16, -9.9D-16,  2.9D-08, r^2= 9.6D-01
   Bfn.  Coefficient  Atom+Function         Bfn.  Coefficient  Atom+Function  
  ----- ------------  ---------------      ----- ------------  ---------------
     7      0.627880  1 Cl px                60      0.627880  2 Cl px         
     8     -0.606388  1 Cl py                61     -0.606388  2 Cl py         
    10      0.170593  1 Cl px                63      0.170593  2 Cl px         
    11     -0.164754  1 Cl py                64     -0.164754  2 Cl py         

 Vector   10  Occ=1.000000D+00  E=-7.508147D+00
              MO Center=  1.5D-15, -1.8D-15, -2.9D-08, r^2= 9.6D-01
   Bfn.  Coefficient  Atom+Function         Bfn.  Coefficient  Atom+Function  
  ----- ------------  ---------------      ----- ------------  ---------------
     7      0.627898  1 Cl px                60     -0.627898  2 Cl px         
     8     -0.606406  1 Cl py                61      0.606406  2 Cl py         
    10      0.170604  1 Cl px                63     -0.170604  2 Cl px         
    11     -0.164765  1 Cl py                64      0.164765  2 Cl py         

 Vector   11  Occ=1.000000D+00  E=-1.283249D+00
              MO Center=  1.5D-15,  1.6D-15,  2.3D-12, r^2= 1.1D+00
   Bfn.  Coefficient  Atom+Function         Bfn.  Coefficient  Atom+Function  
  ----- ------------  ---------------      ----- ------------  ---------------
     6      0.441914  1 Cl s                 59      0.441914  2 Cl s          
     5      0.379142  1 Cl s                 58      0.379142  2 Cl s          
     4     -0.295781  1 Cl s                 57     -0.295781  2 Cl s          

 Vector   12  Occ=1.000000D+00  E=-1.093155D+00
              MO Center=  1.2D-15,  3.4D-15, -1.4D-12, r^2= 2.0D+00
   Bfn.  Coefficient  Atom+Function         Bfn.  Coefficient  Atom+Function  
  ----- ------------  ---------------      ----- ------------  ---------------
     6      0.565929  1 Cl s                 59     -0.565929  2 Cl s          
     5      0.430974  1 Cl s                 58     -0.430974  2 Cl s          
     4     -0.337796  1 Cl s                 57      0.337796  2 Cl s          
     3     -0.156298  1 Cl s                 56      0.156298  2 Cl s          

 Vector   13  Occ=1.000000D+00  E=-8.263211D-01
              MO Center= -2.0D-15,  3.4D-15,  7.1D-13, r^2= 2.2D+00
   Bfn.  Coefficient  Atom+Function         Bfn.  Coefficient  Atom+Function  
  ----- ------------  ---------------      ----- ------------  ---------------
    18      0.520203  1 Cl pz                71     -0.520203  2 Cl pz         
     6     -0.273522  1 Cl s                 59     -0.273522  2 Cl s          
     9     -0.257128  1 Cl pz                62      0.257128  2 Cl pz         
    15      0.160157  1 Cl pz                68     -0.160157  2 Cl pz         

 Vector   14  Occ=1.000000D+00  E=-7.861354D-01
              MO Center= -4.4D-15, -4.3D-15,  6.2D-12, r^2= 1.7D+00
   Bfn.  Coefficient  Atom+Function         Bfn.  Coefficient  Atom+Function  
  ----- ------------  ---------------      ----- ------------  ---------------
    17      0.461916  1 Cl py                70      0.461916  2 Cl py         
    16      0.446105  1 Cl px                69      0.446105  2 Cl px         
     8     -0.182694  1 Cl py                61     -0.182694  2 Cl py         
     7     -0.176441  1 Cl px                60     -0.176441  2 Cl px         

 Vector   15  Occ=1.000000D+00  E=-7.543237D-01
              MO Center=  1.1D-15, -1.7D-15,  2.9D-12, r^2= 1.7D+00
   Bfn.  Coefficient  Atom+Function         Bfn.  Coefficient  Atom+Function  
  ----- ------------  ---------------      ----- ------------  ---------------
    16      0.470676  1 Cl px                69      0.470676  2 Cl px         
    17     -0.454566  1 Cl py                70     -0.454566  2 Cl py         
     7     -0.180861  1 Cl px                60     -0.180861  2 Cl px         
     8      0.174670  1 Cl py                61      0.174670  2 Cl py         

 Vector   16  Occ=1.000000D+00  E=-6.671471D-01
              MO Center= -5.1D-15, -5.7D-15, -5.8D-12, r^2= 2.1D+00
   Bfn.  Coefficient  Atom+Function         Bfn.  Coefficient  Atom+Function  
  ----- ------------  ---------------      ----- ------------  ---------------
    17      0.512933  1 Cl py                70     -0.512933  2 Cl py         
    16      0.495376  1 Cl px                69     -0.495376  2 Cl px         
     8     -0.200769  1 Cl py                61      0.200769  2 Cl py         
     7     -0.193897  1 Cl px                60      0.193897  2 Cl px         

 Vector   17  Occ=1.000000D+00  E=-6.296280D-01
              MO Center= -1.5D-16,  9.7D-16, -2.7D-12, r^2= 2.1D+00
   Bfn.  Coefficient  Atom+Function         Bfn.  Coefficient  Atom+Function  
  ----- ------------  ---------------      ----- ------------  ---------------
    16      0.522857  1 Cl px                69     -0.522857  2 Cl px         
    17     -0.504961  1 Cl py                70      0.504961  2 Cl py         
     7     -0.199760  1 Cl px                60      0.199760  2 Cl px         
     8      0.192922  1 Cl py                61     -0.192922  2 Cl py         

 Vector   18  Occ=0.000000D+00  E=-4.967793D-01
              MO Center=  3.4D-15,  3.7D-15, -1.2D-12, r^2= 2.3D+00
   Bfn.  Coefficient  Atom+Function         Bfn.  Coefficient  Atom+Function  
  ----- ------------  ---------------      ----- ------------  ---------------
    18      0.794332  1 Cl pz                71      0.794332  2 Cl pz         
     9     -0.278633  1 Cl pz                62     -0.278633  2 Cl pz         
     6      0.247318  1 Cl s                 59     -0.247318  2 Cl s          
     5      0.177090  1 Cl s                 58     -0.177090  2 Cl s          

 Vector   19  Occ=0.000000D+00  E=-2.449666D-01
              MO Center=  8.8D-15,  1.2D-15,  1.4D-12, r^2= 4.0D+00
   Bfn.  Coefficient  Atom+Function         Bfn.  Coefficient  Atom+Function  
  ----- ------------  ---------------      ----- ------------  ---------------
    22      0.432619  1 Cl s                 75      0.432619  2 Cl s          
    37     -0.223091  1 Cl dzz               90     -0.223091  2 Cl dzz        
    43     -0.214184  1 Cl dzz               96     -0.214184  2 Cl dzz        
     5     -0.162404  1 Cl s                 58     -0.162404  2 Cl s          

 Vector   20  Occ=0.000000D+00  E=-2.007209D-01
              MO Center=  4.3D-15,  5.6D-15,  1.4D-12, r^2= 3.0D+00
   Bfn.  Coefficient  Atom+Function         Bfn.  Coefficient  Atom+Function  
  ----- ------------  ---------------      ----- ------------  ---------------
    42      0.562926  1 Cl dyz               95     -0.562926  2 Cl dyz        
    40      0.543657  1 Cl dxz               93     -0.543657  2 Cl dxz        
    36      0.298713  1 Cl dyz               89     -0.298713  2 Cl dyz        
    34      0.288488  1 Cl dxz               87     -0.288488  2 Cl dxz        

 Vector   21  Occ=0.000000D+00  E=-1.825605D-01
              MO Center=  3.9D-14,  7.4D-14,  9.4D-13, r^2= 3.2D+00
   Bfn.  Coefficient  Atom+Function         Bfn.  Coefficient  Atom+Function  
  ----- ------------  ---------------      ----- ------------  ---------------
    40      0.564810  1 Cl dxz               93     -0.564810  2 Cl dxz        
    42     -0.545477  1 Cl dyz               95      0.545477  2 Cl dyz        
    34      0.285789  1 Cl dxz               87     -0.285789  2 Cl dxz        
    36     -0.276007  1 Cl dyz               89      0.276007  2 Cl dyz        

 Vector   22  Occ=0.000000D+00  E=-1.784185D-01
              MO Center=  1.8D-14, -2.0D-14,  3.1D-12, r^2= 2.9D+00
   Bfn.  Coefficient  Atom+Function         Bfn.  Coefficient  Atom+Function  
  ----- ------------  ---------------      ----- ------------  ---------------
    39      0.868434  1 Cl dxy               92      0.868434  2 Cl dxy        
    33      0.329011  1 Cl dxy               86      0.329011  2 Cl dxy        

 Vector   23  Occ=0.000000D+00  E=-1.784133D-01
              MO Center= -5.2D-14, -6.5D-14,  3.1D-12, r^2= 2.8D+00
   Bfn.  Coefficient  Atom+Function         Bfn.  Coefficient  Atom+Function  
  ----- ------------  ---------------      ----- ------------  ---------------
    38      0.441881  1 Cl dxx               41     -0.441927  1 Cl dyy        
    91      0.441881  2 Cl dxx               94     -0.441927  2 Cl dyy        
    32      0.166052  1 Cl dxx               35     -0.166115  1 Cl dyy        
    85      0.166052  2 Cl dxx               88     -0.166115  2 Cl dyy        

 Vector   24  Occ=0.000000D+00  E=-1.379172D-01
              MO Center=  1.3D-14,  9.6D-15,  1.8D-11, r^2= 9.3D+00
   Bfn.  Coefficient  Atom+Function         Bfn.  Coefficient  Atom+Function  
  ----- ------------  ---------------      ----- ------------  ---------------
    22      0.669373  1 Cl s                 75      0.669373  2 Cl s          
    25     -0.528412  1 Cl pz                78      0.528412  2 Cl pz         
     6     -0.291256  1 Cl s                 59     -0.291256  2 Cl s          
    43      0.205660  1 Cl dzz               96      0.205660  2 Cl dzz        
     5     -0.169764  1 Cl s                 58     -0.169764  2 Cl s          

 Vector   25  Occ=0.000000D+00  E=-1.285883D-01
              MO Center= -1.9D-15,  4.6D-16, -2.7D-11, r^2= 1.0D+01
   Bfn.  Coefficient  Atom+Function         Bfn.  Coefficient  Atom+Function  
  ----- ------------  ---------------      ----- ------------  ---------------
    22      0.965945  1 Cl s                 75     -0.965945  2 Cl s          
    25     -0.442563  1 Cl pz                78     -0.442563  2 Cl pz         
    21      0.418595  1 Cl pz                74      0.418595  2 Cl pz         
     5     -0.169182  1 Cl s                 58      0.169182  2 Cl s          
    18      0.154941  1 Cl pz                71      0.154941  2 Cl pz         

 Vector   26  Occ=0.000000D+00  E=-1.204116D-01
              MO Center= -1.8D-14, -9.2D-15,  3.3D-12, r^2= 8.7D+00
   Bfn.  Coefficient  Atom+Function         Bfn.  Coefficient  Atom+Function  
  ----- ------------  ---------------      ----- ------------  ---------------
    24      0.465177  1 Cl py                77      0.465177  2 Cl py         
    23      0.449255  1 Cl px                76      0.449255  2 Cl px         

 Vector   27  Occ=0.000000D+00  E=-1.128515D-01
              MO Center=  5.3D-15, -5.5D-16,  2.1D-12, r^2= 8.6D+00
   Bfn.  Coefficient  Atom+Function         Bfn.  Coefficient  Atom+Function  
  ----- ------------  ---------------      ----- ------------  ---------------
    23      0.474499  1 Cl px                76      0.474499  2 Cl px         
    24     -0.458257  1 Cl py                77     -0.458257  2 Cl py         

 Vector   28  Occ=0.000000D+00  E=-7.592344D-02
              MO Center= -2.9D-14, -2.6D-14, -4.3D-12, r^2= 1.1D+01
   Bfn.  Coefficient  Atom+Function         Bfn.  Coefficient  Atom+Function  
  ----- ------------  ---------------      ----- ------------  ---------------
    24      1.039572  1 Cl py                77     -1.039572  2 Cl py         
    23      1.003988  1 Cl px                76     -1.003988  2 Cl px         
    42     -0.284154  1 Cl dyz               95     -0.284154  2 Cl dyz        
    40     -0.274427  1 Cl dxz               93     -0.274427  2 Cl dxz        
    20     -0.207347  1 Cl py                73      0.207347  2 Cl py         

 Vector   29  Occ=0.000000D+00  E=-7.051055D-02
              MO Center=  1.6D-14,  1.5D-14, -2.9D-12, r^2= 1.1D+01
   Bfn.  Coefficient  Atom+Function         Bfn.  Coefficient  Atom+Function  
  ----- ------------  ---------------      ----- ------------  ---------------
    23      1.068508  1 Cl px                76     -1.068508  2 Cl px         
    24     -1.031934  1 Cl py                77      1.031934  2 Cl py         
    40     -0.268080  1 Cl dxz               93     -0.268080  2 Cl dxz        
    42      0.258904  1 Cl dyz               95      0.258904  2 Cl dyz        
    19     -0.228698  1 Cl px                72      0.228698  2 Cl px         

 Vector   30  Occ=0.000000D+00  E=-4.709496D-02
              MO Center=  1.5D-14,  1.6D-14, -3.9D-12, r^2= 3.2D+00
   Bfn.  Coefficient  Atom+Function         Bfn.  Coefficient  Atom+Function  
  ----- ------------  ---------------      ----- ------------  ---------------
    39      1.118400  1 Cl dxy               92     -1.118400  2 Cl dxy        
    22      1.039741  1 Cl s                 75     -1.039741  2 Cl s          
    25      0.476799  1 Cl pz                78      0.476799  2 Cl pz         
    33      0.398957  1 Cl dxy               86     -0.398957  2 Cl dxy        

 Vector   31  Occ=0.000000D+00  E=-4.681953D-02
              MO Center= -1.4D-14, -1.5D-14, -3.1D-12, r^2= 3.1D+00
   Bfn.  Coefficient  Atom+Function         Bfn.  Coefficient  Atom+Function  
  ----- ------------  ---------------      ----- ------------  ---------------
    38      0.564348  1 Cl dxx               41     -0.564348  1 Cl dyy        
    91     -0.564348  2 Cl dxx               94      0.564348  2 Cl dyy        
    32      0.201218  1 Cl dxx               35     -0.201218  1 Cl dyy        
    85     -0.201218  2 Cl dxx               88      0.201218  2 Cl dyy        

 Vector   32  Occ=0.000000D+00  E=-2.159036D-02
              MO Center=  8.3D-15,  1.5D-14, -5.9D-11, r^2= 1.2D+01
   Bfn.  Coefficient  Atom+Function         Bfn.  Coefficient  Atom+Function  
  ----- ------------  ---------------      ----- ------------  ---------------
    22     10.136132  1 Cl s                 75    -10.136132  2 Cl s          
    25      4.446709  1 Cl pz                78      4.446709  2 Cl pz         
     6     -0.480954  1 Cl s                 59      0.480954  2 Cl s          
    43     -0.460451  1 Cl dzz               96      0.460451  2 Cl dzz        
    18     -0.313487  1 Cl pz                71     -0.313487  2 Cl pz         

 Vector   33  Occ=0.000000D+00  E= 1.422261D-02
              MO Center= -1.3D-14, -1.2D-15,  5.3D-11, r^2= 1.0D+01
   Bfn.  Coefficient  Atom+Function         Bfn.  Coefficient  Atom+Function  
  ----- ------------  ---------------      ----- ------------  ---------------
    25      1.440685  1 Cl pz                78     -1.440685  2 Cl pz         
    21     -0.569149  1 Cl pz                74      0.569149  2 Cl pz         
    38     -0.405132  1 Cl dxx               41     -0.403890  1 Cl dyy        
    91     -0.405132  2 Cl dxx               94     -0.403890  2 Cl dyy        
    22      0.298736  1 Cl s                 75      0.298736  2 Cl s          

 Vector   34  Occ=0.000000D+00  E= 1.022709D-01
              MO Center=  6.1D-14,  6.3D-14,  1.2D-12, r^2= 6.4D+00
   Bfn.  Coefficient  Atom+Function         Bfn.  Coefficient  Atom+Function  
  ----- ------------  ---------------      ----- ------------  ---------------
    42      1.020817  1 Cl dyz               95      1.020817  2 Cl dyz        
    40      0.985876  1 Cl dxz               93      0.985876  2 Cl dxz        
    24      0.889466  1 Cl py                77     -0.889466  2 Cl py         
    23      0.859021  1 Cl px                76     -0.859021  2 Cl px         
    17      0.492870  1 Cl py                70     -0.492870  2 Cl py         

 Vector   35  Occ=0.000000D+00  E= 1.167279D-01
              MO Center=  1.2D-13, -1.2D-13,  1.1D-12, r^2= 6.5D+00
   Bfn.  Coefficient  Atom+Function         Bfn.  Coefficient  Atom+Function  
  ----- ------------  ---------------      ----- ------------  ---------------
    40      1.012138  1 Cl dxz               93      1.012138  2 Cl dxz        
    42     -0.977494  1 Cl dyz               95     -0.977494  2 Cl dyz        
    23      0.913771  1 Cl px                76     -0.913771  2 Cl px         
    24     -0.882494  1 Cl py                77      0.882494  2 Cl py         
    16      0.538910  1 Cl px                69     -0.538910  2 Cl px         

 Vector   36  Occ=0.000000D+00  E= 1.259999D-01
              MO Center=  1.6D-13,  2.5D-14,  6.0D-12, r^2= 7.9D+00
   Bfn.  Coefficient  Atom+Function         Bfn.  Coefficient  Atom+Function  
  ----- ------------  ---------------      ----- ------------  ---------------
    22      1.222787  1 Cl s                 75      1.222787  2 Cl s          
     6      1.131952  1 Cl s                 43     -1.135011  1 Cl dzz        
    59      1.131952  2 Cl s                 96     -1.135011  2 Cl dzz        
    38     -0.869126  1 Cl dxx               41     -0.869705  1 Cl dyy        
    91     -0.869126  2 Cl dxx               94     -0.869705  2 Cl dyy        

 Vector   37  Occ=0.000000D+00  E= 1.341460D-01
              MO Center= -1.5D-13,  3.2D-14,  8.0D-12, r^2= 1.2D+01
   Bfn.  Coefficient  Atom+Function         Bfn.  Coefficient  Atom+Function  
  ----- ------------  ---------------      ----- ------------  ---------------
    21      4.478466  1 Cl pz                74      4.478466  2 Cl pz         
    22      2.095770  1 Cl s                 75     -2.095770  2 Cl s          
     6      1.685807  1 Cl s                 59     -1.685807  2 Cl s          
    43      1.269170  1 Cl dzz               96     -1.269170  2 Cl dzz        
    25     -0.785826  1 Cl pz                78     -0.785826  2 Cl pz         

 Vector   38  Occ=0.000000D+00  E= 1.438207D-01
              MO Center= -8.8D-14, -8.9D-14, -9.4D-13, r^2= 8.4D+00
   Bfn.  Coefficient  Atom+Function         Bfn.  Coefficient  Atom+Function  
  ----- ------------  ---------------      ----- ------------  ---------------
    20      1.152339  1 Cl py                73      1.152339  2 Cl py         
    19      1.112893  1 Cl px                72      1.112893  2 Cl px         
    17     -0.984245  1 Cl py                70     -0.984245  2 Cl py         
    16     -0.950554  1 Cl px                69     -0.950554  2 Cl px         
    24     -0.691998  1 Cl py                77     -0.691998  2 Cl py         

 Vector   39  Occ=0.000000D+00  E= 1.520770D-01
              MO Center= -7.3D-14,  7.2D-14, -1.0D-12, r^2= 8.3D+00
   Bfn.  Coefficient  Atom+Function         Bfn.  Coefficient  Atom+Function  
  ----- ------------  ---------------      ----- ------------  ---------------
    19      1.153524  1 Cl px                72      1.153524  2 Cl px         
    20     -1.114038  1 Cl py                73     -1.114038  2 Cl py         
    16     -1.007349  1 Cl px                69     -1.007349  2 Cl px         
    17      0.972866  1 Cl py                70      0.972866  2 Cl py         
    23     -0.684928  1 Cl px                76     -0.684928  2 Cl px         

 Vector   40  Occ=0.000000D+00  E= 1.822491D-01
              MO Center= -5.1D-14, -2.2D-14, -8.8D-12, r^2= 8.0D+00
   Bfn.  Coefficient  Atom+Function         Bfn.  Coefficient  Atom+Function  
  ----- ------------  ---------------      ----- ------------  ---------------
    22     11.876781  1 Cl s                 75    -11.876781  2 Cl s          
    25      4.492651  1 Cl pz                78      4.492651  2 Cl pz         
    38     -1.010700  1 Cl dxx               41     -1.009390  1 Cl dyy        
    91      1.010700  2 Cl dxx               94      1.009390  2 Cl dyy        
    18      0.743607  1 Cl pz                71      0.743607  2 Cl pz         

 Vector   41  Occ=0.000000D+00  E= 2.229614D-01
              MO Center= -2.6D-15, -1.6D-15,  1.2D-11, r^2= 6.4D+00
   Bfn.  Coefficient  Atom+Function         Bfn.  Coefficient  Atom+Function  
  ----- ------------  ---------------      ----- ------------  ---------------
    21     -1.972334  1 Cl pz                74      1.972334  2 Cl pz         
    18      1.859344  1 Cl pz                71     -1.859344  2 Cl pz         
    25      1.092765  1 Cl pz                78     -1.092765  2 Cl pz         
     6      1.084280  1 Cl s                 59      1.084280  2 Cl s          
    43     -0.754476  1 Cl dzz               96     -0.754476  2 Cl dzz        

 Vector   42  Occ=0.000000D+00  E= 2.316033D-01
              MO Center=  1.9D-14,  2.2D-14, -1.1D-12, r^2= 7.1D+00
   Bfn.  Coefficient  Atom+Function         Bfn.  Coefficient  Atom+Function  
  ----- ------------  ---------------      ----- ------------  ---------------
    20      1.878319  1 Cl py                73     -1.878319  2 Cl py         
    19      1.814024  1 Cl px                72     -1.814024  2 Cl px         
    24     -1.175916  1 Cl py                77      1.175916  2 Cl py         
    23     -1.135664  1 Cl px                76      1.135664  2 Cl px         
    42      0.899018  1 Cl dyz               95      0.899018  2 Cl dyz        

 Vector   43  Occ=0.000000D+00  E= 2.428368D-01
              MO Center= -2.9D-16, -4.5D-15, -5.3D-13, r^2= 6.8D+00
   Bfn.  Coefficient  Atom+Function         Bfn.  Coefficient  Atom+Function  
  ----- ------------  ---------------      ----- ------------  ---------------
    19      1.872302  1 Cl px                72     -1.872302  2 Cl px         
    20     -1.808214  1 Cl py                73      1.808214  2 Cl py         
    23     -1.133707  1 Cl px                76      1.133707  2 Cl px         
    24      1.094901  1 Cl py                77     -1.094901  2 Cl py         
    40      0.956248  1 Cl dxz               93      0.956248  2 Cl dxz        

 Vector   44  Occ=0.000000D+00  E= 5.045073D-01
              MO Center=  1.4D-14,  1.7D-14,  1.8D-11, r^2= 7.7D+00
   Bfn.  Coefficient  Atom+Function         Bfn.  Coefficient  Atom+Function  
  ----- ------------  ---------------      ----- ------------  ---------------
    21      6.709069  1 Cl pz                74      6.709069  2 Cl pz         
    43      4.434065  1 Cl dzz               96     -4.434065  2 Cl dzz        
    22     -3.801822  1 Cl s                 75      3.801822  2 Cl s          
     6      2.933623  1 Cl s                 59     -2.933623  2 Cl s          
    25     -2.543408  1 Cl pz                78     -2.543408  2 Cl pz         


                     DFT Final Beta Molecular Orbital Analysis
                     -----------------------------------------

 Vector    6  Occ=1.000000D+00  E=-7.523164D+00
              MO Center=  4.5D-16,  1.4D-15, -1.6D-09, r^2= 9.6D-01
   Bfn.  Coefficient  Atom+Function         Bfn.  Coefficient  Atom+Function  
  ----- ------------  ---------------      ----- ------------  ---------------
     9      0.872481  1 Cl pz                62      0.872481  2 Cl pz         
    12      0.237049  1 Cl pz                65      0.237049  2 Cl pz         

 Vector    7  Occ=1.000000D+00  E=-7.511678D+00
              MO Center= -2.7D-16, -1.6D-16,  2.8D-08, r^2= 9.6D-01
   Bfn.  Coefficient  Atom+Function         Bfn.  Coefficient  Atom+Function  
  ----- ------------  ---------------      ----- ------------  ---------------
     8      0.627729  1 Cl py                61      0.627729  2 Cl py         
     7      0.606243  1 Cl px                60      0.606243  2 Cl px         
    11      0.170507  1 Cl py                64      0.170507  2 Cl py         
    10      0.164671  1 Cl px                63      0.164671  2 Cl px         

 Vector    8  Occ=1.000000D+00  E=-7.511659D+00
              MO Center= -9.4D-16, -9.1D-16, -2.8D-08, r^2= 9.6D-01
   Bfn.  Coefficient  Atom+Function         Bfn.  Coefficient  Atom+Function  
  ----- ------------  ---------------      ----- ------------  ---------------
     8      0.627745  1 Cl py                61     -0.627745  2 Cl py         
     7      0.606258  1 Cl px                60     -0.606258  2 Cl px         
    11      0.170516  1 Cl py                64     -0.170516  2 Cl py         
    10      0.164680  1 Cl px                63     -0.164680  2 Cl px         

 Vector    9  Occ=1.000000D+00  E=-7.506406D+00
              MO Center=  8.9D-17, -9.1D-17,  2.8D-08, r^2= 9.6D-01
   Bfn.  Coefficient  Atom+Function         Bfn.  Coefficient  Atom+Function  
  ----- ------------  ---------------      ----- ------------  ---------------
     7      0.627938  1 Cl px                60      0.627938  2 Cl px         
     8     -0.606445  1 Cl py                61     -0.606445  2 Cl py         
    10      0.170627  1 Cl px                63      0.170627  2 Cl px         
    11     -0.164787  1 Cl py                64     -0.164787  2 Cl py         

 Vector   10  Occ=1.000000D+00  E=-7.506388D+00
              MO Center=  6.9D-16, -7.1D-16, -2.8D-08, r^2= 9.6D-01
   Bfn.  Coefficient  Atom+Function         Bfn.  Coefficient  Atom+Function  
  ----- ------------  ---------------      ----- ------------  ---------------
     7      0.627958  1 Cl px                60     -0.627958  2 Cl px         
     8     -0.606464  1 Cl py                61      0.606464  2 Cl py         
    10      0.170639  1 Cl px                63     -0.170639  2 Cl px         
    11     -0.164798  1 Cl py                64      0.164798  2 Cl py         

 Vector   11  Occ=1.000000D+00  E=-1.270623D+00
              MO Center=  5.3D-16,  7.5D-15,  9.7D-13, r^2= 1.1D+00
   Bfn.  Coefficient  Atom+Function         Bfn.  Coefficient  Atom+Function  
  ----- ------------  ---------------      ----- ------------  ---------------
     6      0.442210  1 Cl s                 59      0.442210  2 Cl s          
     5      0.364336  1 Cl s                 58      0.364336  2 Cl s          
     4     -0.292589  1 Cl s                 57     -0.292589  2 Cl s          

 Vector   12  Occ=1.000000D+00  E=-1.070486D+00
              MO Center= -8.6D-16,  3.1D-15, -3.6D-13, r^2= 2.0D+00
   Bfn.  Coefficient  Atom+Function         Bfn.  Coefficient  Atom+Function  
  ----- ------------  ---------------      ----- ------------  ---------------
     6      0.573538  1 Cl s                 59     -0.573538  2 Cl s          
     5      0.417752  1 Cl s                 58     -0.417752  2 Cl s          
     4     -0.337474  1 Cl s                 57      0.337474  2 Cl s          
     3     -0.154037  1 Cl s                 56      0.154037  2 Cl s          

 Vector   13  Occ=1.000000D+00  E=-8.188971D-01
              MO Center= -2.6D-15,  6.3D-15,  8.4D-13, r^2= 2.2D+00
   Bfn.  Coefficient  Atom+Function         Bfn.  Coefficient  Atom+Function  
  ----- ------------  ---------------      ----- ------------  ---------------
    18      0.529550  1 Cl pz                71     -0.529550  2 Cl pz         
     6     -0.280269  1 Cl s                 59     -0.280269  2 Cl s          
     9     -0.254552  1 Cl pz                62      0.254552  2 Cl pz         
    15      0.154416  1 Cl pz                68     -0.154416  2 Cl pz         

 Vector   14  Occ=1.000000D+00  E=-7.513203D-01
              MO Center=  6.2D-15, -5.6D-15,  2.5D-12, r^2= 1.7D+00
   Bfn.  Coefficient  Atom+Function         Bfn.  Coefficient  Atom+Function  
  ----- ------------  ---------------      ----- ------------  ---------------
    16      0.473285  1 Cl px                69      0.473285  2 Cl px         
    17     -0.457085  1 Cl py                70     -0.457085  2 Cl py         
     7     -0.179950  1 Cl px                60     -0.179950  2 Cl px         
     8      0.173791  1 Cl py                61      0.173791  2 Cl py         

 Vector   15  Occ=1.000000D+00  E=-7.509369D-01
              MO Center= -5.4D-15, -5.7D-15, -5.7D-12, r^2= 1.7D+00
   Bfn.  Coefficient  Atom+Function         Bfn.  Coefficient  Atom+Function  
  ----- ------------  ---------------      ----- ------------  ---------------
    17      0.473316  1 Cl py                70      0.473316  2 Cl py         
    16      0.457115  1 Cl px                69      0.457115  2 Cl px         
     8     -0.176714  1 Cl py                61     -0.176714  2 Cl py         
     7     -0.170666  1 Cl px                60     -0.170666  2 Cl px         

 Vector   16  Occ=1.000000D+00  E=-6.252929D-01
              MO Center=  3.8D-15, -3.7D-15, -2.3D-12, r^2= 2.1D+00
   Bfn.  Coefficient  Atom+Function         Bfn.  Coefficient  Atom+Function  
  ----- ------------  ---------------      ----- ------------  ---------------
    16      0.526603  1 Cl px                69     -0.526603  2 Cl px         
    17     -0.508578  1 Cl py                70      0.508578  2 Cl py         
     7     -0.198843  1 Cl px                60      0.198843  2 Cl px         
     8      0.192037  1 Cl py                61     -0.192037  2 Cl py         

 Vector   17  Occ=0.000000D+00  E=-6.203298D-01
              MO Center= -1.6D-15, -1.8D-15,  5.8D-12, r^2= 2.1D+00
   Bfn.  Coefficient  Atom+Function         Bfn.  Coefficient  Atom+Function  
  ----- ------------  ---------------      ----- ------------  ---------------
    17      0.529956  1 Cl py                70     -0.529956  2 Cl py         
    16      0.511816  1 Cl px                69     -0.511816  2 Cl px         
     8     -0.196230  1 Cl py                61      0.196230  2 Cl py         
     7     -0.189513  1 Cl px                60      0.189513  2 Cl px         

 Vector   18  Occ=0.000000D+00  E=-4.890936D-01
              MO Center= -2.6D-15,  4.3D-15, -1.2D-12, r^2= 2.3D+00
   Bfn.  Coefficient  Atom+Function         Bfn.  Coefficient  Atom+Function  
  ----- ------------  ---------------      ----- ------------  ---------------
    18      0.791251  1 Cl pz                71      0.791251  2 Cl pz         
     9     -0.277125  1 Cl pz                62     -0.277125  2 Cl pz         
     6      0.251929  1 Cl s                 59     -0.251929  2 Cl s          
     5      0.177392  1 Cl s                 58     -0.177392  2 Cl s          
    43     -0.151925  1 Cl dzz               96      0.151925  2 Cl dzz        

 Vector   19  Occ=0.000000D+00  E=-2.405018D-01
              MO Center= -2.1D-15,  8.7D-15,  1.0D-12, r^2= 4.1D+00
   Bfn.  Coefficient  Atom+Function         Bfn.  Coefficient  Atom+Function  
  ----- ------------  ---------------      ----- ------------  ---------------
    22      0.444253  1 Cl s                 75      0.444253  2 Cl s          
    37     -0.222745  1 Cl dzz               90     -0.222745  2 Cl dzz        
    43     -0.209515  1 Cl dzz               96     -0.209515  2 Cl dzz        
     5     -0.159532  1 Cl s                 58     -0.159532  2 Cl s          

 Vector   20  Occ=0.000000D+00  E=-1.852117D-01
              MO Center= -6.3D-15, -4.1D-15,  7.7D-13, r^2= 3.2D+00
   Bfn.  Coefficient  Atom+Function         Bfn.  Coefficient  Atom+Function  
  ----- ------------  ---------------      ----- ------------  ---------------
    42      0.565620  1 Cl dyz               95     -0.565620  2 Cl dyz        
    40      0.546258  1 Cl dxz               93     -0.546258  2 Cl dxz        
    36      0.286249  1 Cl dyz               89     -0.286249  2 Cl dyz        
    34      0.276450  1 Cl dxz               87     -0.276450  2 Cl dxz        
    17     -0.152888  1 Cl py                70     -0.152888  2 Cl py         

 Vector   21  Occ=0.000000D+00  E=-1.826698D-01
              MO Center= -1.2D-14,  1.1D-14,  9.0D-13, r^2= 3.2D+00
   Bfn.  Coefficient  Atom+Function         Bfn.  Coefficient  Atom+Function  
  ----- ------------  ---------------      ----- ------------  ---------------
    40      0.565663  1 Cl dxz               93     -0.565663  2 Cl dxz        
    42     -0.546299  1 Cl dyz               95      0.546299  2 Cl dyz        
    34      0.285216  1 Cl dxz               87     -0.285216  2 Cl dxz        
    36     -0.275452  1 Cl dyz               89      0.275452  2 Cl dyz        

 Vector   22  Occ=0.000000D+00  E=-1.663939D-01
              MO Center= -7.6D-15, -2.0D-15,  1.7D-12, r^2= 2.8D+00
   Bfn.  Coefficient  Atom+Function         Bfn.  Coefficient  Atom+Function  
  ----- ------------  ---------------      ----- ------------  ---------------
    38      0.447196  1 Cl dxx               41     -0.447196  1 Cl dyy        
    91      0.447196  2 Cl dxx               94     -0.447196  2 Cl dyy        
    32      0.157857  1 Cl dxx               35     -0.157857  1 Cl dyy        
    85      0.157857  2 Cl dxx               88     -0.157857  2 Cl dyy        

 Vector   23  Occ=0.000000D+00  E=-1.653923D-01
              MO Center= -1.9D-14,  1.7D-14,  1.5D-12, r^2= 2.8D+00
   Bfn.  Coefficient  Atom+Function         Bfn.  Coefficient  Atom+Function  
  ----- ------------  ---------------      ----- ------------  ---------------
    39      0.893877  1 Cl dxy               92      0.893877  2 Cl dxy        
    33      0.315844  1 Cl dxy               86      0.315844  2 Cl dxy        

 Vector   24  Occ=0.000000D+00  E=-1.330896D-01
              MO Center=  6.2D-14,  1.0D-15,  1.1D-11, r^2= 9.6D+00
   Bfn.  Coefficient  Atom+Function         Bfn.  Coefficient  Atom+Function  
  ----- ------------  ---------------      ----- ------------  ---------------
    22      0.687143  1 Cl s                 75      0.687143  2 Cl s          
    25     -0.551437  1 Cl pz                78      0.551437  2 Cl pz         
     6     -0.296200  1 Cl s                 59     -0.296200  2 Cl s          
    43      0.201323  1 Cl dzz               96      0.201323  2 Cl dzz        
     5     -0.165102  1 Cl s                 58     -0.165102  2 Cl s          

 Vector   25  Occ=0.000000D+00  E=-1.244112D-01
              MO Center=  2.5D-14,  2.6D-14, -2.0D-11, r^2= 1.0D+01
   Bfn.  Coefficient  Atom+Function         Bfn.  Coefficient  Atom+Function  
  ----- ------------  ---------------      ----- ------------  ---------------
    22      0.822992  1 Cl s                 75     -0.822992  2 Cl s          
    25     -0.515645  1 Cl pz                78     -0.515645  2 Cl pz         
    21      0.450408  1 Cl pz                74      0.450408  2 Cl pz         
     5     -0.162469  1 Cl s                 18      0.163052  1 Cl pz         
    58      0.162469  2 Cl s                 71      0.163052  2 Cl pz         

 Vector   26  Occ=0.000000D+00  E=-1.122880D-01
              MO Center= -1.9D-14, -2.8D-14,  7.9D-13, r^2= 8.7D+00
   Bfn.  Coefficient  Atom+Function         Bfn.  Coefficient  Atom+Function  
  ----- ------------  ---------------      ----- ------------  ---------------
    24      0.478084  1 Cl py                77      0.478084  2 Cl py         
    23      0.461729  1 Cl px                76      0.461729  2 Cl px         

 Vector   27  Occ=0.000000D+00  E=-1.116354D-01
              MO Center=  7.3D-15,  2.3D-15,  1.7D-12, r^2= 8.7D+00
   Bfn.  Coefficient  Atom+Function         Bfn.  Coefficient  Atom+Function  
  ----- ------------  ---------------      ----- ------------  ---------------
    23      0.477102  1 Cl px                76      0.477102  2 Cl px         
    24     -0.460781  1 Cl py                77     -0.460781  2 Cl py         

 Vector   28  Occ=0.000000D+00  E=-6.898228D-02
              MO Center=  4.2D-15, -1.5D-14, -2.4D-12, r^2= 1.1D+01
   Bfn.  Coefficient  Atom+Function         Bfn.  Coefficient  Atom+Function  
  ----- ------------  ---------------      ----- ------------  ---------------
    23      1.073904  1 Cl px                76     -1.073904  2 Cl px         
    24     -1.037128  1 Cl py                77      1.037128  2 Cl py         
    40     -0.269551  1 Cl dxz               93     -0.269551  2 Cl dxz        
    42      0.260320  1 Cl dyz               95      0.260320  2 Cl dyz        
    19     -0.235625  1 Cl px                72      0.235625  2 Cl px         

 Vector   29  Occ=0.000000D+00  E=-6.678761D-02
              MO Center= -4.0D-14, -3.7D-14, -1.2D-12, r^2= 1.1D+01
   Bfn.  Coefficient  Atom+Function         Bfn.  Coefficient  Atom+Function  
  ----- ------------  ---------------      ----- ------------  ---------------
    24      1.080304  1 Cl py                77     -1.080304  2 Cl py         
    23      1.043310  1 Cl px                76     -1.043310  2 Cl px         
    42     -0.267262  1 Cl dyz               95     -0.267262  2 Cl dyz        
    40     -0.258109  1 Cl dxz               93     -0.258109  2 Cl dxz        
    20     -0.241174  1 Cl py                73      0.241174  2 Cl py         

 Vector   30  Occ=0.000000D+00  E=-3.098592D-02
              MO Center=  5.8D-15, -9.6D-16, -1.7D-12, r^2= 3.1D+00
   Bfn.  Coefficient  Atom+Function         Bfn.  Coefficient  Atom+Function  
  ----- ------------  ---------------      ----- ------------  ---------------
    38      0.573332  1 Cl dxx               41     -0.573332  1 Cl dyy        
    91     -0.573332  2 Cl dxx               94      0.573332  2 Cl dyy        
    32      0.192035  1 Cl dxx               35     -0.192035  1 Cl dyy        
    85     -0.192035  2 Cl dxx               88      0.192035  2 Cl dyy        

 Vector   31  Occ=0.000000D+00  E=-2.970100D-02
              MO Center= -6.9D-16,  7.5D-16, -1.5D-12, r^2= 3.1D+00
   Bfn.  Coefficient  Atom+Function         Bfn.  Coefficient  Atom+Function  
  ----- ------------  ---------------      ----- ------------  ---------------
    39      1.145705  1 Cl dxy               92     -1.145705  2 Cl dxy        
    33      0.384836  1 Cl dxy               86     -0.384836  2 Cl dxy        

 Vector   32  Occ=0.000000D+00  E=-1.884339D-02
              MO Center=  1.2D-14,  3.0D-14, -5.6D-11, r^2= 1.2D+01
   Bfn.  Coefficient  Atom+Function         Bfn.  Coefficient  Atom+Function  
  ----- ------------  ---------------      ----- ------------  ---------------
    22     10.307885  1 Cl s                 75    -10.307885  2 Cl s          
    25      4.508659  1 Cl pz                78      4.508659  2 Cl pz         
     6     -0.491125  1 Cl s                 59      0.491125  2 Cl s          
    43     -0.472808  1 Cl dzz               96      0.472808  2 Cl dzz        
    21     -0.321288  1 Cl pz                74     -0.321288  2 Cl pz         

 Vector   33  Occ=0.000000D+00  E= 1.781466D-02
              MO Center= -8.2D-15, -1.0D-14,  5.0D-11, r^2= 1.0D+01
   Bfn.  Coefficient  Atom+Function         Bfn.  Coefficient  Atom+Function  
  ----- ------------  ---------------      ----- ------------  ---------------
    25      1.438848  1 Cl pz                78     -1.438848  2 Cl pz         
    21     -0.578096  1 Cl pz                74      0.578096  2 Cl pz         
    38     -0.424808  1 Cl dxx               41     -0.424822  1 Cl dyy        
    91     -0.424808  2 Cl dxx               94     -0.424822  2 Cl dyy        
    22      0.331851  1 Cl s                 75      0.331851  2 Cl s          

 Vector   34  Occ=0.000000D+00  E= 1.175756D-01
              MO Center= -3.2D-14,  3.2D-14,  7.8D-13, r^2= 6.5D+00
   Bfn.  Coefficient  Atom+Function         Bfn.  Coefficient  Atom+Function  
  ----- ------------  ---------------      ----- ------------  ---------------
    40      1.019693  1 Cl dxz               93      1.019693  2 Cl dxz        
    42     -0.984633  1 Cl dyz               95     -0.984633  2 Cl dyz        
    23      0.906157  1 Cl px                76     -0.906157  2 Cl px         
    24     -0.875003  1 Cl py                77      0.875003  2 Cl py         
    16      0.537804  1 Cl px                69     -0.537804  2 Cl px         

 Vector   35  Occ=0.000000D+00  E= 1.177452D-01
              MO Center=  5.5D-14,  5.7D-14,  1.9D-13, r^2= 6.4D+00
   Bfn.  Coefficient  Atom+Function         Bfn.  Coefficient  Atom+Function  
  ----- ------------  ---------------      ----- ------------  ---------------
    42      1.026887  1 Cl dyz               95      1.026887  2 Cl dyz        
    40      0.991581  1 Cl dxz               93      0.991581  2 Cl dxz        
    24      0.888803  1 Cl py                77     -0.888803  2 Cl py         
    23      0.858241  1 Cl px                76     -0.858241  2 Cl px         
    17      0.536070  1 Cl py                70     -0.536070  2 Cl py         

 Vector   36  Occ=0.000000D+00  E= 1.310788D-01
              MO Center= -3.3D-14,  1.9D-13,  1.7D-11, r^2= 7.9D+00
   Bfn.  Coefficient  Atom+Function         Bfn.  Coefficient  Atom+Function  
  ----- ------------  ---------------      ----- ------------  ---------------
    22      1.210728  1 Cl s                 75      1.210728  2 Cl s          
     6      1.163704  1 Cl s                 59      1.163704  2 Cl s          
    43     -1.152252  1 Cl dzz               96     -1.152252  2 Cl dzz        
    38     -0.862122  1 Cl dxx               41     -0.861848  1 Cl dyy        
    91     -0.862122  2 Cl dxx               94     -0.861848  2 Cl dyy        

 Vector   37  Occ=0.000000D+00  E= 1.373474D-01
              MO Center= -1.3D-14, -1.1D-13, -4.8D-12, r^2= 1.2D+01
   Bfn.  Coefficient  Atom+Function         Bfn.  Coefficient  Atom+Function  
  ----- ------------  ---------------      ----- ------------  ---------------
    21      4.499316  1 Cl pz                74      4.499316  2 Cl pz         
    22      2.175901  1 Cl s                 75     -2.175901  2 Cl s          
     6      1.700080  1 Cl s                 59     -1.700080  2 Cl s          
    43      1.280567  1 Cl dzz               96     -1.280567  2 Cl dzz        
    25     -0.753722  1 Cl pz                78     -0.753722  2 Cl pz         

 Vector   38  Occ=0.000000D+00  E= 1.537514D-01
              MO Center=  1.1D-13, -1.0D-13, -8.0D-13, r^2= 8.3D+00
   Bfn.  Coefficient  Atom+Function         Bfn.  Coefficient  Atom+Function  
  ----- ------------  ---------------      ----- ------------  ---------------
    19      1.169598  1 Cl px                72      1.169598  2 Cl px         
    20     -1.099171  1 Cl py                73     -1.099171  2 Cl py         
    16     -1.028056  1 Cl px                69     -1.028056  2 Cl px         
    17      0.965699  1 Cl py                70      0.965699  2 Cl py         
    23     -0.692609  1 Cl px                76     -0.692609  2 Cl px         

 Vector   39  Occ=0.000000D+00  E= 1.537517D-01
              MO Center= -7.4D-14, -7.9D-14, -8.3D-13, r^2= 8.2D+00
   Bfn.  Coefficient  Atom+Function         Bfn.  Coefficient  Atom+Function  
  ----- ------------  ---------------      ----- ------------  ---------------
    20      1.172727  1 Cl py                73      1.172727  2 Cl py         
    19      1.102276  1 Cl px                72      1.102276  2 Cl px         
    17     -1.048017  1 Cl py                70     -1.048017  2 Cl py         
    16     -0.985509  1 Cl px                69     -0.985509  2 Cl px         
    24     -0.692981  1 Cl py                77     -0.692981  2 Cl py         

 Vector   40  Occ=0.000000D+00  E= 1.870827D-01
              MO Center= -5.8D-14, -2.3D-14, -7.2D-12, r^2= 7.9D+00
   Bfn.  Coefficient  Atom+Function         Bfn.  Coefficient  Atom+Function  
  ----- ------------  ---------------      ----- ------------  ---------------
    22     11.793098  1 Cl s                 75    -11.793098  2 Cl s          
    25      4.467083  1 Cl pz                78      4.467083  2 Cl pz         
    38     -1.013617  1 Cl dxx               41     -1.013405  1 Cl dyy        
    91      1.013617  2 Cl dxx               94      1.013405  2 Cl dyy        
    18      0.767480  1 Cl pz                71      0.767480  2 Cl pz         

 Vector   41  Occ=0.000000D+00  E= 2.259856D-01
              MO Center=  1.1D-15, -2.1D-15,  1.1D-11, r^2= 6.3D+00
   Bfn.  Coefficient  Atom+Function         Bfn.  Coefficient  Atom+Function  
  ----- ------------  ---------------      ----- ------------  ---------------
    21     -1.967556  1 Cl pz                74      1.967556  2 Cl pz         
    18      1.861588  1 Cl pz                71     -1.861588  2 Cl pz         
     6      1.105329  1 Cl s                 59      1.105329  2 Cl s          
    25      1.080332  1 Cl pz                78     -1.080332  2 Cl pz         
    43     -0.770487  1 Cl dzz               96     -0.770487  2 Cl dzz        

 Vector   42  Occ=0.000000D+00  E= 2.445615D-01
              MO Center=  2.5D-15,  3.5D-15, -4.2D-13, r^2= 6.9D+00
   Bfn.  Coefficient  Atom+Function         Bfn.  Coefficient  Atom+Function  
  ----- ------------  ---------------      ----- ------------  ---------------
    19      1.875544  1 Cl px                72     -1.875544  2 Cl px         
    20     -1.811348  1 Cl py                73      1.811348  2 Cl py         
    23     -1.135995  1 Cl px                76      1.135995  2 Cl px         
    24      1.097113  1 Cl py                77     -1.097113  2 Cl py         
    40      0.950427  1 Cl dxz               93      0.950427  2 Cl dxz        

 Vector   43  Occ=0.000000D+00  E= 2.457620D-01
              MO Center=  3.8D-14,  4.1D-14,  2.6D-13, r^2= 6.9D+00
   Bfn.  Coefficient  Atom+Function         Bfn.  Coefficient  Atom+Function  
  ----- ------------  ---------------      ----- ------------  ---------------
    20      1.884891  1 Cl py                73     -1.884891  2 Cl py         
    19      1.820374  1 Cl px                72     -1.820374  2 Cl px         
    24     -1.146204  1 Cl py                77      1.146204  2 Cl py         
    23     -1.106972  1 Cl px                76      1.106972  2 Cl px         
    42      0.936655  1 Cl dyz               95      0.936655  2 Cl dyz        

 Vector   44  Occ=0.000000D+00  E= 5.124370D-01
              MO Center=  1.3D-14,  1.1D-14,  1.8D-11, r^2= 7.8D+00
   Bfn.  Coefficient  Atom+Function         Bfn.  Coefficient  Atom+Function  
  ----- ------------  ---------------      ----- ------------  ---------------
    21      6.762924  1 Cl pz                74      6.762924  2 Cl pz         
    43      4.489049  1 Cl dzz               96     -4.489049  2 Cl dzz        
    22     -3.736302  1 Cl s                 75      3.736302  2 Cl s          
     6      2.963016  1 Cl s                 59     -2.963016  2 Cl s          
    25     -2.522229  1 Cl pz                78     -2.522229  2 Cl pz         


   alpha - beta orbital overlaps 
   ----------------------------- 


   alpha      1      2      3      4      5      6      7      8      9     10
    beta      1      2      3      4      5      6      7      8      9     10
 overlap   1.000  1.000  1.000  1.000  1.000  1.000  1.000  1.000  1.000  1.000


   alpha     11     12     13     14     15     16     17     18     19     20
    beta     11     12     13     15     14     17     16     18     19     20
 overlap   1.000  1.000  1.000  0.999  1.000  1.000  1.000  1.000  0.997  0.998


   alpha     21     22     23     24     25     26     27     28     29     30
    beta     21     23     22     24     25     26     27     29     28     31
 overlap   1.000  0.987  1.000  0.991  1.000  0.998  1.000  0.999  1.000  0.993


   alpha     31     32     33     34     35     36     37     38     39     40
    beta     30     32     33     35     34     36     37     39     38     40
 overlap   1.000  0.994  0.999  0.999  1.000  0.999  1.000  0.999  1.000  1.000


   alpha     41     42     43     44     45     46     47     48     49     50
    beta     41     43     42     44     49     48     47     45     46     51
 overlap   1.000  0.999  1.000  0.999  0.815  1.000  1.000  0.816  1.000  0.993


   alpha     51     52     53     54     55     56     57     58     59     60
    beta     50     53     52     54     56     55     57     59     58     60
 overlap   1.000  1.000  1.000  0.995  1.000  1.000  1.000  1.000  1.000  1.000


   alpha     61     62     63     64     65     66     67     68     69     70
    beta     61     62     63     65     64     66     68     67     70     69
 overlap   1.000  0.999  0.999  1.000  1.000  0.999  0.999  0.999  1.000  1.000


   alpha     71     72     73     74     75     76     77     78     79     80
    beta     72     71     73     74     75     76     77     78     79     80
 overlap   1.000  1.000  1.000  1.000  1.000  1.000  1.000  1.000  1.000  1.000


   alpha     81     82     83     84     85     86     87     88     89     90
    beta     81     82     83     84     85     86     87     88     89     91
 overlap   1.000  1.000  1.000  1.000  1.000  0.991  1.000  1.000  0.991  1.000


   alpha     91     92     93     94     95     96     97     98     99    100
    beta     90     92     93     94     95     96     97     98     99    100
 overlap   1.000  1.000  1.000  1.000  1.000  1.000  1.000  1.000  1.000  1.000


   alpha    101    102    103    104    105    106
    beta    101    102    103    104    105    106
 overlap   1.000  1.000  1.000  1.000  1.000  1.000

     --------------------------
     Expectation value of S2:  
     --------------------------
      <S2> =      0.7528 (Exact =     0.7500)


 center of mass
 --------------
 x =   0.00000000 y =   0.00000000 z =   0.00000000

 moments of inertia (a.u.)
 ------------------
         225.624285864098           0.000000000000           0.000000000000
           0.000000000000         225.624285864098           0.000000000000
           0.000000000000           0.000000000000           0.000000000000

     Multipole analysis of the density
     ---------------------------------

     L   x y z        total         alpha         beta         nuclear
     -   - - -        -----         -----         ----         -------
     0   0 0 0      1.000000    -17.000000    -16.000000     34.000000

     1   1 0 0      0.000000      0.000000     -0.000000      0.000000
     1   0 1 0      0.000000      0.000000     -0.000000      0.000000
     1   0 0 1      0.000000     -0.000000      0.000000      0.000000

     2   2 0 0    -16.324078     -8.817940     -7.506138      0.000000
     2   1 1 0      0.630535     -0.074528      0.705063      0.000000
     2   1 0 1      0.000000      0.000000      0.000000      0.000000
     2   0 2 0    -16.280149     -8.823132     -7.457016      0.000000
     2   0 1 1     -0.000000     -0.000000      0.000000      0.000000
     2   0 0 2    -10.130068    -62.168056    -57.648572    109.686560


 Parallel integral file used      94 records with       0 large values


 Task  times  cpu:        4.7s     wall:        5.6s


                                NWChem Input Module
                                -------------------


 Summary of allocated global arrays
-----------------------------------
  No active global arrays



                         GA Statistics for process    0
                         ------------------------------

       create   destroy   get      put      acc     scatter   gather  read&inc
calls:  367      367     2827     2661      351        0        0       51     
number of processes/call 2.15e+00 1.35e+00 5.91e+00 0.00e+00 0.00e+00
bytes total:             5.87e+07 1.22e+07 2.59e+07 0.00e+00 0.00e+00 4.08e+02
bytes remote:            4.13e+07 4.87e+06 2.05e+07 0.00e+00 0.00e+00 0.00e+00
Max memory consumed for GA by this process: 1415736 bytes

MA_summarize_allocated_blocks: starting scan ...
MA_summarize_allocated_blocks: scan completed: 0 heap blocks, 0 stack blocks
MA usage statistics:

	allocation statistics:
					      heap	     stack
					      ----	     -----
	current number of blocks	         0	         0
	maximum number of blocks	        23	        51
	current total bytes		         0	         0
	maximum total bytes		  17724568	  25265192
	maximum total K-bytes		     17725	     25266
	maximum total M-bytes		        18	        26


                                     CITATION
                                     --------
                Please cite the following reference when publishing
                           results obtained with NWChem:

                 M. Valiev, E.J. Bylaska, N. Govind, K. Kowalski,
              T.P. Straatsma, H.J.J. van Dam, D. Wang, J. Nieplocha,
                        E. Apra, T.L. Windus, W.A. de Jong
                 "NWChem: a comprehensive and scalable open-source
                  solution for large scale molecular simulations"
                      Comput. Phys. Commun. 181, 1477 (2010)
                           doi:10.1016/j.cpc.2010.04.018

                                      AUTHORS
                                      -------
          E. Apra, E. J. Bylaska, W. A. de Jong, N. Govind, K. Kowalski,
       T. P. Straatsma, M. Valiev, H. J. J. van Dam, D. Wang, T. L. Windus,
        J. Hammond, J. Autschbach, K. Bhaskaran-Nair, J. Brabec, K. Lopata,
       S. A. Fischer, S. Krishnamoorthy, W. Ma, M. Klemm, O. Villa, Y. Chen,
    V. Anisimov, F. Aquino, S. Hirata, M. T. Hackler, T. Risthaus, M. Malagoli,
       A. Marenich, A. Otero-de-la-Roza, J. Mullin, P. Nichols, R. Peverati,
     J. Pittner, Y. Zhao, P.-D. Fan, A. Fonari, M. Williamson, R. J. Harrison,
       J. R. Rehr, M. Dupuis, D. Silverstein, D. M. A. Smith, J. Nieplocha,
        V. Tipparaju, M. Krishnan, B. E. Van Kuiken, A. Vazquez-Mayagoitia,
        L. Jensen, M. Swart, Q. Wu, T. Van Voorhis, A. A. Auer, M. Nooijen,
      L. D. Crosby, E. Brown, G. Cisneros, G. I. Fann, H. Fruchtl, J. Garza,
        K. Hirao, R. A. Kendall, J. A. Nichols, K. Tsemekhman, K. Wolinski,
     J. Anchell, D. E. Bernholdt, P. Borowski, T. Clark, D. Clerc, H. Dachsel,
   M. J. O. Deegan, K. Dyall, D. Elwood, E. Glendening, M. Gutowski, A. C. Hess,
         J. Jaffe, B. G. Johnson, J. Ju, R. Kobayashi, R. Kutteh, Z. Lin,
   R. Littlefield, X. Long, B. Meng, T. Nakajima, S. Niu, L. Pollack, M. Rosing,
   K. Glaesemann, G. Sandrone, M. Stave, H. Taylor, G. Thomas, J. H. van Lenthe,
                               A. T. Wong, Z. Zhang.

 Total times  cpu:        4.7s     wall:        5.8s
