[1537795747.964768] [r8n4:5638 :0]         sys.c:744  MXM  WARN  Conflicting CPU frequencies detected, using: 1699.57
[1537795747.974520] [r8n4:5643 :0]         sys.c:744  MXM  WARN  Conflicting CPU frequencies detected, using: 1798.67
[1537795747.975199] [r8n4:5645 :0]         sys.c:744  MXM  WARN  Conflicting CPU frequencies detected, using: 1798.67
[1537795747.976212] [r8n4:5641 :0]         sys.c:744  MXM  WARN  Conflicting CPU frequencies detected, using: 1798.67
[1537795747.976320] [r8n4:5644 :0]         sys.c:744  MXM  WARN  Conflicting CPU frequencies detected, using: 1798.67
[1537795747.976394] [r8n4:5639 :0]         sys.c:744  MXM  WARN  Conflicting CPU frequencies detected, using: 1798.67
[1537795747.976398] [r8n4:5640 :0]         sys.c:744  MXM  WARN  Conflicting CPU frequencies detected, using: 1798.67
[1537795747.976419] [r8n4:5642 :0]         sys.c:744  MXM  WARN  Conflicting CPU frequencies detected, using: 1798.67
[1537795747.981349] [r8n4:5648 :0]         sys.c:744  MXM  WARN  Conflicting CPU frequencies detected, using: 1798.67
[1537795747.981797] [r8n4:5650 :0]         sys.c:744  MXM  WARN  Conflicting CPU frequencies detected, using: 1798.67
[1537795748.018653] [r8n4:5660 :0]         sys.c:744  MXM  WARN  Conflicting CPU frequencies detected, using: 2098.57
[1537795748.018653] [r8n4:5658 :0]         sys.c:744  MXM  WARN  Conflicting CPU frequencies detected, using: 2098.57
[1537795748.018703] [r8n4:5656 :0]         sys.c:744  MXM  WARN  Conflicting CPU frequencies detected, using: 2098.57
[1537795748.018708] [r8n4:5662 :0]         sys.c:744  MXM  WARN  Conflicting CPU frequencies detected, using: 2098.57
[1537795748.018708] [r8n4:5652 :0]         sys.c:744  MXM  WARN  Conflicting CPU frequencies detected, using: 2098.57
[1537795748.018726] [r8n4:5654 :0]         sys.c:744  MXM  WARN  Conflicting CPU frequencies detected, using: 2098.57
 argument  1 = /storage/home/bikashp/nwchem_run/rabeet/ip13g2/nwip13g2/Cl2.nw
                                         
                                         


              Northwest Computational Chemistry Package (NWChem) 6.6
              ------------------------------------------------------


                    Environmental Molecular Sciences Laboratory
                       Pacific Northwest National Laboratory
                                Richland, WA 99352

                              Copyright (c) 1994-2015
                       Pacific Northwest National Laboratory
                            Battelle Memorial Institute

             NWChem is an open-source computational chemistry package
                        distributed under the terms of the
                      Educational Community License (ECL) 2.0
             A copy of the license is included with this distribution
                              in the LICENSE.TXT file

                                  ACKNOWLEDGMENT
                                  --------------

            This software and its documentation were developed at the
            EMSL at Pacific Northwest National Laboratory, a multiprogram
            national laboratory, operated for the U.S. Department of Energy
            by Battelle under Contract Number DE-AC05-76RL01830. Support
            for this work was provided by the Department of Energy Office
            of Biological and Environmental Research, Office of Basic
            Energy Sciences, and the Office of Advanced Scientific Computing.


           Job information
           ---------------

    hostname        = r8n4.niserhpc.org
    program         = /home/bikashp/Code/nwchem-6.6_tpssloc/bin/LINUX64/nwchem
    date            = Mon Sep 24 18:59:10 2018

    compiled        = Tue_Sep_18_16:24:59_2018
    source          = /home/bikashp/Code/nwchem-6.6_tpssloc
    nwchem branch   = 6.6
    nwchem revision = 27746
    ga revision     = 10594
    input           = /storage/home/bikashp/nwchem_run/rabeet/ip13g2/nwip13g2/Cl2.nw
    prefix          = Cl2.
    data base       = ./Cl2.db
    status          = startup
    nproc           =       16
    time left       =     -1s



           Memory information
           ------------------

    heap     =   13107196 doubles =    100.0 Mbytes
    stack    =   13107201 doubles =    100.0 Mbytes
    global   =   26214400 doubles =    200.0 Mbytes (distinct from heap & stack)
    total    =   52428797 doubles =    400.0 Mbytes
    verify   = yes
    hardfail = no 


           Directory information
           ---------------------

  0 permanent = .
  0 scratch   = .




                                NWChem Input Module
                                -------------------



 Scaling coordinates for geometry "geometry" by  1.889725989
 (inverse scale =  0.529177249)


          ------
          auto-z
          ------


                             Geometry "geometry" -> ""
                             -------------------------

 Output coordinates in angstroms (scale by  1.889725989 to convert to a.u.)

  No.       Tag          Charge          X              Y              Z
 ---- ---------------- ---------- -------------- -------------- --------------
    1 Cl                  17.0000     0.00000000     0.00000000    -1.00391500
    2 Cl                  17.0000     0.00000000     0.00000000     1.00391500

      Atomic Mass 
      ----------- 

      Cl                34.968850


 Effective nuclear repulsion energy (a.u.)      76.1679150929

            Nuclear Dipole moment (a.u.) 
            ----------------------------
        X                 Y               Z
 ---------------- ---------------- ----------------
     0.0000000000     0.0000000000     0.0000000000



                                Z-matrix (autoz)
                                -------- 

 Units are Angstrom for bonds and degrees for angles

      Type          Name      I     J     K     L     M      Value
      ----------- --------  ----- ----- ----- ----- ----- ----------
    1 Stretch                  1     2                       2.00783


            XYZ format geometry
            -------------------
     2
 geometry
 Cl                    0.00000000     0.00000000    -1.00391500
 Cl                    0.00000000     0.00000000     1.00391500

 ==============================================================================
                                internuclear distances
 ------------------------------------------------------------------------------
       center one      |      center two      | atomic units |  angstroms
 ------------------------------------------------------------------------------
    2 Cl               |   1 Cl               |     3.79425  |     2.00783
 ------------------------------------------------------------------------------
                         number of included internuclear distances:          1
 ==============================================================================





 Summary of "ao basis" -> "" (cartesian)
 ------------------------------------------------------------------------------
       Tag                 Description            Shells   Functions and Types
 ---------------- ------------------------------  ------  ---------------------
 *                     6-311++G(3df,3pd)              on all atoms 



                                 NWChem DFT Module
                                 -----------------


                      Basis "ao basis" -> "ao basis" (cartesian)
                      -----
  Cl (Chlorine)
  -------------
            Exponent  Coefficients 
       -------------- ---------------------------------------------------------
  1 S  1.05819000E+05  0.000738
  1 S  1.58720000E+04  0.005718
  1 S  3.61965000E+03  0.029495
  1 S  1.03080000E+03  0.117286
  1 S  3.39908000E+02  0.362949
  1 S  1.24538000E+02  0.584149

  2 S  1.24538000E+02  0.134177
  2 S  4.95135000E+01  0.624250
  2 S  2.08056000E+01  0.291756

  3 S  6.58346000E+00  1.000000

  4 S  2.56468000E+00  1.000000

  5 S  5.59763000E-01  1.000000

  6 S  1.83273000E-01  1.000000

  7 P  5.89776000E+02  0.002391
  7 P  1.39849000E+02  0.018504
  7 P  4.51413000E+01  0.081377
  7 P  1.68733000E+01  0.221552
  7 P  6.74110000E+00  0.772569

  8 P  6.74110000E+00 -1.572244
  8 P  2.77152000E+00  0.992389

  9 P  1.02387000E+00  1.000000

 10 P  3.81368000E-01  1.000000

 11 P  1.09437000E-01  1.000000

 12 S  4.83000000E-02  1.000000

 13 P  4.83000000E-02  1.000000

 14 D  3.00000000E+00  1.000000

 15 D  7.50000000E-01  1.000000

 16 D  1.87500000E-01  1.000000

 17 F  7.00000000E-01  1.000000



 Summary of "ao basis" -> "ao basis" (cartesian)
 ------------------------------------------------------------------------------
       Tag                 Description            Shells   Functions and Types
 ---------------- ------------------------------  ------  ---------------------
 Cl                    6-311++G(3df,3pd)            17       53   7s6p3d1f




 Summary of "ao basis" -> "ao basis" (cartesian)
 ------------------------------------------------------------------------------
       Tag                 Description            Shells   Functions and Types
 ---------------- ------------------------------  ------  ---------------------
 Cl                    6-311++G(3df,3pd)            17       53   7s6p3d1f


  Caching 1-el integrals 

            General Information
            -------------------
          SCF calculation type: DFT
          Wavefunction type:  closed shell.
          No. of atoms     :     2
          No. of electrons :    34
           Alpha electrons :    17
            Beta electrons :    17
          Charge           :     0
          Spin multiplicity:     1
          Use of symmetry is: off; symmetry adaption is: off
          Maximum number of iterations: ***
          AO basis - number of functions:   106
                     number of shells:    34
          Convergence on energy requested: 1.00D-06
          Convergence on density requested: 1.00D-05
          Convergence on gradient requested: 5.00D-04

              XC Information
              --------------
                  TPSS metaGGA Exchange Functional  1.000          
             TPSS03 metaGGA Correlation Functional  1.000          

             Grid Information
             ----------------
          Grid used for XC integration:  medium    
          Radial quadrature: Mura-Knowles        
          Angular quadrature: Lebedev. 
          Tag              B.-S. Rad. Rad. Pts. Rad. Cut. Ang. Pts.
          ---              ---------- --------- --------- ---------
          Cl                  1.00       88          11.0       590
          Grid pruning is: on 
          Number of quadrature shells:   176
          Spatial weights used:  Erf1

          Convergence Information
          -----------------------
          Convergence aids based upon iterative change in 
          total energy or number of iterations. 
          Levelshifting, if invoked, occurs when the 
          HOMO/LUMO gap drops below (HL_TOL): 1.00D-02
          DIIS, if invoked, will attempt to extrapolate 
          using up to (NFOCK): 10 stored Fock matrices.

                    Damping( 0%)  Levelshifting(0.5)       DIIS
                  --------------- ------------------- ---------------
          dE  on:    start            ASAP                start   
          dE off:    2 iters        *** iters           *** iters 


      Screening Tolerance Information
      -------------------------------
          Density screening/tol_rho: 1.00D-10
          AO Gaussian exp screening on grid/accAOfunc:  14
          CD Gaussian exp screening on grid/accCDfunc:  20
          XC Gaussian exp screening on grid/accXCfunc:  20
          Schwarz screening/accCoul: 1.00D-08


      Superposition of Atomic Density Guess
      -------------------------------------

 Sum of atomic energies:        -918.95609548

      Non-variational initial energy
      ------------------------------

 Total energy =    -919.073542
 1-e energy   =   -1421.890149
 2-e energy   =     426.648692
 HOMO         =      -0.352987
 LUMO         =      -0.121210

   Time after variat. SCF:      0.4
   Time prior to 1st pass:      0.4

 Integral file          = ./Cl2.aoints.00
 Record size in doubles =    65536    No. of integs per rec  =    43688
 Max. records in memory =       33    Max. records in file   = 11667433
 No. of bits per label  =        8    No. of bits per value  =       64


 #quartets = 1.536D+05 #integrals = 3.757D+06 #direct =  0.0% #cached =100.0%


File balance: exchanges=     0  moved=     0  time=   0.0


 Grid_pts file          = ./Cl2.gridpts.00
 Record size in doubles =  12289        No. of grid_pts per rec  =   3070
 Max. records in memory =      4        Max. recs in file   =  62221253


           Memory utilization after 1st SCF pass: 
           Heap Space remaining (MW):       10.89            10891596
          Stack Space remaining (MW):       13.11            13106556

   convergence    iter        energy       DeltaE   RMS-Dens  Diis-err    time
 ---------------- ----- ----------------- --------- --------- ---------  ------
 d= 0,ls=0.0,diis     1   -920.5099474881 -9.97D+02  2.71D-02  2.09D+00     0.9
 d= 0,ls=0.0,diis     2   -920.5063056391  3.64D-03  6.70D-03  1.80D-01     1.0
 d= 0,ls=0.0,diis     3   -920.4923042534  1.40D-02  3.74D-03  2.19D-01     1.2
 d= 0,ls=0.0,diis     4   -920.5215750330 -2.93D-02  3.24D-04  1.26D-03     1.4
 d= 0,ls=0.0,diis     5   -920.5199458944  1.63D-03  1.14D-04  8.17D-05     1.5
  Resetting Diis
 d= 0,ls=0.0,diis     6   -920.5203149790 -3.69D-04  1.14D-05  9.50D-07     1.7
 d= 0,ls=0.0,diis     7   -920.5202790774  3.59D-05  1.32D-06  3.43D-09     1.9
 d= 0,ls=0.0,diis     8   -920.5202808463 -1.77D-06  3.32D-07  9.06D-10     2.0
 d= 0,ls=0.0,diis     9   -920.5202798924  9.54D-07  1.37D-07  2.55D-10     2.2


         Total DFT energy =     -920.520279892380
      One electron energy =    -1420.111870966758
           Coulomb energy =      479.861184286610
          Exchange energy =      -55.001543545328
       Correlation energy =       -1.435964759773
 Nuclear repulsion energy =       76.167915092868

 Numeric. integr. density =       34.000000099938

     Total iterative time =      1.8s



                       DFT Final Molecular Orbital Analysis
                       ------------------------------------

 Vector    7  Occ=2.000000D+00  E=-7.171221D+00
              MO Center=  9.2D-17,  2.5D-16,  4.0D-03, r^2= 1.1D+00
   Bfn.  Coefficient  Atom+Function         Bfn.  Coefficient  Atom+Function  
  ----- ------------  ---------------      ----- ------------  ---------------
     8      0.840259  1 Cl py                61      0.843605  2 Cl py         
     7     -0.228834  1 Cl px                60     -0.229745  2 Cl px         
    11      0.228291  1 Cl py                64      0.229200  2 Cl py         

 Vector    8  Occ=2.000000D+00  E=-7.171221D+00
              MO Center= -5.0D-16, -1.0D-16,  4.0D-03, r^2= 1.1D+00
   Bfn.  Coefficient  Atom+Function         Bfn.  Coefficient  Atom+Function  
  ----- ------------  ---------------      ----- ------------  ---------------
     7      0.840259  1 Cl px                60      0.843605  2 Cl px         
     8      0.228834  1 Cl py                61      0.229745  2 Cl py         
    10      0.228291  1 Cl px                63      0.229200  2 Cl px         

 Vector    9  Occ=2.000000D+00  E=-7.171213D+00
              MO Center= -1.2D-16, -2.3D-16, -4.0D-03, r^2= 1.1D+00
   Bfn.  Coefficient  Atom+Function         Bfn.  Coefficient  Atom+Function  
  ----- ------------  ---------------      ----- ------------  ---------------
     8      0.790722  1 Cl py                61     -0.787585  2 Cl py         
     7      0.373128  1 Cl px                60     -0.371648  2 Cl px         
    11      0.214834  1 Cl py                64     -0.213982  2 Cl py         

 Vector   10  Occ=2.000000D+00  E=-7.171213D+00
              MO Center= -9.4D-17,  3.5D-17, -4.0D-03, r^2= 1.1D+00
   Bfn.  Coefficient  Atom+Function         Bfn.  Coefficient  Atom+Function  
  ----- ------------  ---------------      ----- ------------  ---------------
     7      0.790722  1 Cl px                60     -0.787585  2 Cl px         
     8     -0.373128  1 Cl py                61      0.371648  2 Cl py         
    10      0.214834  1 Cl px                63     -0.213982  2 Cl px         

 Vector   11  Occ=2.000000D+00  E=-9.322608D-01
              MO Center= -8.5D-16,  4.6D-15,  9.1D-08, r^2= 1.3D+00
   Bfn.  Coefficient  Atom+Function         Bfn.  Coefficient  Atom+Function  
  ----- ------------  ---------------      ----- ------------  ---------------
     6      0.454353  1 Cl s                 59      0.454353  2 Cl s          
     5      0.385967  1 Cl s                 58      0.385967  2 Cl s          
     4     -0.294576  1 Cl s                 57     -0.294576  2 Cl s          

 Vector   12  Occ=2.000000D+00  E=-7.778502D-01
              MO Center= -2.2D-15,  1.1D-15, -4.8D-08, r^2= 2.1D+00
   Bfn.  Coefficient  Atom+Function         Bfn.  Coefficient  Atom+Function  
  ----- ------------  ---------------      ----- ------------  ---------------
     6      0.567131  1 Cl s                 59     -0.567131  2 Cl s          
     5      0.439369  1 Cl s                 58     -0.439369  2 Cl s          
     4     -0.331930  1 Cl s                 57      0.331930  2 Cl s          
     3     -0.156649  1 Cl s                 56      0.156649  2 Cl s          

 Vector   13  Occ=2.000000D+00  E=-5.090540D-01
              MO Center=  2.0D-16,  8.0D-15,  1.4D-08, r^2= 2.4D+00
   Bfn.  Coefficient  Atom+Function         Bfn.  Coefficient  Atom+Function  
  ----- ------------  ---------------      ----- ------------  ---------------
    18      0.551358  1 Cl pz                71     -0.551358  2 Cl pz         
     9     -0.250290  1 Cl pz                62      0.250290  2 Cl pz         
     6     -0.242875  1 Cl s                 59     -0.242875  2 Cl s          

 Vector   14  Occ=2.000000D+00  E=-4.412044D-01
              MO Center= -5.7D-15, -1.9D-14,  1.4D-07, r^2= 1.9D+00
   Bfn.  Coefficient  Atom+Function         Bfn.  Coefficient  Atom+Function  
  ----- ------------  ---------------      ----- ------------  ---------------
    17      0.505778  1 Cl py                70      0.505778  2 Cl py         
    16      0.390530  1 Cl px                69      0.390531  2 Cl px         
     8     -0.193185  1 Cl py                61     -0.193185  2 Cl py         

 Vector   15  Occ=2.000000D+00  E=-4.412044D-01
              MO Center=  5.1D-15, -1.1D-14,  1.4D-07, r^2= 1.9D+00
   Bfn.  Coefficient  Atom+Function         Bfn.  Coefficient  Atom+Function  
  ----- ------------  ---------------      ----- ------------  ---------------
    16      0.505778  1 Cl px                69      0.505778  2 Cl px         
    17     -0.390530  1 Cl py                70     -0.390531  2 Cl py         
     7     -0.193185  1 Cl px                60     -0.193185  2 Cl px         

 Vector   16  Occ=2.000000D+00  E=-3.379358D-01
              MO Center=  1.5D-16, -1.0D-14, -1.3D-07, r^2= 2.3D+00
   Bfn.  Coefficient  Atom+Function         Bfn.  Coefficient  Atom+Function  
  ----- ------------  ---------------      ----- ------------  ---------------
    17      0.679858  1 Cl py                70     -0.679857  2 Cl py         
     8     -0.261239  1 Cl py                61      0.261239  2 Cl py         
    20      0.229127  1 Cl py                73     -0.229127  2 Cl py         
    16     -0.155843  1 Cl px                69      0.155843  2 Cl px         

 Vector   17  Occ=2.000000D+00  E=-3.379358D-01
              MO Center= -2.0D-16, -7.9D-16, -1.3D-07, r^2= 2.3D+00
   Bfn.  Coefficient  Atom+Function         Bfn.  Coefficient  Atom+Function  
  ----- ------------  ---------------      ----- ------------  ---------------
    16      0.679858  1 Cl px                69     -0.679857  2 Cl px         
     7     -0.261239  1 Cl px                60      0.261239  2 Cl px         
    19      0.229127  1 Cl px                72     -0.229127  2 Cl px         
    17      0.155843  1 Cl py                70     -0.155843  2 Cl py         

 Vector   18  Occ=0.000000D+00  E=-2.287697D-01
              MO Center= -5.9D-16, -3.6D-14, -3.9D-08, r^2= 2.6D+00
   Bfn.  Coefficient  Atom+Function         Bfn.  Coefficient  Atom+Function  
  ----- ------------  ---------------      ----- ------------  ---------------
    18      0.745504  1 Cl pz                71      0.745504  2 Cl pz         
     9     -0.269052  1 Cl pz                62     -0.269052  2 Cl pz         
     6      0.215533  1 Cl s                 59     -0.215533  2 Cl s          
    21      0.206898  1 Cl pz                74      0.206898  2 Cl pz         
     5      0.166639  1 Cl s                 58     -0.166639  2 Cl s          

 Vector   19  Occ=0.000000D+00  E=-1.506273D-02
              MO Center=  2.3D-14,  2.7D-11,  1.1D-07, r^2= 6.4D+00
   Bfn.  Coefficient  Atom+Function         Bfn.  Coefficient  Atom+Function  
  ----- ------------  ---------------      ----- ------------  ---------------
    22      0.789996  1 Cl s                 75      0.789996  2 Cl s          
    43     -0.220684  1 Cl dzz               96     -0.220684  2 Cl dzz        
     5     -0.181532  1 Cl s                 58     -0.181532  2 Cl s          
     6     -0.178039  1 Cl s                 59     -0.178039  2 Cl s          
    37     -0.152959  1 Cl dzz               90     -0.152959  2 Cl dzz        

 Vector   20  Occ=0.000000D+00  E= 4.026378D-02
              MO Center=  8.0D-15,  8.2D-11,  8.5D-07, r^2= 1.3D+01
   Bfn.  Coefficient  Atom+Function         Bfn.  Coefficient  Atom+Function  
  ----- ------------  ---------------      ----- ------------  ---------------
    25      1.368516  1 Cl pz                78      1.368516  2 Cl pz         
    21     -0.870411  1 Cl pz                74     -0.870411  2 Cl pz         
    22      0.674614  1 Cl s                 75     -0.674614  2 Cl s          
    43     -0.177367  1 Cl dzz               96      0.177367  2 Cl dzz        

 Vector   21  Occ=0.000000D+00  E= 4.988742D-02
              MO Center=  5.7D-13,  1.8D-10, -9.0D-07, r^2= 1.1D+01
   Bfn.  Coefficient  Atom+Function         Bfn.  Coefficient  Atom+Function  
  ----- ------------  ---------------      ----- ------------  ---------------
    25      0.988479  1 Cl pz                78     -0.988478  2 Cl pz         
    22     -0.478901  1 Cl s                 75     -0.478901  2 Cl s          
    21     -0.257620  1 Cl pz                74      0.257620  2 Cl pz         
    18      0.192505  1 Cl pz                71     -0.192505  2 Cl pz         
    43     -0.158950  1 Cl dzz               96     -0.158950  2 Cl dzz        

 Vector   22  Occ=0.000000D+00  E= 5.129086D-02
              MO Center= -6.2D-13,  1.9D-12,  1.6D-07, r^2= 9.7D+00
   Bfn.  Coefficient  Atom+Function         Bfn.  Coefficient  Atom+Function  
  ----- ------------  ---------------      ----- ------------  ---------------
    23      0.747588  1 Cl px                76      0.747588  2 Cl px         
    19     -0.364443  1 Cl px                72     -0.364443  2 Cl px         
    40     -0.277337  1 Cl dxz               93      0.277337  2 Cl dxz        

 Vector   23  Occ=0.000000D+00  E= 5.129086D-02
              MO Center=  2.2D-14, -2.0D-10,  1.6D-07, r^2= 9.7D+00
   Bfn.  Coefficient  Atom+Function         Bfn.  Coefficient  Atom+Function  
  ----- ------------  ---------------      ----- ------------  ---------------
    24      0.747588  1 Cl py                77      0.747588  2 Cl py         
    20     -0.364443  1 Cl py                73     -0.364443  2 Cl py         
    42     -0.277337  1 Cl dyz               95      0.277337  2 Cl dyz        

 Vector   24  Occ=0.000000D+00  E= 9.066244D-02
              MO Center= -9.9D-15,  5.9D-13, -1.8D-07, r^2= 1.3D+01
   Bfn.  Coefficient  Atom+Function         Bfn.  Coefficient  Atom+Function  
  ----- ------------  ---------------      ----- ------------  ---------------
    23      1.719269  1 Cl px                76     -1.719269  2 Cl px         
    19     -0.579493  1 Cl px                72      0.579493  2 Cl px         
    40     -0.203274  1 Cl dxz               93     -0.203274  2 Cl dxz        

 Vector   25  Occ=0.000000D+00  E= 9.066244D-02
              MO Center=  6.2D-15, -4.6D-11, -1.8D-07, r^2= 1.3D+01
   Bfn.  Coefficient  Atom+Function         Bfn.  Coefficient  Atom+Function  
  ----- ------------  ---------------      ----- ------------  ---------------
    24      1.719269  1 Cl py                77     -1.719269  2 Cl py         
    20     -0.579493  1 Cl py                73      0.579493  2 Cl py         
    42     -0.203274  1 Cl dyz               95     -0.203274  2 Cl dyz        

 Vector   26  Occ=0.000000D+00  E= 9.344189D-02
              MO Center=  1.1D-14,  1.8D-12,  4.6D-08, r^2= 3.8D+00
   Bfn.  Coefficient  Atom+Function         Bfn.  Coefficient  Atom+Function  
  ----- ------------  ---------------      ----- ------------  ---------------
    40      0.811854  1 Cl dxz               93     -0.811854  2 Cl dxz        
    23      0.311030  1 Cl px                76      0.311030  2 Cl px         
    34      0.303497  1 Cl dxz               87     -0.303497  2 Cl dxz        
    19     -0.236863  1 Cl px                72     -0.236863  2 Cl px         
    16     -0.182673  1 Cl px                69     -0.182673  2 Cl px         

 Vector   27  Occ=0.000000D+00  E= 9.344189D-02
              MO Center= -2.6D-16,  2.3D-12,  4.6D-08, r^2= 3.8D+00
   Bfn.  Coefficient  Atom+Function         Bfn.  Coefficient  Atom+Function  
  ----- ------------  ---------------      ----- ------------  ---------------
    42      0.811854  1 Cl dyz               95     -0.811854  2 Cl dyz        
    24      0.311030  1 Cl py                77      0.311030  2 Cl py         
    36      0.303497  1 Cl dyz               89     -0.303497  2 Cl dyz        
    20     -0.236863  1 Cl py                73     -0.236863  2 Cl py         
    17     -0.182673  1 Cl py                70     -0.182673  2 Cl py         

 Vector   28  Occ=0.000000D+00  E= 1.011114D-01
              MO Center= -5.4D-15, -1.1D-11,  8.4D-08, r^2= 3.0D+00
   Bfn.  Coefficient  Atom+Function         Bfn.  Coefficient  Atom+Function  
  ----- ------------  ---------------      ----- ------------  ---------------
    38      0.475264  1 Cl dxx               41     -0.475264  1 Cl dyy        
    91      0.475264  2 Cl dxx               94     -0.475264  2 Cl dyy        

 Vector   29  Occ=0.000000D+00  E= 1.011118D-01
              MO Center= -8.3D-16, -4.1D-12,  8.4D-08, r^2= 3.0D+00
   Bfn.  Coefficient  Atom+Function         Bfn.  Coefficient  Atom+Function  
  ----- ------------  ---------------      ----- ------------  ---------------
    39      0.950527  1 Cl dxy               92      0.950527  2 Cl dxy        
    33      0.254663  1 Cl dxy               86      0.254663  2 Cl dxy        

 Vector   30  Occ=0.000000D+00  E= 1.417733D-01
              MO Center= -1.5D-15, -1.4D-11, -4.8D-08, r^2= 1.2D+01
   Bfn.  Coefficient  Atom+Function         Bfn.  Coefficient  Atom+Function  
  ----- ------------  ---------------      ----- ------------  ---------------
    22     10.351556  1 Cl s                 75    -10.351556  2 Cl s          
    25      4.597811  1 Cl pz                78      4.597811  2 Cl pz         
    43     -0.530547  1 Cl dzz               96      0.530547  2 Cl dzz        
    21     -0.449653  1 Cl pz                74     -0.449653  2 Cl pz         
     6     -0.447164  1 Cl s                 59      0.447164  2 Cl s          

 Vector   31  Occ=0.000000D+00  E= 2.192506D-01
              MO Center=  2.7D-16,  1.1D-12,  4.7D-08, r^2= 8.5D+00
   Bfn.  Coefficient  Atom+Function         Bfn.  Coefficient  Atom+Function  
  ----- ------------  ---------------      ----- ------------  ---------------
    25      1.317616  1 Cl pz                78     -1.317616  2 Cl pz         
    21     -0.838117  1 Cl pz                74      0.838117  2 Cl pz         
    38     -0.514934  1 Cl dxx               41     -0.514934  1 Cl dyy        
    91     -0.514934  2 Cl dxx               94     -0.514934  2 Cl dyy        
    22      0.403002  1 Cl s                 75      0.403002  2 Cl s          

 Vector   32  Occ=0.000000D+00  E= 2.213579D-01
              MO Center= -7.0D-16, -3.0D-12, -8.2D-08, r^2= 3.3D+00
   Bfn.  Coefficient  Atom+Function         Bfn.  Coefficient  Atom+Function  
  ----- ------------  ---------------      ----- ------------  ---------------
    38      0.591580  1 Cl dxx               41     -0.591580  1 Cl dyy        
    91     -0.591580  2 Cl dxx               94      0.591580  2 Cl dyy        
    32      0.156044  1 Cl dxx               35     -0.156044  1 Cl dyy        
    85     -0.156044  2 Cl dxx               88      0.156044  2 Cl dyy        

 Vector   33  Occ=0.000000D+00  E= 2.213593D-01
              MO Center= -1.0D-15, -1.1D-12, -8.2D-08, r^2= 3.3D+00
   Bfn.  Coefficient  Atom+Function         Bfn.  Coefficient  Atom+Function  
  ----- ------------  ---------------      ----- ------------  ---------------
    39      1.183156  1 Cl dxy               92     -1.183156  2 Cl dxy        
    33      0.312092  1 Cl dxy               86     -0.312092  2 Cl dxy        

 Vector   34  Occ=0.000000D+00  E= 3.212578D-01
              MO Center=  9.6D-14,  2.3D-10,  6.3D-06, r^2= 1.1D+01
   Bfn.  Coefficient  Atom+Function         Bfn.  Coefficient  Atom+Function  
  ----- ------------  ---------------      ----- ------------  ---------------
    21      4.252800  1 Cl pz                74      4.252802  2 Cl pz         
    22      2.127422  1 Cl s                 75     -2.127426  2 Cl s          
     6      1.408389  1 Cl s                 59     -1.408394  2 Cl s          
    43      1.170268  1 Cl dzz               96     -1.170264  2 Cl dzz        
    18     -0.683705  1 Cl pz                71     -0.683706  2 Cl pz         

 Vector   35  Occ=0.000000D+00  E= 3.230256D-01
              MO Center= -1.1D-15,  1.8D-11, -6.3D-06, r^2= 7.9D+00
   Bfn.  Coefficient  Atom+Function         Bfn.  Coefficient  Atom+Function  
  ----- ------------  ---------------      ----- ------------  ---------------
     6      1.267389  1 Cl s                 59      1.267384  2 Cl s          
    22      1.187307  1 Cl s                 75      1.187299  2 Cl s          
    43     -1.089118  1 Cl dzz               96     -1.089123  2 Cl dzz        
    38     -0.947334  1 Cl dxx               41     -0.947334  1 Cl dyy        
    91     -0.947334  2 Cl dxx               94     -0.947334  2 Cl dyy        

 Vector   36  Occ=0.000000D+00  E= 3.339603D-01
              MO Center=  7.5D-14,  2.1D-13,  2.1D-07, r^2= 6.4D+00
   Bfn.  Coefficient  Atom+Function         Bfn.  Coefficient  Atom+Function  
  ----- ------------  ---------------      ----- ------------  ---------------
    23      1.234558  1 Cl px                40      1.233867  1 Cl dxz        
    76     -1.234558  2 Cl px                93      1.233867  2 Cl dxz        
    16      1.049848  1 Cl px                69     -1.049849  2 Cl px         
    19     -0.945808  1 Cl px                72      0.945809  2 Cl px         
    34      0.311190  1 Cl dxz               87      0.311190  2 Cl dxz        

 Vector   37  Occ=0.000000D+00  E= 3.339603D-01
              MO Center= -1.3D-13, -2.3D-10,  2.1D-07, r^2= 6.4D+00
   Bfn.  Coefficient  Atom+Function         Bfn.  Coefficient  Atom+Function  
  ----- ------------  ---------------      ----- ------------  ---------------
    24      1.234558  1 Cl py                42      1.233867  1 Cl dyz        
    77     -1.234558  2 Cl py                95      1.233867  2 Cl dyz        
    17      1.049848  1 Cl py                70     -1.049849  2 Cl py         
    20     -0.945808  1 Cl py                73      0.945809  2 Cl py         
    36      0.311190  1 Cl dyz               89      0.311190  2 Cl dyz        

 Vector   38  Occ=0.000000D+00  E= 3.537451D-01
              MO Center= -1.1D-14,  3.4D-13, -2.0D-07, r^2= 7.3D+00
   Bfn.  Coefficient  Atom+Function         Bfn.  Coefficient  Atom+Function  
  ----- ------------  ---------------      ----- ------------  ---------------
    16      1.635348  1 Cl px                19     -1.629930  1 Cl px         
    69      1.635347  2 Cl px                72     -1.629930  2 Cl px         
    23      0.870489  1 Cl px                76      0.870489  2 Cl px         
    44     -0.425642  1 Cl fxxx              47     -0.425641  1 Cl fxyy       
    97     -0.425642  2 Cl fxxx             100     -0.425641  2 Cl fxyy       

 Vector   39  Occ=0.000000D+00  E= 3.537451D-01
              MO Center=  5.7D-15, -1.8D-11, -2.0D-07, r^2= 7.3D+00
   Bfn.  Coefficient  Atom+Function         Bfn.  Coefficient  Atom+Function  
  ----- ------------  ---------------      ----- ------------  ---------------
    17      1.635348  1 Cl py                20     -1.629930  1 Cl py         
    70      1.635347  2 Cl py                73     -1.629930  2 Cl py         
    24      0.870489  1 Cl py                77      0.870489  2 Cl py         
    45     -0.425641  1 Cl fxxy              50     -0.425642  1 Cl fyyy       
    98     -0.425641  2 Cl fxxy             103     -0.425642  2 Cl fyyy       

 Vector   40  Occ=0.000000D+00  E= 3.858723D-01
              MO Center= -4.5D-14, -3.7D-12, -5.0D-08, r^2= 6.8D+00
   Bfn.  Coefficient  Atom+Function         Bfn.  Coefficient  Atom+Function  
  ----- ------------  ---------------      ----- ------------  ---------------
    22      9.132401  1 Cl s                 75     -9.132401  2 Cl s          
    25      3.607992  1 Cl pz                78      3.607991  2 Cl pz         
    38     -1.143067  1 Cl dxx               41     -1.143067  1 Cl dyy        
    91      1.143067  2 Cl dxx               94      1.143067  2 Cl dyy        
    18      0.807711  1 Cl pz                71      0.807711  2 Cl pz         

 Vector   41  Occ=0.000000D+00  E= 4.429000D-01
              MO Center=  1.0D-15, -2.0D-13, -4.6D-08, r^2= 5.2D+00
   Bfn.  Coefficient  Atom+Function         Bfn.  Coefficient  Atom+Function  
  ----- ------------  ---------------      ----- ------------  ---------------
    18      2.083726  1 Cl pz                71     -2.083726  2 Cl pz         
    21     -1.809625  1 Cl pz                74      1.809624  2 Cl pz         
     6      1.119477  1 Cl s                 59      1.119477  2 Cl s          
    25      0.881596  1 Cl pz                78     -0.881596  2 Cl pz         
    43     -0.802745  1 Cl dzz               96     -0.802745  2 Cl dzz        

 Vector   42  Occ=0.000000D+00  E= 4.548160D-01
              MO Center=  3.5D-15,  2.1D-13, -4.7D-08, r^2= 5.6D+00
   Bfn.  Coefficient  Atom+Function         Bfn.  Coefficient  Atom+Function  
  ----- ------------  ---------------      ----- ------------  ---------------
    19      2.348254  1 Cl px                72     -2.348254  2 Cl px         
    40      1.463647  1 Cl dxz               93      1.463647  2 Cl dxz        
    16     -1.322544  1 Cl px                69      1.322544  2 Cl px         
    23     -1.207983  1 Cl px                76      1.207983  2 Cl px         
    44      0.351366  1 Cl fxxx              47      0.351365  1 Cl fxyy       

 Vector   43  Occ=0.000000D+00  E= 4.548160D-01
              MO Center= -3.5D-15, -1.8D-11, -4.7D-08, r^2= 5.6D+00
   Bfn.  Coefficient  Atom+Function         Bfn.  Coefficient  Atom+Function  
  ----- ------------  ---------------      ----- ------------  ---------------
    20      2.348254  1 Cl py                73     -2.348254  2 Cl py         
    42      1.463647  1 Cl dyz               95      1.463647  2 Cl dyz        
    17     -1.322544  1 Cl py                70      1.322544  2 Cl py         
    24     -1.207983  1 Cl py                77      1.207983  2 Cl py         
    45      0.351365  1 Cl fxxy              50      0.351366  1 Cl fyyy       

 Vector   44  Occ=0.000000D+00  E= 7.055212D-01
              MO Center= -6.2D-15,  7.1D-12, -7.6D-09, r^2= 7.3D+00
   Bfn.  Coefficient  Atom+Function         Bfn.  Coefficient  Atom+Function  
  ----- ------------  ---------------      ----- ------------  ---------------
    21      6.417553  1 Cl pz                74      6.417553  2 Cl pz         
    43      4.484021  1 Cl dzz               96     -4.484021  2 Cl dzz        
    22     -2.790569  1 Cl s                 75      2.790569  2 Cl s          
    25     -2.137958  1 Cl pz                78     -2.137958  2 Cl pz         
     6      1.994180  1 Cl s                 59     -1.994180  2 Cl s          


 center of mass
 --------------
 x =   0.00000000 y =   0.00000000 z =   0.00000000

 moments of inertia (a.u.)
 ------------------
         251.711410884918           0.000000000000           0.000000000000
           0.000000000000         251.711410884918           0.000000000000
           0.000000000000           0.000000000000           0.000000000000

     Multipole analysis of the density
     ---------------------------------

     L   x y z        total         alpha         beta         nuclear
     -   - - -        -----         -----         ----         -------
     0   0 0 0     -0.000000    -17.000000    -17.000000     34.000000

     1   1 0 0      0.000000      0.000000      0.000000      0.000000
     1   0 1 0      0.000000      0.000000      0.000000      0.000000
     1   0 0 1     -0.000000     -0.000000     -0.000000      0.000000

     2   2 0 0    -19.273462     -9.636731     -9.636731      0.000000
     2   1 1 0      0.000000      0.000000      0.000000      0.000000
     2   1 0 1      0.000000      0.000000      0.000000      0.000000
     2   0 2 0    -19.273462     -9.636731     -9.636731      0.000000
     2   0 1 1      0.000000      0.000000      0.000000      0.000000
     2   0 0 2    -16.758200    -69.563468    -69.563468    122.368736


 Parallel integral file used      94 records with       0 large values


 Task  times  cpu:        2.0s     wall:        2.5s


                                NWChem Input Module
                                -------------------


 Summary of allocated global arrays
-----------------------------------
  No active global arrays



                         GA Statistics for process    0
                         ------------------------------

       create   destroy   get      put      acc     scatter   gather  read&inc
calls:  156      156     1096     1514      151        0        0       58     
number of processes/call 2.24e+00 1.35e+00 5.39e+00 0.00e+00 0.00e+00
bytes total:             2.18e+07 4.24e+06 9.93e+06 0.00e+00 0.00e+00 4.64e+02
bytes remote:            1.55e+07 1.73e+06 7.83e+06 0.00e+00 0.00e+00 0.00e+00
Max memory consumed for GA by this process: 808992 bytes

MA_summarize_allocated_blocks: starting scan ...
MA_summarize_allocated_blocks: scan completed: 0 heap blocks, 0 stack blocks
MA usage statistics:

	allocation statistics:
					      heap	     stack
					      ----	     -----
	current number of blocks	         0	         0
	maximum number of blocks	        23	        51
	current total bytes		         0	         0
	maximum total bytes		  17724376	  24903080
	maximum total K-bytes		     17725	     24904
	maximum total M-bytes		        18	        25


                                     CITATION
                                     --------
                Please cite the following reference when publishing
                           results obtained with NWChem:

                 M. Valiev, E.J. Bylaska, N. Govind, K. Kowalski,
              T.P. Straatsma, H.J.J. van Dam, D. Wang, J. Nieplocha,
                        E. Apra, T.L. Windus, W.A. de Jong
                 "NWChem: a comprehensive and scalable open-source
                  solution for large scale molecular simulations"
                      Comput. Phys. Commun. 181, 1477 (2010)
                           doi:10.1016/j.cpc.2010.04.018

                                      AUTHORS
                                      -------
          E. Apra, E. J. Bylaska, W. A. de Jong, N. Govind, K. Kowalski,
       T. P. Straatsma, M. Valiev, H. J. J. van Dam, D. Wang, T. L. Windus,
        J. Hammond, J. Autschbach, K. Bhaskaran-Nair, J. Brabec, K. Lopata,
       S. A. Fischer, S. Krishnamoorthy, W. Ma, M. Klemm, O. Villa, Y. Chen,
    V. Anisimov, F. Aquino, S. Hirata, M. T. Hackler, T. Risthaus, M. Malagoli,
       A. Marenich, A. Otero-de-la-Roza, J. Mullin, P. Nichols, R. Peverati,
     J. Pittner, Y. Zhao, P.-D. Fan, A. Fonari, M. Williamson, R. J. Harrison,
       J. R. Rehr, M. Dupuis, D. Silverstein, D. M. A. Smith, J. Nieplocha,
        V. Tipparaju, M. Krishnan, B. E. Van Kuiken, A. Vazquez-Mayagoitia,
        L. Jensen, M. Swart, Q. Wu, T. Van Voorhis, A. A. Auer, M. Nooijen,
      L. D. Crosby, E. Brown, G. Cisneros, G. I. Fann, H. Fruchtl, J. Garza,
        K. Hirao, R. A. Kendall, J. A. Nichols, K. Tsemekhman, K. Wolinski,
     J. Anchell, D. E. Bernholdt, P. Borowski, T. Clark, D. Clerc, H. Dachsel,
   M. J. O. Deegan, K. Dyall, D. Elwood, E. Glendening, M. Gutowski, A. C. Hess,
         J. Jaffe, B. G. Johnson, J. Ju, R. Kobayashi, R. Kutteh, Z. Lin,
   R. Littlefield, X. Long, B. Meng, T. Nakajima, S. Niu, L. Pollack, M. Rosing,
   K. Glaesemann, G. Sandrone, M. Stave, H. Taylor, G. Thomas, J. H. van Lenthe,
                               A. T. Wong, Z. Zhang.

 Total times  cpu:        2.0s     wall:        2.7s
