[1537795783.351850] [r8n4:6510 :0]         sys.c:744  MXM  WARN  Conflicting CPU frequencies detected, using: 2206.74
[1537795783.361645] [r8n4:6514 :0]         sys.c:744  MXM  WARN  Conflicting CPU frequencies detected, using: 2206.74
[1537795783.361649] [r8n4:6511 :0]         sys.c:744  MXM  WARN  Conflicting CPU frequencies detected, using: 2206.74
[1537795783.361695] [r8n4:6513 :0]         sys.c:744  MXM  WARN  Conflicting CPU frequencies detected, using: 2206.74
[1537795783.361790] [r8n4:6515 :0]         sys.c:744  MXM  WARN  Conflicting CPU frequencies detected, using: 2206.74
[1537795783.363161] [r8n4:6512 :0]         sys.c:744  MXM  WARN  Conflicting CPU frequencies detected, using: 2206.74
[1537795783.373705] [r8n4:6516 :0]         sys.c:744  MXM  WARN  Conflicting CPU frequencies detected, using: 2206.74
[1537795783.373972] [r8n4:6518 :0]         sys.c:744  MXM  WARN  Conflicting CPU frequencies detected, using: 2206.74
[1537795783.374100] [r8n4:6520 :0]         sys.c:744  MXM  WARN  Conflicting CPU frequencies detected, using: 2206.74
[1537795783.419122] [r8n4:6534 :0]         sys.c:744  MXM  WARN  Conflicting CPU frequencies detected, using: 2300.00
[1537795783.419680] [r8n4:6526 :0]         sys.c:744  MXM  WARN  Conflicting CPU frequencies detected, using: 2300.00
[1537795783.419723] [r8n4:6530 :0]         sys.c:744  MXM  WARN  Conflicting CPU frequencies detected, using: 2300.00
[1537795783.420551] [r8n4:6522 :0]         sys.c:744  MXM  WARN  Conflicting CPU frequencies detected, using: 2300.00
[1537795783.421177] [r8n4:6528 :0]         sys.c:744  MXM  WARN  Conflicting CPU frequencies detected, using: 2300.00
[1537795783.421306] [r8n4:6532 :0]         sys.c:744  MXM  WARN  Conflicting CPU frequencies detected, using: 2300.00
[1537795783.421623] [r8n4:6524 :0]         sys.c:744  MXM  WARN  Conflicting CPU frequencies detected, using: 2300.00
 argument  1 = /storage/home/bikashp/nwchem_run/rabeet/ip13g2/nwip13g2/O2+.nw
                                         
                                         


              Northwest Computational Chemistry Package (NWChem) 6.6
              ------------------------------------------------------


                    Environmental Molecular Sciences Laboratory
                       Pacific Northwest National Laboratory
                                Richland, WA 99352

                              Copyright (c) 1994-2015
                       Pacific Northwest National Laboratory
                            Battelle Memorial Institute

             NWChem is an open-source computational chemistry package
                        distributed under the terms of the
                      Educational Community License (ECL) 2.0
             A copy of the license is included with this distribution
                              in the LICENSE.TXT file

                                  ACKNOWLEDGMENT
                                  --------------

            This software and its documentation were developed at the
            EMSL at Pacific Northwest National Laboratory, a multiprogram
            national laboratory, operated for the U.S. Department of Energy
            by Battelle under Contract Number DE-AC05-76RL01830. Support
            for this work was provided by the Department of Energy Office
            of Biological and Environmental Research, Office of Basic
            Energy Sciences, and the Office of Advanced Scientific Computing.


           Job information
           ---------------

    hostname        = r8n4.niserhpc.org
    program         = /home/bikashp/Code/nwchem-6.6_tpssloc/bin/LINUX64/nwchem
    date            = Mon Sep 24 18:59:46 2018

    compiled        = Tue_Sep_18_16:24:59_2018
    source          = /home/bikashp/Code/nwchem-6.6_tpssloc
    nwchem branch   = 6.6
    nwchem revision = 27746
    ga revision     = 10594
    input           = /storage/home/bikashp/nwchem_run/rabeet/ip13g2/nwip13g2/O2+.nw
    prefix          = O2+.
    data base       = ./O2+.db
    status          = startup
    nproc           =       16
    time left       =     -1s



           Memory information
           ------------------

    heap     =   13107196 doubles =    100.0 Mbytes
    stack    =   13107201 doubles =    100.0 Mbytes
    global   =   26214400 doubles =    200.0 Mbytes (distinct from heap & stack)
    total    =   52428797 doubles =    400.0 Mbytes
    verify   = yes
    hardfail = no 


           Directory information
           ---------------------

  0 permanent = .
  0 scratch   = .




                                NWChem Input Module
                                -------------------



 Scaling coordinates for geometry "geometry" by  1.889725989
 (inverse scale =  0.529177249)


          ------
          auto-z
          ------


                             Geometry "geometry" -> ""
                             -------------------------

 Output coordinates in angstroms (scale by  1.889725989 to convert to a.u.)

  No.       Tag          Charge          X              Y              Z
 ---- ---------------- ---------- -------------- -------------- --------------
    1 O                    8.0000     0.00000000     0.00000000    -0.55499500
    2 O                    8.0000     0.00000000     0.00000000     0.55499500

      Atomic Mass 
      ----------- 

      O                 15.994910


 Effective nuclear repulsion energy (a.u.)      30.5113955405

            Nuclear Dipole moment (a.u.) 
            ----------------------------
        X                 Y               Z
 ---------------- ---------------- ----------------
     0.0000000000     0.0000000000     0.0000000000



                                Z-matrix (autoz)
                                -------- 

 Units are Angstrom for bonds and degrees for angles

      Type          Name      I     J     K     L     M      Value
      ----------- --------  ----- ----- ----- ----- ----- ----------
    1 Stretch                  1     2                       1.10999


            XYZ format geometry
            -------------------
     2
 geometry
 O                     0.00000000     0.00000000    -0.55499500
 O                     0.00000000     0.00000000     0.55499500

 ==============================================================================
                                internuclear distances
 ------------------------------------------------------------------------------
       center one      |      center two      | atomic units |  angstroms
 ------------------------------------------------------------------------------
    2 O                |   1 O                |     2.09758  |     1.10999
 ------------------------------------------------------------------------------
                         number of included internuclear distances:          1
 ==============================================================================





 Summary of "ao basis" -> "" (cartesian)
 ------------------------------------------------------------------------------
       Tag                 Description            Shells   Functions and Types
 ---------------- ------------------------------  ------  ---------------------
 *                     6-311++G(3df,3pd)              on all atoms 



                                 NWChem DFT Module
                                 -----------------


                      Basis "ao basis" -> "ao basis" (cartesian)
                      -----
  O (Oxygen)
  ----------
            Exponent  Coefficients 
       -------------- ---------------------------------------------------------
  1 S  8.58850000E+03  0.001895
  1 S  1.29723000E+03  0.014386
  1 S  2.99296000E+02  0.070732
  1 S  8.73771000E+01  0.240001
  1 S  2.56789000E+01  0.594797
  1 S  3.74004000E+00  0.280802

  2 S  4.21175000E+01  0.113889
  2 S  9.62837000E+00  0.920811
  2 S  2.85332000E+00 -0.003274

  3 P  4.21175000E+01  0.036511
  3 P  9.62837000E+00  0.237153
  3 P  2.85332000E+00  0.819702

  4 S  9.05661000E-01  1.000000

  5 P  9.05661000E-01  1.000000

  6 S  2.55611000E-01  1.000000

  7 P  2.55611000E-01  1.000000

  8 S  8.45000000E-02  1.000000

  9 P  8.45000000E-02  1.000000

 10 D  5.16000000E+00  1.000000

 11 D  1.29200000E+00  1.000000

 12 D  3.22500000E-01  1.000000

 13 F  1.40000000E+00  1.000000



 Summary of "ao basis" -> "ao basis" (cartesian)
 ------------------------------------------------------------------------------
       Tag                 Description            Shells   Functions and Types
 ---------------- ------------------------------  ------  ---------------------
 O                     6-311++G(3df,3pd)            13       45   5s4p3d1f




 Summary of "ao basis" -> "ao basis" (cartesian)
 ------------------------------------------------------------------------------
       Tag                 Description            Shells   Functions and Types
 ---------------- ------------------------------  ------  ---------------------
 O                     6-311++G(3df,3pd)            13       45   5s4p3d1f


  Caching 1-el integrals 

            General Information
            -------------------
          SCF calculation type: DFT
          Wavefunction type:  spin polarized.
          No. of atoms     :     2
          No. of electrons :    15
           Alpha electrons :     8
            Beta electrons :     7
          Charge           :     1
          Spin multiplicity:     2
          Use of symmetry is: off; symmetry adaption is: off
          Maximum number of iterations: ***
          AO basis - number of functions:    90
                     number of shells:    26
          Convergence on energy requested: 1.00D-06
          Convergence on density requested: 1.00D-05
          Convergence on gradient requested: 5.00D-04

              XC Information
              --------------
                  TPSS metaGGA Exchange Functional  1.000          
             TPSS03 metaGGA Correlation Functional  1.000          

             Grid Information
             ----------------
          Grid used for XC integration:  medium    
          Radial quadrature: Mura-Knowles        
          Angular quadrature: Lebedev. 
          Tag              B.-S. Rad. Rad. Pts. Rad. Cut. Ang. Pts.
          ---              ---------- --------- --------- ---------
          O                   0.60       49           7.0       434
          Grid pruning is: on 
          Number of quadrature shells:    98
          Spatial weights used:  Erf1

          Convergence Information
          -----------------------
          Convergence aids based upon iterative change in 
          total energy or number of iterations. 
          Levelshifting, if invoked, occurs when the 
          HOMO/LUMO gap drops below (HL_TOL): 1.00D-02
          DIIS, if invoked, will attempt to extrapolate 
          using up to (NFOCK): 10 stored Fock matrices.

                    Damping( 0%)  Levelshifting(0.5)       DIIS
                  --------------- ------------------- ---------------
          dE  on:    start            ASAP                start   
          dE off:    2 iters        *** iters           *** iters 


      Screening Tolerance Information
      -------------------------------
          Density screening/tol_rho: 1.00D-10
          AO Gaussian exp screening on grid/accAOfunc:  14
          CD Gaussian exp screening on grid/accCDfunc:  20
          XC Gaussian exp screening on grid/accXCfunc:  20
          Schwarz screening/accCoul: 1.00D-08


      Superposition of Atomic Density Guess
      -------------------------------------

 Sum of atomic energies:        -149.55557143

 Renormalizing density from      16.00 to     15

      Non-variational initial energy
      ------------------------------

 Total energy =    -143.759854
 1-e energy   =    -250.003511
 2-e energy   =      75.732262
 HOMO         =      -0.764477
 LUMO         =      -0.764477

   Time after variat. SCF:      0.5
   Time prior to 1st pass:      0.5

 Integral file          = ./O2+.aoints.00
 Record size in doubles =    65536    No. of integs per rec  =    43688
 Max. records in memory =       18    Max. records in file   = 11667374
 No. of bits per label  =        8    No. of bits per value  =       64


 #quartets = 6.166D+04 #integrals = 2.241D+06 #direct =  0.0% #cached =100.0%


File balance: exchanges=     0  moved=     0  time=   0.0


 Grid_pts file          = ./O2+.gridpts.00
 Record size in doubles =  12289        No. of grid_pts per rec  =   3070
 Max. records in memory =      2        Max. recs in file   =  62220939


           Memory utilization after 1st SCF pass: 
           Heap Space remaining (MW):       11.90            11900100
          Stack Space remaining (MW):       13.11            13106372

   convergence    iter        energy       DeltaE   RMS-Dens  Diis-err    time
 ---------------- ----- ----------------- --------- --------- ---------  ------
 d= 0,ls=0.0,diis     1   -149.9482456906 -1.80D+02  6.64D-03  2.38D-01     0.9
                                                     7.17D-03  2.40D-01
 d= 0,ls=0.0,diis     2   -149.9380438599  1.02D-02  1.24D-03  2.42D-02     1.0
                                                     1.24D-03  1.96D-02
 d= 0,ls=0.0,diis     3   -149.9527136366 -1.47D-02  2.87D-04  1.94D-03     1.2
                                                     2.70D-04  1.76D-03
 d= 0,ls=0.0,diis     4   -149.9499607141  2.75D-03  3.72D-05  3.60D-05     1.3
                                                     3.43D-05  2.67D-05
 d= 0,ls=0.0,diis     5   -149.9501923128 -2.32D-04  8.07D-06  1.07D-06     1.4
                                                     9.79D-06  9.35D-07
  Resetting Diis
 d= 0,ls=0.0,diis     6   -149.9502037808 -1.15D-05  4.16D-07  2.65D-09     1.6
                                                     3.54D-07  1.92D-09
 d= 0,ls=0.0,diis     7   -149.9502050530 -1.27D-06  8.33D-08  2.30D-11     1.9
                                                     8.16D-08  2.06D-11
 d= 0,ls=0.0,diis     8   -149.9502047100  3.43D-07  1.84D-08  5.12D-12     2.0
                                                     1.35D-08  3.97D-12


         Total DFT energy =     -149.950204709955
      One electron energy =     -258.517448184833
           Coulomb energy =       94.654829020685
          Exchange energy =      -16.086239177713
       Correlation energy =       -0.512741908577
 Nuclear repulsion energy =       30.511395540483

 Numeric. integr. density =       15.000000674340

     Total iterative time =      1.5s



                    DFT Final Alpha Molecular Orbital Analysis
                    ------------------------------------------

 Vector    1  Occ=1.000000D+00  E=-1.962979D+01
              MO Center=  1.9D-17,  1.2D-16, -7.9D-06, r^2= 3.2D-01
   Bfn.  Coefficient  Atom+Function         Bfn.  Coefficient  Atom+Function  
  ----- ------------  ---------------      ----- ------------  ---------------
     1      0.389344  1 O  s                 46      0.389339  2 O  s          
     2      0.332981  1 O  s                 47      0.332976  2 O  s          

 Vector    2  Occ=1.000000D+00  E=-1.962954D+01
              MO Center= -2.1D-17,  9.8D-17,  7.9D-06, r^2= 3.2D-01
   Bfn.  Coefficient  Atom+Function         Bfn.  Coefficient  Atom+Function  
  ----- ------------  ---------------      ----- ------------  ---------------
     1      0.389362  1 O  s                 46     -0.389368  2 O  s          
     2      0.332968  1 O  s                 47     -0.332973  2 O  s          

 Vector    3  Occ=1.000000D+00  E=-1.841205D+00
              MO Center=  7.5D-16, -1.1D-15, -8.3D-10, r^2= 3.8D-01
   Bfn.  Coefficient  Atom+Function         Bfn.  Coefficient  Atom+Function  
  ----- ------------  ---------------      ----- ------------  ---------------
     6      0.377199  1 O  s                 51      0.377199  2 O  s          
    10      0.344683  1 O  s                 55      0.344683  2 O  s          

 Vector    4  Occ=1.000000D+00  E=-1.246533D+00
              MO Center=  9.6D-16,  4.0D-16, -4.0D-09, r^2= 9.7D-01
   Bfn.  Coefficient  Atom+Function         Bfn.  Coefficient  Atom+Function  
  ----- ------------  ---------------      ----- ------------  ---------------
    10      0.627246  1 O  s                 55     -0.627246  2 O  s          
     6      0.401645  1 O  s                 51     -0.401645  2 O  s          
     2     -0.156755  1 O  s                 47      0.156755  2 O  s          

 Vector    5  Occ=1.000000D+00  E=-1.065706D+00
              MO Center=  9.2D-15,  1.3D-14, -2.9D-09, r^2= 7.0D-01
   Bfn.  Coefficient  Atom+Function         Bfn.  Coefficient  Atom+Function  
  ----- ------------  ---------------      ----- ------------  ---------------
     8      0.255535  1 O  py                53      0.255535  2 O  py         
     4      0.196917  1 O  py                49      0.196917  2 O  py         
    12      0.173128  1 O  py                57      0.173128  2 O  py         
     7      0.163293  1 O  px                52      0.163293  2 O  px         

 Vector    6  Occ=1.000000D+00  E=-1.056634D+00
              MO Center=  5.3D-16,  7.5D-16, -2.7D-09, r^2= 7.0D-01
   Bfn.  Coefficient  Atom+Function         Bfn.  Coefficient  Atom+Function  
  ----- ------------  ---------------      ----- ------------  ---------------
     7      0.246975  1 O  px                52      0.246975  2 O  px         
     3      0.193527  1 O  px                48      0.193527  2 O  px         
    11      0.176284  1 O  px                56      0.176284  2 O  px         
     8     -0.157822  1 O  py                53     -0.157822  2 O  py         

 Vector    7  Occ=1.000000D+00  E=-1.021483D+00
              MO Center= -9.1D-15, -1.1D-14,  4.1D-09, r^2= 1.0D+00
   Bfn.  Coefficient  Atom+Function         Bfn.  Coefficient  Atom+Function  
  ----- ------------  ---------------      ----- ------------  ---------------
    10      0.414661  1 O  s                 55      0.414661  2 O  s          
     9     -0.289803  1 O  pz                54      0.289803  2 O  pz         
     5     -0.233691  1 O  pz                50      0.233691  2 O  pz         
    13     -0.188902  1 O  pz                58      0.188902  2 O  pz         

 Vector    8  Occ=1.000000D+00  E=-7.359240D-01
              MO Center=  1.1D-15, -5.9D-16,  2.7D-09, r^2= 8.2D-01
   Bfn.  Coefficient  Atom+Function         Bfn.  Coefficient  Atom+Function  
  ----- ------------  ---------------      ----- ------------  ---------------
     8      0.301817  1 O  py                53     -0.301817  2 O  py         
    12      0.297752  1 O  py                57     -0.297752  2 O  py         
     4      0.231367  1 O  py                49     -0.231367  2 O  py         
     7      0.192866  1 O  px                52     -0.192866  2 O  px         
    11      0.190268  1 O  px                56     -0.190268  2 O  px         

 Vector    9  Occ=0.000000D+00  E=-7.172325D-01
              MO Center= -5.5D-16,  1.6D-15,  2.6D-09, r^2= 8.3D-01
   Bfn.  Coefficient  Atom+Function         Bfn.  Coefficient  Atom+Function  
  ----- ------------  ---------------      ----- ------------  ---------------
    11      0.305906  1 O  px                56     -0.305906  2 O  px         
     7      0.293814  1 O  px                52     -0.293814  2 O  px         
     3      0.228656  1 O  px                48     -0.228656  2 O  px         
    12     -0.195478  1 O  py                57      0.195478  2 O  py         
     8     -0.187752  1 O  py                53      0.187752  2 O  py         

 Vector   10  Occ=0.000000D+00  E=-2.133418D-01
              MO Center= -4.9D-16, -6.3D-16, -1.8D-09, r^2= 2.0D+00
   Bfn.  Coefficient  Atom+Function         Bfn.  Coefficient  Atom+Function  
  ----- ------------  ---------------      ----- ------------  ---------------
    14      1.799298  1 O  s                 59     -1.799298  2 O  s          
    17      0.840108  1 O  pz                62      0.840108  2 O  pz         
     6      0.330771  1 O  s                 51     -0.330771  2 O  s          
     9      0.327598  1 O  pz                54      0.327598  2 O  pz         
    35     -0.314687  1 O  dzz               80      0.314687  2 O  dzz        

 Vector   11  Occ=0.000000D+00  E=-1.982866D-01
              MO Center=  6.1D-15, -2.1D-15, -1.1D-09, r^2= 3.9D+00
   Bfn.  Coefficient  Atom+Function         Bfn.  Coefficient  Atom+Function  
  ----- ------------  ---------------      ----- ------------  ---------------
    14      0.857162  1 O  s                 59      0.857162  2 O  s          
    10     -0.309064  1 O  s                 55     -0.309064  2 O  s          
     6     -0.278922  1 O  s                 51     -0.278922  2 O  s          

 Vector   12  Occ=0.000000D+00  E=-1.216943D-01
              MO Center=  4.3D-16, -1.4D-15, -3.2D-09, r^2= 4.8D+00
   Bfn.  Coefficient  Atom+Function         Bfn.  Coefficient  Atom+Function  
  ----- ------------  ---------------      ----- ------------  ---------------
    16      0.501093  1 O  py                61      0.501093  2 O  py         
    15      0.319740  1 O  px                60      0.319740  2 O  px         

 Vector   13  Occ=0.000000D+00  E=-1.216055D-01
              MO Center= -5.8D-15,  4.2D-15, -3.0D-09, r^2= 4.8D+00
   Bfn.  Coefficient  Atom+Function         Bfn.  Coefficient  Atom+Function  
  ----- ------------  ---------------      ----- ------------  ---------------
    15      0.503321  1 O  px                60      0.503321  2 O  px         
    16     -0.321165  1 O  py                61     -0.321165  2 O  py         

 Vector   14  Occ=0.000000D+00  E=-7.892690D-02
              MO Center=  3.4D-15, -2.9D-15, -1.3D-08, r^2= 5.2D+00
   Bfn.  Coefficient  Atom+Function         Bfn.  Coefficient  Atom+Function  
  ----- ------------  ---------------      ----- ------------  ---------------
    10      1.674320  1 O  s                 55     -1.674320  2 O  s          
    13      1.516026  1 O  pz                58      1.516026  2 O  pz         
    14     -1.317779  1 O  s                 59      1.317779  2 O  s          
    17     -1.179970  1 O  pz                62     -1.179970  2 O  pz         
     9      0.259059  1 O  pz                54      0.259059  2 O  pz         

 Vector   15  Occ=0.000000D+00  E=-5.360864D-02
              MO Center= -6.2D-16,  5.2D-16,  1.5D-08, r^2= 6.0D+00
   Bfn.  Coefficient  Atom+Function         Bfn.  Coefficient  Atom+Function  
  ----- ------------  ---------------      ----- ------------  ---------------
    17      1.240221  1 O  pz                62     -1.240221  2 O  pz         
    14     -0.273730  1 O  s                 59     -0.273730  2 O  s          

 Vector   16  Occ=0.000000D+00  E=-1.268543D-02
              MO Center=  3.4D-15,  4.8D-15,  3.2D-09, r^2= 6.3D+00
   Bfn.  Coefficient  Atom+Function         Bfn.  Coefficient  Atom+Function  
  ----- ------------  ---------------      ----- ------------  ---------------
    16      1.546159  1 O  py                61     -1.546159  2 O  py         
    15      0.987960  1 O  px                60     -0.987960  2 O  px         
    12     -0.184105  1 O  py                57      0.184105  2 O  py         

 Vector   17  Occ=0.000000D+00  E=-1.021839D-02
              MO Center= -4.9D-15,  3.5D-15,  3.0D-09, r^2= 6.3D+00
   Bfn.  Coefficient  Atom+Function         Bfn.  Coefficient  Atom+Function  
  ----- ------------  ---------------      ----- ------------  ---------------
    15      1.553042  1 O  px                60     -1.553042  2 O  px         
    16     -0.992359  1 O  py                61      0.992359  2 O  py         
    11     -0.190852  1 O  px                56      0.190852  2 O  px         

 Vector   18  Occ=0.000000D+00  E= 1.139080D-01
              MO Center=  3.3D-15,  2.3D-15,  8.2D-10, r^2= 7.7D+00
   Bfn.  Coefficient  Atom+Function         Bfn.  Coefficient  Atom+Function  
  ----- ------------  ---------------      ----- ------------  ---------------
    14     27.903729  1 O  s                 59    -27.903729  2 O  s          
    17      8.762898  1 O  pz                62      8.762898  2 O  pz         
    10     -0.839327  1 O  s                 55      0.839327  2 O  s          
    35     -0.336510  1 O  dzz               80      0.336510  2 O  dzz        
     6     -0.279148  1 O  s                 51      0.279148  2 O  s          

 Vector   19  Occ=0.000000D+00  E= 1.581504D-01
              MO Center= -4.5D-16, -9.4D-16, -1.1D-09, r^2= 1.7D+00
   Bfn.  Coefficient  Atom+Function         Bfn.  Coefficient  Atom+Function  
  ----- ------------  ---------------      ----- ------------  ---------------
    30      0.440222  1 O  dxx               33     -0.440235  1 O  dyy        
    75      0.440222  2 O  dxx               78     -0.440235  2 O  dyy        
    31      0.407968  1 O  dxy               76      0.407968  2 O  dxy        

 Vector   20  Occ=0.000000D+00  E= 1.588178D-01
              MO Center= -1.4D-15,  1.9D-15, -1.0D-09, r^2= 1.7D+00
   Bfn.  Coefficient  Atom+Function         Bfn.  Coefficient  Atom+Function  
  ----- ------------  ---------------      ----- ------------  ---------------
    31      0.880244  1 O  dxy               76      0.880244  2 O  dxy        
    30     -0.223937  1 O  dxx               75     -0.223937  2 O  dxx        
    33      0.183933  1 O  dyy               78      0.183933  2 O  dyy        

 Vector   21  Occ=0.000000D+00  E= 3.376599D-01
              MO Center= -4.7D-16,  2.7D-15, -9.7D-10, r^2= 3.7D+00
   Bfn.  Coefficient  Atom+Function         Bfn.  Coefficient  Atom+Function  
  ----- ------------  ---------------      ----- ------------  ---------------
    17      1.001934  1 O  pz                62     -1.001934  2 O  pz         
    33     -0.984798  1 O  dyy               78     -0.984798  2 O  dyy        
    30     -0.976073  1 O  dxx               75     -0.976073  2 O  dxx        
    14      0.949070  1 O  s                 59      0.949070  2 O  s          
    10      0.785968  1 O  s                 55      0.785968  2 O  s          

 Vector   22  Occ=0.000000D+00  E= 4.036212D-01
              MO Center=  8.4D-15, -3.7D-15, -9.7D-10, r^2= 1.9D+00
   Bfn.  Coefficient  Atom+Function         Bfn.  Coefficient  Atom+Function  
  ----- ------------  ---------------      ----- ------------  ---------------
    32      0.999901  1 O  dxz               77     -0.999901  2 O  dxz        
    34     -0.638966  1 O  dyz               79      0.638966  2 O  dyz        
    11     -0.187740  1 O  px                56     -0.187740  2 O  px         

 Vector   23  Occ=0.000000D+00  E= 4.072912D-01
              MO Center=  5.4D-15,  6.9D-15, -1.2D-09, r^2= 2.0D+00
   Bfn.  Coefficient  Atom+Function         Bfn.  Coefficient  Atom+Function  
  ----- ------------  ---------------      ----- ------------  ---------------
    34      1.005240  1 O  dyz               79     -1.005240  2 O  dyz        
    32      0.642378  1 O  dxz               77     -0.642378  2 O  dxz        
    12     -0.228789  1 O  py                57     -0.228789  2 O  py         

 Vector   24  Occ=0.000000D+00  E= 4.482870D-01
              MO Center=  7.9D-15, -1.6D-14, -2.6D-08, r^2= 4.7D+00
   Bfn.  Coefficient  Atom+Function         Bfn.  Coefficient  Atom+Function  
  ----- ------------  ---------------      ----- ------------  ---------------
    10     14.803631  1 O  s                 55    -14.803631  2 O  s          
    13     10.969043  1 O  pz                58     10.969043  2 O  pz         
    14      4.951825  1 O  s                 59     -4.951825  2 O  s          
    35      2.681002  1 O  dzz               80     -2.681002  2 O  dzz        
    33     -0.731008  1 O  dyy               78      0.731008  2 O  dyy        

 Vector   25  Occ=0.000000D+00  E= 4.865307D-01
              MO Center=  2.2D-14,  1.6D-14,  2.6D-08, r^2= 4.3D+00
   Bfn.  Coefficient  Atom+Function         Bfn.  Coefficient  Atom+Function  
  ----- ------------  ---------------      ----- ------------  ---------------
    10      1.357596  1 O  s                 55      1.357597  2 O  s          
    35     -1.132349  1 O  dzz               80     -1.132349  2 O  dzz        
    17     -0.857295  1 O  pz                62      0.857295  2 O  pz         
    13      0.749803  1 O  pz                58     -0.749803  2 O  pz         
    14      0.660885  1 O  s                 59      0.660885  2 O  s          

 Vector   26  Occ=0.000000D+00  E= 4.934259D-01
              MO Center= -2.2D-14, -3.0D-14, -6.4D-09, r^2= 3.0D+00
   Bfn.  Coefficient  Atom+Function         Bfn.  Coefficient  Atom+Function  
  ----- ------------  ---------------      ----- ------------  ---------------
    12      0.870229  1 O  py                57      0.870229  2 O  py         
    11      0.556096  1 O  px                56      0.556096  2 O  px         
    16     -0.457719  1 O  py                61     -0.457719  2 O  py         
     8     -0.394549  1 O  py                53     -0.394549  2 O  py         
    15     -0.292493  1 O  px                60     -0.292493  2 O  px         

 Vector   27  Occ=0.000000D+00  E= 4.987912D-01
              MO Center= -1.1D-14,  5.4D-15, -6.2D-09, r^2= 3.0D+00
   Bfn.  Coefficient  Atom+Function         Bfn.  Coefficient  Atom+Function  
  ----- ------------  ---------------      ----- ------------  ---------------
    11      0.878802  1 O  px                56      0.878802  2 O  px         
    12     -0.561575  1 O  py                57     -0.561575  2 O  py         
    15     -0.460214  1 O  px                60     -0.460214  2 O  px         
     7     -0.393946  1 O  px                52     -0.393946  2 O  px         
    16      0.294088  1 O  py                61      0.294088  2 O  py         

 Vector   28  Occ=0.000000D+00  E= 5.332499D-01
              MO Center=  3.4D-14,  2.3D-15,  1.1D-09, r^2= 2.1D+00
   Bfn.  Coefficient  Atom+Function         Bfn.  Coefficient  Atom+Function  
  ----- ------------  ---------------      ----- ------------  ---------------
    30      0.763667  1 O  dxx               33     -0.763676  1 O  dyy        
    75     -0.763667  2 O  dxx               78      0.763676  2 O  dyy        
    31      0.707774  1 O  dxy               76     -0.707774  2 O  dxy        


                     DFT Final Beta Molecular Orbital Analysis
                     -----------------------------------------

 Vector    1  Occ=1.000000D+00  E=-1.961449D+01
              MO Center= -4.2D-17,  5.8D-17, -7.8D-06, r^2= 3.2D-01
   Bfn.  Coefficient  Atom+Function         Bfn.  Coefficient  Atom+Function  
  ----- ------------  ---------------      ----- ------------  ---------------
     1      0.389609  1 O  s                 46      0.389603  2 O  s          
     2      0.332932  1 O  s                 47      0.332928  2 O  s          

 Vector    2  Occ=1.000000D+00  E=-1.961423D+01
              MO Center= -5.0D-17,  5.4D-17,  7.8D-06, r^2= 3.2D-01
   Bfn.  Coefficient  Atom+Function         Bfn.  Coefficient  Atom+Function  
  ----- ------------  ---------------      ----- ------------  ---------------
     1      0.389626  1 O  s                 46     -0.389632  2 O  s          
     2      0.332925  1 O  s                 47     -0.332930  2 O  s          

 Vector    3  Occ=1.000000D+00  E=-1.824374D+00
              MO Center=  4.4D-16,  7.9D-16, -7.3D-10, r^2= 3.8D-01
   Bfn.  Coefficient  Atom+Function         Bfn.  Coefficient  Atom+Function  
  ----- ------------  ---------------      ----- ------------  ---------------
     6      0.363386  1 O  s                 51      0.363386  2 O  s          
    10      0.343288  1 O  s                 55      0.343288  2 O  s          

 Vector    4  Occ=1.000000D+00  E=-1.214733D+00
              MO Center=  2.4D-15, -6.4D-16, -4.7D-09, r^2= 9.8D-01
   Bfn.  Coefficient  Atom+Function         Bfn.  Coefficient  Atom+Function  
  ----- ------------  ---------------      ----- ------------  ---------------
    10      0.657047  1 O  s                 55     -0.657047  2 O  s          
     6      0.385703  1 O  s                 51     -0.385703  2 O  s          
     2     -0.153198  1 O  s                 47      0.153198  2 O  s          

 Vector    5  Occ=1.000000D+00  E=-1.049134D+00
              MO Center= -7.2D-15,  4.9D-15, -2.6D-09, r^2= 7.0D-01
   Bfn.  Coefficient  Atom+Function         Bfn.  Coefficient  Atom+Function  
  ----- ------------  ---------------      ----- ------------  ---------------
     7      0.244928  1 O  px                52      0.244928  2 O  px         
     3      0.192607  1 O  px                48      0.192607  2 O  px         
    11      0.177738  1 O  px                56      0.177738  2 O  px         
     8     -0.156512  1 O  py                53     -0.156512  2 O  py         

 Vector    6  Occ=1.000000D+00  E=-1.009915D+00
              MO Center=  2.3D-15, -1.1D-14,  4.8D-09, r^2= 1.0D+00
   Bfn.  Coefficient  Atom+Function         Bfn.  Coefficient  Atom+Function  
  ----- ------------  ---------------      ----- ------------  ---------------
    10      0.413632  1 O  s                 55      0.413632  2 O  s          
     9     -0.284636  1 O  pz                54      0.284636  2 O  pz         
     5     -0.231853  1 O  pz                50      0.231853  2 O  pz         
    13     -0.187632  1 O  pz                58      0.187632  2 O  pz         

 Vector    7  Occ=1.000000D+00  E=-9.982365D-01
              MO Center=  5.1D-15,  7.6D-15, -2.3D-09, r^2= 7.1D-01
   Bfn.  Coefficient  Atom+Function         Bfn.  Coefficient  Atom+Function  
  ----- ------------  ---------------      ----- ------------  ---------------
     8      0.234972  1 O  py                53      0.234972  2 O  py         
     4      0.190516  1 O  py                49      0.190516  2 O  py         
    12      0.186057  1 O  py                57      0.186057  2 O  py         
     7      0.150150  1 O  px                52      0.150150  2 O  px         

 Vector    8  Occ=0.000000D+00  E=-7.063045D-01
              MO Center= -1.8D-15,  1.9D-15,  2.5D-09, r^2= 8.4D-01
   Bfn.  Coefficient  Atom+Function         Bfn.  Coefficient  Atom+Function  
  ----- ------------  ---------------      ----- ------------  ---------------
    11      0.307207  1 O  px                56     -0.307207  2 O  px         
     7      0.291311  1 O  px                52     -0.291311  2 O  px         
     3      0.227926  1 O  px                48     -0.227926  2 O  px         
    12     -0.196309  1 O  py                57      0.196309  2 O  py         
     8     -0.186152  1 O  py                53      0.186152  2 O  py         

 Vector    9  Occ=0.000000D+00  E=-6.468706D-01
              MO Center=  1.2D-15,  1.4D-15,  2.2D-09, r^2= 8.7D-01
   Bfn.  Coefficient  Atom+Function         Bfn.  Coefficient  Atom+Function  
  ----- ------------  ---------------      ----- ------------  ---------------
    12      0.323372  1 O  py                57     -0.323373  2 O  py         
     8      0.280329  1 O  py                53     -0.280329  2 O  py         
     4      0.225991  1 O  py                49     -0.225991  2 O  py         
    11      0.206640  1 O  px                56     -0.206640  2 O  px         
     7      0.179134  1 O  px                52     -0.179134  2 O  px         

 Vector   10  Occ=0.000000D+00  E=-1.962462D-01
              MO Center=  1.3D-15, -9.8D-16, -1.0D-08, r^2= 2.2D+00
   Bfn.  Coefficient  Atom+Function         Bfn.  Coefficient  Atom+Function  
  ----- ------------  ---------------      ----- ------------  ---------------
    14      2.156114  1 O  s                 59     -2.156115  2 O  s          
    17      0.983600  1 O  pz                62      0.983600  2 O  pz         
    35     -0.335418  1 O  dzz               80      0.335418  2 O  dzz        
     6      0.324741  1 O  s                 51     -0.324741  2 O  s          
     9      0.314685  1 O  pz                54      0.314685  2 O  pz         

 Vector   11  Occ=0.000000D+00  E=-1.934594D-01
              MO Center= -1.5D-14,  8.7D-15,  7.3D-09, r^2= 3.9D+00
   Bfn.  Coefficient  Atom+Function         Bfn.  Coefficient  Atom+Function  
  ----- ------------  ---------------      ----- ------------  ---------------
    14      0.860950  1 O  s                 59      0.860950  2 O  s          
    10     -0.326212  1 O  s                 55     -0.326212  2 O  s          
     6     -0.272723  1 O  s                 51     -0.272723  2 O  s          
    13      0.151137  1 O  pz                58     -0.151137  2 O  pz         

 Vector   12  Occ=0.000000D+00  E=-1.197863D-01
              MO Center=  1.4D-14, -7.4D-15, -2.9D-09, r^2= 4.9D+00
   Bfn.  Coefficient  Atom+Function         Bfn.  Coefficient  Atom+Function  
  ----- ------------  ---------------      ----- ------------  ---------------
    15      0.504478  1 O  px                60      0.504478  2 O  px         
    16     -0.322369  1 O  py                61     -0.322369  2 O  py         

 Vector   13  Occ=0.000000D+00  E=-1.112921D-01
              MO Center=  3.3D-16,  1.8D-15, -2.9D-09, r^2= 4.9D+00
   Bfn.  Coefficient  Atom+Function         Bfn.  Coefficient  Atom+Function  
  ----- ------------  ---------------      ----- ------------  ---------------
    16      0.510226  1 O  py                61      0.510226  2 O  py         
    15      0.326042  1 O  px                60      0.326042  2 O  px         

 Vector   14  Occ=0.000000D+00  E=-7.316392D-02
              MO Center= -1.5D-14,  1.6D-14, -1.5D-08, r^2= 5.1D+00
   Bfn.  Coefficient  Atom+Function         Bfn.  Coefficient  Atom+Function  
  ----- ------------  ---------------      ----- ------------  ---------------
    10      1.731133  1 O  s                 55     -1.731133  2 O  s          
    13      1.552826  1 O  pz                58      1.552826  2 O  pz         
    14     -1.408295  1 O  s                 59      1.408295  2 O  s          
    17     -1.199829  1 O  pz                62     -1.199829  2 O  pz         
     9      0.269614  1 O  pz                54      0.269614  2 O  pz         

 Vector   15  Occ=0.000000D+00  E=-5.182005D-02
              MO Center=  5.9D-16, -2.9D-17,  1.8D-08, r^2= 6.0D+00
   Bfn.  Coefficient  Atom+Function         Bfn.  Coefficient  Atom+Function  
  ----- ------------  ---------------      ----- ------------  ---------------
    17      1.242250  1 O  pz                62     -1.242250  2 O  pz         
    14     -0.278904  1 O  s                 59     -0.278904  2 O  s          

 Vector   16  Occ=0.000000D+00  E=-7.979525D-03
              MO Center=  2.4D-14, -1.5D-14,  3.0D-09, r^2= 6.3D+00
   Bfn.  Coefficient  Atom+Function         Bfn.  Coefficient  Atom+Function  
  ----- ------------  ---------------      ----- ------------  ---------------
    15      1.556492  1 O  px                60     -1.556492  2 O  px         
    16     -0.994622  1 O  py                61      0.994622  2 O  py         
    11     -0.196861  1 O  px                56      0.196861  2 O  px         

 Vector   17  Occ=0.000000D+00  E=-1.552144D-03
              MO Center= -7.6D-15, -1.1D-14,  2.9D-09, r^2= 6.3D+00
   Bfn.  Coefficient  Atom+Function         Bfn.  Coefficient  Atom+Function  
  ----- ------------  ---------------      ----- ------------  ---------------
    16      1.569511  1 O  py                61     -1.569511  2 O  py         
    15      1.002942  1 O  px                60     -1.002942  2 O  px         
    12     -0.218233  1 O  py                57      0.218233  2 O  py         

 Vector   18  Occ=0.000000D+00  E= 1.181583D-01
              MO Center= -3.7D-15,  1.3D-14,  7.4D-10, r^2= 7.7D+00
   Bfn.  Coefficient  Atom+Function         Bfn.  Coefficient  Atom+Function  
  ----- ------------  ---------------      ----- ------------  ---------------
    14     27.992207  1 O  s                 59    -27.992207  2 O  s          
    17      8.779357  1 O  pz                62      8.779357  2 O  pz         
    10     -0.853001  1 O  s                 55      0.853001  2 O  s          
    35     -0.334515  1 O  dzz               80      0.334515  2 O  dzz        
     6     -0.280906  1 O  s                 51      0.280906  2 O  s          

 Vector   19  Occ=0.000000D+00  E= 1.683382D-01
              MO Center= -5.2D-16,  3.7D-16, -9.7D-10, r^2= 1.7D+00
   Bfn.  Coefficient  Atom+Function         Bfn.  Coefficient  Atom+Function  
  ----- ------------  ---------------      ----- ------------  ---------------
    31      0.882863  1 O  dxy               76      0.882863  2 O  dxy        
    30     -0.231720  1 O  dxx               75     -0.231720  2 O  dxx        
    33      0.175081  1 O  dyy               78      0.175081  2 O  dyy        

 Vector   20  Occ=0.000000D+00  E= 1.684896D-01
              MO Center= -9.2D-16,  9.6D-18, -9.8D-10, r^2= 1.7D+00
   Bfn.  Coefficient  Atom+Function         Bfn.  Coefficient  Atom+Function  
  ----- ------------  ---------------      ----- ------------  ---------------
    30      0.441873  1 O  dxx               33     -0.441771  1 O  dyy        
    75      0.441873  2 O  dxx               78     -0.441771  2 O  dyy        
    31      0.407164  1 O  dxy               76      0.407164  2 O  dxy        

 Vector   21  Occ=0.000000D+00  E= 3.418943D-01
              MO Center= -6.8D-16,  4.2D-16, -8.5D-10, r^2= 3.7D+00
   Bfn.  Coefficient  Atom+Function         Bfn.  Coefficient  Atom+Function  
  ----- ------------  ---------------      ----- ------------  ---------------
    17      1.010794  1 O  pz                62     -1.010794  2 O  pz         
    33     -0.985964  1 O  dyy               78     -0.985964  2 O  dyy        
    30     -0.972686  1 O  dxx               75     -0.972686  2 O  dxx        
    14      0.938020  1 O  s                 59      0.938020  2 O  s          
    10      0.802377  1 O  s                 55      0.802377  2 O  s          

 Vector   22  Occ=0.000000D+00  E= 4.037604D-01
              MO Center=  5.6D-15, -2.7D-15, -9.5D-10, r^2= 1.9D+00
   Bfn.  Coefficient  Atom+Function         Bfn.  Coefficient  Atom+Function  
  ----- ------------  ---------------      ----- ------------  ---------------
    32      1.000054  1 O  dxz               77     -1.000054  2 O  dxz        
    34     -0.639049  1 O  dyz               79      0.639049  2 O  dyz        
    11     -0.188039  1 O  px                56     -0.188039  2 O  px         

 Vector   23  Occ=0.000000D+00  E= 4.199108D-01
              MO Center=  4.7D-15,  6.6D-15, -1.1D-09, r^2= 2.0D+00
   Bfn.  Coefficient  Atom+Function         Bfn.  Coefficient  Atom+Function  
  ----- ------------  ---------------      ----- ------------  ---------------
    34      1.008621  1 O  dyz               79     -1.008621  2 O  dyz        
    32      0.644523  1 O  dxz               77     -0.644523  2 O  dxz        
    12     -0.251853  1 O  py                57     -0.251853  2 O  py         
    11     -0.160938  1 O  px                56     -0.160938  2 O  px         

 Vector   24  Occ=0.000000D+00  E= 4.536471D-01
              MO Center=  1.3D-14, -5.0D-15, -2.5D-08, r^2= 4.7D+00
   Bfn.  Coefficient  Atom+Function         Bfn.  Coefficient  Atom+Function  
  ----- ------------  ---------------      ----- ------------  ---------------
    10     14.912071  1 O  s                 55    -14.912071  2 O  s          
    13     11.040060  1 O  pz                58     11.040060  2 O  pz         
    14      4.756218  1 O  s                 59     -4.756218  2 O  s          
    35      2.704288  1 O  dzz               80     -2.704288  2 O  dzz        
    30     -0.716741  1 O  dxx               33     -0.718480  1 O  dyy        

 Vector   25  Occ=0.000000D+00  E= 4.931487D-01
              MO Center=  3.0D-14, -3.9D-14,  2.5D-08, r^2= 4.3D+00
   Bfn.  Coefficient  Atom+Function         Bfn.  Coefficient  Atom+Function  
  ----- ------------  ---------------      ----- ------------  ---------------
    10      1.412802  1 O  s                 55      1.412803  2 O  s          
    35     -1.162496  1 O  dzz               80     -1.162496  2 O  dzz        
    17     -0.842608  1 O  pz                62      0.842608  2 O  pz         
    13      0.735917  1 O  pz                58     -0.735917  2 O  pz         
    14      0.670903  1 O  s                 59      0.670903  2 O  s          

 Vector   26  Occ=0.000000D+00  E= 5.038132D-01
              MO Center= -4.4D-14,  2.7D-14, -6.0D-09, r^2= 3.0D+00
   Bfn.  Coefficient  Atom+Function         Bfn.  Coefficient  Atom+Function  
  ----- ------------  ---------------      ----- ------------  ---------------
    11      0.878610  1 O  px                56      0.878610  2 O  px         
    12     -0.561444  1 O  py                57     -0.561444  2 O  py         
    15     -0.458902  1 O  px                60     -0.458902  2 O  px         
     7     -0.393051  1 O  px                52     -0.393051  2 O  px         
    16      0.293245  1 O  py                61      0.293245  2 O  py         


   alpha - beta orbital overlaps 
   ----------------------------- 


   alpha      1      2      3      4      5      6      7      8      9     10
    beta      1      2      3      4      7      5      6      9      8     10
 overlap   1.000  1.000  1.000  1.000  0.999  1.000  1.000  0.999  1.000  0.999


   alpha     11     12     13     14     15     16     17     18     19     20
    beta     11     13     12     14     15     17     16     18     20     19
 overlap   1.000  1.000  1.000  0.999  1.000  0.999  1.000  1.000  1.000  1.000


   alpha     21     22     23     24     25     26     27     28     29     30
    beta     21     22     23     24     25     27     26     29     28     31
 overlap   1.000  1.000  1.000  1.000  1.000  0.999  1.000  1.000  0.999  0.999


   alpha     31     32     33     34     35     36     37     38     39     40
    beta     30     32     34     33     35     36     37     38     39     40
 overlap   1.000  0.999  1.000  1.000  1.000  1.000  1.000  1.000  1.000  1.000


   alpha     41     42     43     44     45     46     47     48     49     50
    beta     42     41     43     45     44     46     47     48     49     50
 overlap   1.000  0.984  0.984  1.000  1.000  1.000  1.000  1.000  1.000  1.000


   alpha     51     52     53     54     55     56     57     58     59     60
    beta     51     52     53     54     55     57     56     59     58     60
 overlap   1.000  1.000  1.000  1.000  1.000  1.000  1.000  1.000  1.000  1.000


   alpha     61     62     63     64     65     66     67     68     69     70
    beta     61     62     63     64     65     66     67     68     69     70
 overlap   1.000  1.000  1.000  1.000  1.000  1.000  1.000  1.000  1.000  1.000


   alpha     71     72     73     74     75     76     77     78     79     80
    beta     71     72     73     74     75     76     77     78     79     80
 overlap   1.000  1.000  1.000  1.000  1.000  1.000  1.000  1.000  1.000  1.000


   alpha     81     82     83     84     85     86     87     88     89     90
    beta     81     82     83     84     85     86     87     88     89     90
 overlap   1.000  1.000  1.000  1.000  1.000  1.000  1.000  1.000  1.000  1.000


     --------------------------
     Expectation value of S2:  
     --------------------------
      <S2> =      0.7519 (Exact =     0.7500)


 center of mass
 --------------
 x =   0.00000000 y =   0.00000000 z =   0.00000000

 moments of inertia (a.u.)
 ------------------
          35.187434926554           0.000000000000           0.000000000000
           0.000000000000          35.187434926554           0.000000000000
           0.000000000000           0.000000000000           0.000000000000

     Multipole analysis of the density
     ---------------------------------

     L   x y z        total         alpha         beta         nuclear
     -   - - -        -----         -----         ----         -------
     0   0 0 0      1.000000     -8.000000     -7.000000     16.000000

     1   1 0 0     -0.000000     -0.000000     -0.000000      0.000000
     1   0 1 0     -0.000000     -0.000000     -0.000000      0.000000
     1   0 0 1      0.000000      0.000000      0.000000      0.000000

     2   2 0 0     -5.862829     -3.142649     -2.720181      0.000000
     2   1 1 0     -0.253028     -0.266958      0.013930      0.000000
     2   1 0 1      0.000000      0.000000      0.000000      0.000000
     2   0 2 0     -6.097105     -3.389823     -2.707282      0.000000
     2   0 1 1     -0.000000     -0.000000      0.000000      0.000000
     2   0 0 2     -4.958226    -12.106648    -10.450893     17.599316


 Parallel integral file used      60 records with       0 large values


 Task  times  cpu:        1.7s     wall:        2.4s


                                NWChem Input Module
                                -------------------


 Summary of allocated global arrays
-----------------------------------
  No active global arrays



                         GA Statistics for process    0
                         ------------------------------

       create   destroy   get      put      acc     scatter   gather  read&inc
calls:  273      273     1999     1401      393        0        0       51     
number of processes/call 1.95e+00 1.32e+00 3.63e+00 0.00e+00 0.00e+00
bytes total:             3.19e+07 5.41e+06 1.50e+07 0.00e+00 0.00e+00 4.08e+02
bytes remote:            2.25e+07 2.12e+06 1.18e+07 0.00e+00 0.00e+00 0.00e+00
Max memory consumed for GA by this process: 1020600 bytes

MA_summarize_allocated_blocks: starting scan ...
MA_summarize_allocated_blocks: scan completed: 0 heap blocks, 0 stack blocks
MA usage statistics:

	allocation statistics:
					      heap	     stack
					      ----	     -----
	current number of blocks	         0	         0
	maximum number of blocks	        23	        51
	current total bytes		         0	         0
	maximum total bytes		   9656392	  23807720
	maximum total K-bytes		      9657	     23808
	maximum total M-bytes		        10	        24


                                     CITATION
                                     --------
                Please cite the following reference when publishing
                           results obtained with NWChem:

                 M. Valiev, E.J. Bylaska, N. Govind, K. Kowalski,
              T.P. Straatsma, H.J.J. van Dam, D. Wang, J. Nieplocha,
                        E. Apra, T.L. Windus, W.A. de Jong
                 "NWChem: a comprehensive and scalable open-source
                  solution for large scale molecular simulations"
                      Comput. Phys. Commun. 181, 1477 (2010)
                           doi:10.1016/j.cpc.2010.04.018

                                      AUTHORS
                                      -------
          E. Apra, E. J. Bylaska, W. A. de Jong, N. Govind, K. Kowalski,
       T. P. Straatsma, M. Valiev, H. J. J. van Dam, D. Wang, T. L. Windus,
        J. Hammond, J. Autschbach, K. Bhaskaran-Nair, J. Brabec, K. Lopata,
       S. A. Fischer, S. Krishnamoorthy, W. Ma, M. Klemm, O. Villa, Y. Chen,
    V. Anisimov, F. Aquino, S. Hirata, M. T. Hackler, T. Risthaus, M. Malagoli,
       A. Marenich, A. Otero-de-la-Roza, J. Mullin, P. Nichols, R. Peverati,
     J. Pittner, Y. Zhao, P.-D. Fan, A. Fonari, M. Williamson, R. J. Harrison,
       J. R. Rehr, M. Dupuis, D. Silverstein, D. M. A. Smith, J. Nieplocha,
        V. Tipparaju, M. Krishnan, B. E. Van Kuiken, A. Vazquez-Mayagoitia,
        L. Jensen, M. Swart, Q. Wu, T. Van Voorhis, A. A. Auer, M. Nooijen,
      L. D. Crosby, E. Brown, G. Cisneros, G. I. Fann, H. Fruchtl, J. Garza,
        K. Hirao, R. A. Kendall, J. A. Nichols, K. Tsemekhman, K. Wolinski,
     J. Anchell, D. E. Bernholdt, P. Borowski, T. Clark, D. Clerc, H. Dachsel,
   M. J. O. Deegan, K. Dyall, D. Elwood, E. Glendening, M. Gutowski, A. C. Hess,
         J. Jaffe, B. G. Johnson, J. Ju, R. Kobayashi, R. Kutteh, Z. Lin,
   R. Littlefield, X. Long, B. Meng, T. Nakajima, S. Niu, L. Pollack, M. Rosing,
   K. Glaesemann, G. Sandrone, M. Stave, H. Taylor, G. Thomas, J. H. van Lenthe,
                               A. T. Wong, Z. Zhang.

 Total times  cpu:        1.7s     wall:        2.6s
