[1537795776.595030] [r8n4:6328 :0]         sys.c:744  MXM  WARN  Conflicting CPU frequencies detected, using: 2299.91
[1537795776.596292] [r8n4:6330 :0]         sys.c:744  MXM  WARN  Conflicting CPU frequencies detected, using: 2299.91
[1537795776.596371] [r8n4:6331 :0]         sys.c:744  MXM  WARN  Conflicting CPU frequencies detected, using: 2299.91
[1537795776.597592] [r8n4:6329 :0]         sys.c:744  MXM  WARN  Conflicting CPU frequencies detected, using: 2299.91
[1537795776.597830] [r8n4:6333 :0]         sys.c:744  MXM  WARN  Conflicting CPU frequencies detected, using: 2299.91
[1537795776.597962] [r8n4:6332 :0]         sys.c:744  MXM  WARN  Conflicting CPU frequencies detected, using: 2299.91
[1537795776.597978] [r8n4:6334 :0]         sys.c:744  MXM  WARN  Conflicting CPU frequencies detected, using: 2299.91
[1537795776.608674] [r8n4:6336 :0]         sys.c:744  MXM  WARN  Conflicting CPU frequencies detected, using: 2299.91
[1537795776.617992] [r8n4:6340 :0]         sys.c:744  MXM  WARN  Conflicting CPU frequencies detected, using: 1991.12
[1537795776.618290] [r8n4:6338 :0]         sys.c:744  MXM  WARN  Conflicting CPU frequencies detected, using: 1991.12
[1537795776.639745] [r8n4:6352 :0]         sys.c:744  MXM  WARN  Conflicting CPU frequencies detected, using: 1899.92
[1537795776.640334] [r8n4:6346 :0]         sys.c:744  MXM  WARN  Conflicting CPU frequencies detected, using: 1899.92
[1537795776.640371] [r8n4:6348 :0]         sys.c:744  MXM  WARN  Conflicting CPU frequencies detected, using: 1899.92
[1537795776.640608] [r8n4:6350 :0]         sys.c:744  MXM  WARN  Conflicting CPU frequencies detected, using: 1899.92
[1537795776.641921] [r8n4:6342 :0]         sys.c:744  MXM  WARN  Conflicting CPU frequencies detected, using: 1999.65
[1537795776.642067] [r8n4:6344 :0]         sys.c:744  MXM  WARN  Conflicting CPU frequencies detected, using: 1999.65
 argument  1 = /storage/home/bikashp/nwchem_run/rabeet/ip13g2/nwip13g2/O2.nw
                                         
                                         


              Northwest Computational Chemistry Package (NWChem) 6.6
              ------------------------------------------------------


                    Environmental Molecular Sciences Laboratory
                       Pacific Northwest National Laboratory
                                Richland, WA 99352

                              Copyright (c) 1994-2015
                       Pacific Northwest National Laboratory
                            Battelle Memorial Institute

             NWChem is an open-source computational chemistry package
                        distributed under the terms of the
                      Educational Community License (ECL) 2.0
             A copy of the license is included with this distribution
                              in the LICENSE.TXT file

                                  ACKNOWLEDGMENT
                                  --------------

            This software and its documentation were developed at the
            EMSL at Pacific Northwest National Laboratory, a multiprogram
            national laboratory, operated for the U.S. Department of Energy
            by Battelle under Contract Number DE-AC05-76RL01830. Support
            for this work was provided by the Department of Energy Office
            of Biological and Environmental Research, Office of Basic
            Energy Sciences, and the Office of Advanced Scientific Computing.


           Job information
           ---------------

    hostname        = r8n4.niserhpc.org
    program         = /home/bikashp/Code/nwchem-6.6_tpssloc/bin/LINUX64/nwchem
    date            = Mon Sep 24 18:59:39 2018

    compiled        = Tue_Sep_18_16:24:59_2018
    source          = /home/bikashp/Code/nwchem-6.6_tpssloc
    nwchem branch   = 6.6
    nwchem revision = 27746
    ga revision     = 10594
    input           = /storage/home/bikashp/nwchem_run/rabeet/ip13g2/nwip13g2/O2.nw
    prefix          = O2.
    data base       = ./O2.db
    status          = startup
    nproc           =       16
    time left       =     -1s



           Memory information
           ------------------

    heap     =   13107196 doubles =    100.0 Mbytes
    stack    =   13107201 doubles =    100.0 Mbytes
    global   =   26214400 doubles =    200.0 Mbytes (distinct from heap & stack)
    total    =   52428797 doubles =    400.0 Mbytes
    verify   = yes
    hardfail = no 


           Directory information
           ---------------------

  0 permanent = .
  0 scratch   = .




                                NWChem Input Module
                                -------------------



 Scaling coordinates for geometry "geometry" by  1.889725989
 (inverse scale =  0.529177249)


          ------
          auto-z
          ------


                             Geometry "geometry" -> ""
                             -------------------------

 Output coordinates in angstroms (scale by  1.889725989 to convert to a.u.)

  No.       Tag          Charge          X              Y              Z
 ---- ---------------- ---------- -------------- -------------- --------------
    1 O                    8.0000     0.00000000     0.00000000    -0.60066000
    2 O                    8.0000     0.00000000     0.00000000     0.60066000

      Atomic Mass 
      ----------- 

      O                 15.994910


 Effective nuclear repulsion energy (a.u.)      28.1917756601

            Nuclear Dipole moment (a.u.) 
            ----------------------------
        X                 Y               Z
 ---------------- ---------------- ----------------
     0.0000000000     0.0000000000     0.0000000000



                                Z-matrix (autoz)
                                -------- 

 Units are Angstrom for bonds and degrees for angles

      Type          Name      I     J     K     L     M      Value
      ----------- --------  ----- ----- ----- ----- ----- ----------
    1 Stretch                  1     2                       1.20132


            XYZ format geometry
            -------------------
     2
 geometry
 O                     0.00000000     0.00000000    -0.60066000
 O                     0.00000000     0.00000000     0.60066000

 ==============================================================================
                                internuclear distances
 ------------------------------------------------------------------------------
       center one      |      center two      | atomic units |  angstroms
 ------------------------------------------------------------------------------
    2 O                |   1 O                |     2.27017  |     1.20132
 ------------------------------------------------------------------------------
                         number of included internuclear distances:          1
 ==============================================================================





 Summary of "ao basis" -> "" (cartesian)
 ------------------------------------------------------------------------------
       Tag                 Description            Shells   Functions and Types
 ---------------- ------------------------------  ------  ---------------------
 *                     6-311++G(3df,3pd)              on all atoms 



                                 NWChem DFT Module
                                 -----------------


                      Basis "ao basis" -> "ao basis" (cartesian)
                      -----
  O (Oxygen)
  ----------
            Exponent  Coefficients 
       -------------- ---------------------------------------------------------
  1 S  8.58850000E+03  0.001895
  1 S  1.29723000E+03  0.014386
  1 S  2.99296000E+02  0.070732
  1 S  8.73771000E+01  0.240001
  1 S  2.56789000E+01  0.594797
  1 S  3.74004000E+00  0.280802

  2 S  4.21175000E+01  0.113889
  2 S  9.62837000E+00  0.920811
  2 S  2.85332000E+00 -0.003274

  3 P  4.21175000E+01  0.036511
  3 P  9.62837000E+00  0.237153
  3 P  2.85332000E+00  0.819702

  4 S  9.05661000E-01  1.000000

  5 P  9.05661000E-01  1.000000

  6 S  2.55611000E-01  1.000000

  7 P  2.55611000E-01  1.000000

  8 S  8.45000000E-02  1.000000

  9 P  8.45000000E-02  1.000000

 10 D  5.16000000E+00  1.000000

 11 D  1.29200000E+00  1.000000

 12 D  3.22500000E-01  1.000000

 13 F  1.40000000E+00  1.000000



 Summary of "ao basis" -> "ao basis" (cartesian)
 ------------------------------------------------------------------------------
       Tag                 Description            Shells   Functions and Types
 ---------------- ------------------------------  ------  ---------------------
 O                     6-311++G(3df,3pd)            13       45   5s4p3d1f




 Summary of "ao basis" -> "ao basis" (cartesian)
 ------------------------------------------------------------------------------
       Tag                 Description            Shells   Functions and Types
 ---------------- ------------------------------  ------  ---------------------
 O                     6-311++G(3df,3pd)            13       45   5s4p3d1f


  Caching 1-el integrals 

            General Information
            -------------------
          SCF calculation type: DFT
          Wavefunction type:  spin polarized.
          No. of atoms     :     2
          No. of electrons :    16
           Alpha electrons :     9
            Beta electrons :     7
          Charge           :     0
          Spin multiplicity:     3
          Use of symmetry is: off; symmetry adaption is: off
          Maximum number of iterations: ***
          AO basis - number of functions:    90
                     number of shells:    26
          Convergence on energy requested: 1.00D-06
          Convergence on density requested: 1.00D-05
          Convergence on gradient requested: 5.00D-04

              XC Information
              --------------
                  TPSS metaGGA Exchange Functional  1.000          
             TPSS03 metaGGA Correlation Functional  1.000          

             Grid Information
             ----------------
          Grid used for XC integration:  medium    
          Radial quadrature: Mura-Knowles        
          Angular quadrature: Lebedev. 
          Tag              B.-S. Rad. Rad. Pts. Rad. Cut. Ang. Pts.
          ---              ---------- --------- --------- ---------
          O                   0.60       49           7.0       434
          Grid pruning is: on 
          Number of quadrature shells:    98
          Spatial weights used:  Erf1

          Convergence Information
          -----------------------
          Convergence aids based upon iterative change in 
          total energy or number of iterations. 
          Levelshifting, if invoked, occurs when the 
          HOMO/LUMO gap drops below (HL_TOL): 1.00D-02
          DIIS, if invoked, will attempt to extrapolate 
          using up to (NFOCK): 10 stored Fock matrices.

                    Damping( 0%)  Levelshifting(0.5)       DIIS
                  --------------- ------------------- ---------------
          dE  on:    start            ASAP                start   
          dE off:    2 iters        *** iters           *** iters 


      Screening Tolerance Information
      -------------------------------
          Density screening/tol_rho: 1.00D-10
          AO Gaussian exp screening on grid/accAOfunc:  14
          CD Gaussian exp screening on grid/accCDfunc:  20
          XC Gaussian exp screening on grid/accXCfunc:  20
          Schwarz screening/accCoul: 1.00D-08


      Superposition of Atomic Density Guess
      -------------------------------------

 Sum of atomic energies:        -149.55557143

      Non-variational initial energy
      ------------------------------

 Total energy =    -149.650922
 1-e energy   =    -262.311081
 2-e energy   =      84.468383
 HOMO         =      -0.200713
 LUMO         =      -0.200713

   Time after variat. SCF:      0.6
   Time prior to 1st pass:      0.6

 Integral file          = ./O2.aoints.00
 Record size in doubles =    65536    No. of integs per rec  =    43688
 Max. records in memory =       18    Max. records in file   = 11667131
 No. of bits per label  =        8    No. of bits per value  =       64


 #quartets = 6.119D+04 #integrals = 2.218D+06 #direct =  0.0% #cached =100.0%


File balance: exchanges=     0  moved=     0  time=   0.0


 Grid_pts file          = ./O2.gridpts.00
 Record size in doubles =  12289        No. of grid_pts per rec  =   3070
 Max. records in memory =      2        Max. recs in file   =  62219642


           Memory utilization after 1st SCF pass: 
           Heap Space remaining (MW):       11.90            11900100
          Stack Space remaining (MW):       13.11            13106372

   convergence    iter        energy       DeltaE   RMS-Dens  Diis-err    time
 ---------------- ----- ----------------- --------- --------- ---------  ------
 d= 0,ls=0.0,diis     1   -150.3607982552 -1.79D+02  5.98D-03  2.65D-01     1.2
                                                     6.19D-03  1.85D-01
 d= 0,ls=0.0,diis     2   -150.3988472513 -3.80D-02  1.71D-03  5.68D-02     1.3
                                                     1.49D-03  4.69D-02
 d= 0,ls=0.0,diis     3   -150.3896645724  9.18D-03  7.13D-04  1.10D-02     1.4
                                                     6.45D-04  7.09D-03
 d= 0,ls=0.0,diis     4   -150.3982902498 -8.63D-03  7.04D-05  7.04D-05     1.6
                                                     7.03D-05  6.31D-05
 d= 0,ls=0.0,diis     5   -150.3977877482  5.03D-04  2.79D-05  1.00D-05     1.7
                                                     3.09D-05  6.27D-06
  Resetting Diis
 d= 0,ls=0.0,diis     6   -150.3979037016 -1.16D-04  1.79D-06  2.29D-08     1.8
                                                     1.90D-06  1.45D-08
 d= 0,ls=0.0,diis     7   -150.3979150321 -1.13D-05  2.22D-07  2.60D-10     2.0
                                                     2.12D-07  2.60D-10
 d= 0,ls=0.0,diis     8   -150.3979133276  1.70D-06  9.15D-08  2.94D-10     2.1
                                                     1.05D-07  2.48D-10
 d= 0,ls=0.0,diis     9   -150.3979142038 -8.76D-07  3.40D-08  1.75D-10     2.2
                                                     5.17D-08  1.92D-10


         Total DFT energy =     -150.397914203759
      One electron energy =     -261.522042345366
           Coulomb energy =       99.908546463126
          Exchange energy =      -16.435799646610
       Correlation energy =       -0.540394335000
 Nuclear repulsion energy =       28.191775660091

 Numeric. integr. density =       15.999999869090

     Total iterative time =      1.6s



                    DFT Final Alpha Molecular Orbital Analysis
                    ------------------------------------------

 Vector    1  Occ=1.000000D+00  E=-1.912370D+01
              MO Center= -8.4D-18, -5.6D-17,  4.8D-03, r^2= 3.8D-01
   Bfn.  Coefficient  Atom+Function         Bfn.  Coefficient  Atom+Function  
  ----- ------------  ---------------      ----- ------------  ---------------
    46      0.390787  2 O  s                  1      0.387665  1 O  s          
    47      0.334400  2 O  s                  2      0.331728  1 O  s          

 Vector    2  Occ=1.000000D+00  E=-1.912362D+01
              MO Center= -7.3D-17, -7.7D-17, -4.8D-03, r^2= 3.8D-01
   Bfn.  Coefficient  Atom+Function         Bfn.  Coefficient  Atom+Function  
  ----- ------------  ---------------      ----- ------------  ---------------
     1      0.390798  1 O  s                 46     -0.387676  2 O  s          
     2      0.334372  1 O  s                 47     -0.331700  2 O  s          

 Vector    3  Occ=1.000000D+00  E=-1.296073D+00
              MO Center=  6.7D-16,  1.2D-16,  2.5D-07, r^2= 4.7D-01
   Bfn.  Coefficient  Atom+Function         Bfn.  Coefficient  Atom+Function  
  ----- ------------  ---------------      ----- ------------  ---------------
    10      0.389842  1 O  s                 55      0.389843  2 O  s          
     6      0.386461  1 O  s                 51      0.386461  2 O  s          

 Vector    4  Occ=1.000000D+00  E=-8.366018D-01
              MO Center= -1.6D-15, -6.3D-16,  4.4D-07, r^2= 1.1D+00
   Bfn.  Coefficient  Atom+Function         Bfn.  Coefficient  Atom+Function  
  ----- ------------  ---------------      ----- ------------  ---------------
    10      0.625095  1 O  s                 55     -0.625095  2 O  s          
     6      0.415500  1 O  s                 51     -0.415500  2 O  s          
     2     -0.161795  1 O  s                 47      0.161795  2 O  s          

 Vector    5  Occ=1.000000D+00  E=-5.867787D-01
              MO Center= -7.2D-16, -7.8D-15,  7.2D-07, r^2= 8.3D-01
   Bfn.  Coefficient  Atom+Function         Bfn.  Coefficient  Atom+Function  
  ----- ------------  ---------------      ----- ------------  ---------------
     8      0.290529  1 O  py                53      0.290530  2 O  py         
    12      0.248348  1 O  py                57      0.248349  2 O  py         
     4      0.219484  1 O  py                49      0.219484  2 O  py         

 Vector    6  Occ=1.000000D+00  E=-5.867787D-01
              MO Center=  2.0D-14, -1.4D-15,  7.2D-07, r^2= 8.3D-01
   Bfn.  Coefficient  Atom+Function         Bfn.  Coefficient  Atom+Function  
  ----- ------------  ---------------      ----- ------------  ---------------
     7      0.290529  1 O  px                52      0.290530  2 O  px         
    11      0.248348  1 O  px                56      0.248349  2 O  px         
     3      0.219484  1 O  px                48      0.219484  2 O  px         

 Vector    7  Occ=1.000000D+00  E=-5.713796D-01
              MO Center= -2.1D-14,  8.9D-15, -5.0D-07, r^2= 1.1D+00
   Bfn.  Coefficient  Atom+Function         Bfn.  Coefficient  Atom+Function  
  ----- ------------  ---------------      ----- ------------  ---------------
    10      0.385294  1 O  s                 55      0.385293  2 O  s          
     9     -0.288172  1 O  pz                54      0.288172  2 O  pz         
    13     -0.226895  1 O  pz                58      0.226895  2 O  pz         
     5     -0.224679  1 O  pz                50      0.224679  2 O  pz         

 Vector    8  Occ=1.000000D+00  E=-3.237127D-01
              MO Center= -1.4D-16,  9.9D-16, -6.9D-07, r^2= 9.7D-01
   Bfn.  Coefficient  Atom+Function         Bfn.  Coefficient  Atom+Function  
  ----- ------------  ---------------      ----- ------------  ---------------
    12      0.336516  1 O  py                57     -0.336516  2 O  py         
     8      0.296909  1 O  py                53     -0.296908  2 O  py         
     4      0.223556  1 O  py                49     -0.223556  2 O  py         
    11     -0.186971  1 O  px                56      0.186971  2 O  px         
     7     -0.164965  1 O  px                52      0.164965  2 O  px         

 Vector    9  Occ=1.000000D+00  E=-3.237127D-01
              MO Center=  8.2D-16,  1.7D-16, -6.9D-07, r^2= 9.7D-01
   Bfn.  Coefficient  Atom+Function         Bfn.  Coefficient  Atom+Function  
  ----- ------------  ---------------      ----- ------------  ---------------
    11      0.336516  1 O  px                56     -0.336516  2 O  px         
     7      0.296909  1 O  px                52     -0.296908  2 O  px         
     3      0.223556  1 O  px                48     -0.223556  2 O  px         
    12      0.186971  1 O  py                57     -0.186971  2 O  py         
     8      0.164965  1 O  py                53     -0.164965  2 O  py         

 Vector   10  Occ=0.000000D+00  E= 4.977972D-02
              MO Center= -3.9D-15,  2.9D-15,  6.5D-06, r^2= 4.1D+00
   Bfn.  Coefficient  Atom+Function         Bfn.  Coefficient  Atom+Function  
  ----- ------------  ---------------      ----- ------------  ---------------
    14      2.889167  1 O  s                 59     -2.889160  2 O  s          
    17      1.523919  1 O  pz                62      1.523920  2 O  pz         
    13     -0.437059  1 O  pz                58     -0.437060  2 O  pz         
    10     -0.374425  1 O  s                 55      0.374424  2 O  s          
    35     -0.316688  1 O  dzz               80      0.316686  2 O  dzz        

 Vector   11  Occ=0.000000D+00  E= 5.435682D-02
              MO Center= -2.5D-14, -1.2D-14, -5.8D-06, r^2= 4.7D+00
   Bfn.  Coefficient  Atom+Function         Bfn.  Coefficient  Atom+Function  
  ----- ------------  ---------------      ----- ------------  ---------------
    14      0.996716  1 O  s                 59      0.996738  2 O  s          
     6     -0.256194  1 O  s                 51     -0.256192  2 O  s          
    10     -0.197280  1 O  s                 35     -0.197287  1 O  dzz        
    55     -0.197282  2 O  s                 80     -0.197289  2 O  dzz        
    30     -0.159651  1 O  dxx               33     -0.159651  1 O  dyy        

 Vector   12  Occ=0.000000D+00  E= 1.178637D-01
              MO Center= -1.9D-15,  2.9D-15,  8.5D-07, r^2= 5.2D+00
   Bfn.  Coefficient  Atom+Function         Bfn.  Coefficient  Atom+Function  
  ----- ------------  ---------------      ----- ------------  ---------------
    16      0.609441  1 O  py                61      0.609443  2 O  py         
    12     -0.222039  1 O  py                15     -0.223025  1 O  px         
    57     -0.222039  2 O  py                60     -0.223025  2 O  px         

 Vector   13  Occ=0.000000D+00  E= 1.178637D-01
              MO Center=  2.6D-14,  8.5D-15,  8.5D-07, r^2= 5.2D+00
   Bfn.  Coefficient  Atom+Function         Bfn.  Coefficient  Atom+Function  
  ----- ------------  ---------------      ----- ------------  ---------------
    15      0.609441  1 O  px                60      0.609443  2 O  px         
    11     -0.222039  1 O  px                16      0.223025  1 O  py         
    56     -0.222039  2 O  px                61      0.223025  2 O  py         

 Vector   14  Occ=0.000000D+00  E= 1.649477D-01
              MO Center=  7.4D-15,  1.7D-15,  4.6D-06, r^2= 4.1D+00
   Bfn.  Coefficient  Atom+Function         Bfn.  Coefficient  Atom+Function  
  ----- ------------  ---------------      ----- ------------  ---------------
    14      2.319312  1 O  s                 59     -2.319312  2 O  s          
    10     -1.831376  1 O  s                 55      1.831377  2 O  s          
    13     -1.807176  1 O  pz                58     -1.807176  2 O  pz         
    17      1.498859  1 O  pz                62      1.498865  2 O  pz         
     9     -0.311298  1 O  pz                54     -0.311298  2 O  pz         

 Vector   15  Occ=0.000000D+00  E= 1.734112D-01
              MO Center= -1.1D-16, -8.6D-16, -5.2D-06, r^2= 6.2D+00
   Bfn.  Coefficient  Atom+Function         Bfn.  Coefficient  Atom+Function  
  ----- ------------  ---------------      ----- ------------  ---------------
    17      1.307992  1 O  pz                62     -1.307986  2 O  pz         
    10     -0.163521  1 O  s                 55     -0.163511  2 O  s          

 Vector   16  Occ=0.000000D+00  E= 1.988080D-01
              MO Center=  2.4D-15, -3.7D-14, -8.5D-07, r^2= 6.6D+00
   Bfn.  Coefficient  Atom+Function         Bfn.  Coefficient  Atom+Function  
  ----- ------------  ---------------      ----- ------------  ---------------
    16      1.808511  1 O  py                61     -1.808511  2 O  py         
    12     -0.314174  1 O  py                57      0.314174  2 O  py         

 Vector   17  Occ=0.000000D+00  E= 1.988080D-01
              MO Center= -4.2D-14, -2.1D-15, -8.5D-07, r^2= 6.6D+00
   Bfn.  Coefficient  Atom+Function         Bfn.  Coefficient  Atom+Function  
  ----- ------------  ---------------      ----- ------------  ---------------
    15      1.808511  1 O  px                60     -1.808511  2 O  px         
    11     -0.314174  1 O  px                56      0.314174  2 O  px         

 Vector   18  Occ=0.000000D+00  E= 3.116014D-01
              MO Center=  4.5D-14,  4.5D-14, -2.1D-07, r^2= 7.5D+00
   Bfn.  Coefficient  Atom+Function         Bfn.  Coefficient  Atom+Function  
  ----- ------------  ---------------      ----- ------------  ---------------
    14     22.857638  1 O  s                 59    -22.857638  2 O  s          
    17      7.646623  1 O  pz                62      7.646623  2 O  pz         
    10     -0.854854  1 O  s                 55      0.854854  2 O  s          
    35     -0.463433  1 O  dzz               80      0.463433  2 O  dzz        
    30     -0.368782  1 O  dxx               33     -0.368782  1 O  dyy        

 Vector   19  Occ=0.000000D+00  E= 4.905384D-01
              MO Center= -4.7D-16, -3.3D-15,  2.5D-07, r^2= 1.7D+00
   Bfn.  Coefficient  Atom+Function         Bfn.  Coefficient  Atom+Function  
  ----- ------------  ---------------      ----- ------------  ---------------
    31      1.009072  1 O  dxy               76      1.009073  2 O  dxy        

 Vector   20  Occ=0.000000D+00  E= 4.905396D-01
              MO Center= -8.6D-16,  2.0D-16,  2.5D-07, r^2= 1.7D+00
   Bfn.  Coefficient  Atom+Function         Bfn.  Coefficient  Atom+Function  
  ----- ------------  ---------------      ----- ------------  ---------------
    30      0.504536  1 O  dxx               33     -0.504536  1 O  dyy        
    75      0.504536  2 O  dxx               78     -0.504536  2 O  dyy        

 Vector   21  Occ=0.000000D+00  E= 6.278327D-01
              MO Center= -3.6D-15, -1.0D-14,  3.4D-07, r^2= 3.4D+00
   Bfn.  Coefficient  Atom+Function         Bfn.  Coefficient  Atom+Function  
  ----- ------------  ---------------      ----- ------------  ---------------
    10      1.190732  1 O  s                 55      1.190736  2 O  s          
    30     -1.141187  1 O  dxx               33     -1.141187  1 O  dyy        
    75     -1.141188  2 O  dxx               78     -1.141188  2 O  dyy        
    14      1.019396  1 O  s                 59      1.019404  2 O  s          
    35     -0.728632  1 O  dzz               80     -0.728632  2 O  dzz        


                     DFT Final Beta Molecular Orbital Analysis
                     -----------------------------------------

 Vector    1  Occ=1.000000D+00  E=-1.909561D+01
              MO Center=  2.9D-17, -2.8D-17,  4.7D-03, r^2= 3.8D-01
   Bfn.  Coefficient  Atom+Function         Bfn.  Coefficient  Atom+Function  
  ----- ------------  ---------------      ----- ------------  ---------------
    46      0.391241  2 O  s                  1      0.388207  1 O  s          
    47      0.334203  2 O  s                  2      0.331611  1 O  s          

 Vector    2  Occ=1.000000D+00  E=-1.909552D+01
              MO Center=  6.9D-17,  2.4D-17, -4.7D-03, r^2= 3.8D-01
   Bfn.  Coefficient  Atom+Function         Bfn.  Coefficient  Atom+Function  
  ----- ------------  ---------------      ----- ------------  ---------------
     1      0.391253  1 O  s                 46     -0.388219  2 O  s          
     2      0.334168  1 O  s                 47     -0.331576  2 O  s          

 Vector    3  Occ=1.000000D+00  E=-1.259459D+00
              MO Center= -1.0D-15,  1.2D-15,  1.9D-07, r^2= 4.6D-01
   Bfn.  Coefficient  Atom+Function         Bfn.  Coefficient  Atom+Function  
  ----- ------------  ---------------      ----- ------------  ---------------
    10      0.386618  1 O  s                 55      0.386619  2 O  s          
     6      0.360071  1 O  s                 51      0.360071  2 O  s          

 Vector    4  Occ=1.000000D+00  E=-7.751459D-01
              MO Center= -4.5D-16,  2.2D-15,  6.6D-07, r^2= 1.1D+00
   Bfn.  Coefficient  Atom+Function         Bfn.  Coefficient  Atom+Function  
  ----- ------------  ---------------      ----- ------------  ---------------
    10      0.675969  1 O  s                 55     -0.675969  2 O  s          
     6      0.383870  1 O  s                 51     -0.383870  2 O  s          
    14      0.161286  1 O  s                 59     -0.161286  2 O  s          
     2     -0.155154  1 O  s                 47      0.155154  2 O  s          

 Vector    5  Occ=1.000000D+00  E=-5.498179D-01
              MO Center=  2.7D-15,  8.5D-15, -6.9D-07, r^2= 1.2D+00
   Bfn.  Coefficient  Atom+Function         Bfn.  Coefficient  Atom+Function  
  ----- ------------  ---------------      ----- ------------  ---------------
    10      0.387248  1 O  s                 55      0.387247  2 O  s          
     9     -0.277807  1 O  pz                54      0.277807  2 O  pz         
    13     -0.226966  1 O  pz                58      0.226966  2 O  pz         
     5     -0.220886  1 O  pz                50      0.220886  2 O  pz         

 Vector    6  Occ=1.000000D+00  E=-5.193135D-01
              MO Center= -2.5D-15, -7.5D-15,  5.5D-07, r^2= 8.6D-01
   Bfn.  Coefficient  Atom+Function         Bfn.  Coefficient  Atom+Function  
  ----- ------------  ---------------      ----- ------------  ---------------
    12      0.262343  1 O  py                57      0.262344  2 O  py         
     8      0.258703  1 O  py                53      0.258703  2 O  py         
     4      0.208087  1 O  py                49      0.208087  2 O  py         

 Vector    7  Occ=1.000000D+00  E=-5.193135D-01
              MO Center= -6.9D-16,  9.0D-16,  5.5D-07, r^2= 8.6D-01
   Bfn.  Coefficient  Atom+Function         Bfn.  Coefficient  Atom+Function  
  ----- ------------  ---------------      ----- ------------  ---------------
    11      0.262343  1 O  px                56      0.262344  2 O  px         
     7      0.258703  1 O  px                52      0.258703  2 O  px         
     3      0.208087  1 O  px                48      0.208087  2 O  px         

 Vector    8  Occ=0.000000D+00  E=-2.353279D-01
              MO Center= -6.0D-16, -2.2D-15, -5.2D-07, r^2= 1.1D+00
   Bfn.  Coefficient  Atom+Function         Bfn.  Coefficient  Atom+Function  
  ----- ------------  ---------------      ----- ------------  ---------------
    12      0.377173  1 O  py                57     -0.377173  2 O  py         
     8      0.283908  1 O  py                53     -0.283908  2 O  py         
     4      0.227143  1 O  py                49     -0.227143  2 O  py         
    11      0.161444  1 O  px                56     -0.161444  2 O  px         

 Vector    9  Occ=0.000000D+00  E=-2.353279D-01
              MO Center=  5.9D-16,  1.1D-15, -5.2D-07, r^2= 1.1D+00
   Bfn.  Coefficient  Atom+Function         Bfn.  Coefficient  Atom+Function  
  ----- ------------  ---------------      ----- ------------  ---------------
    11      0.377173  1 O  px                56     -0.377173  2 O  px         
     7      0.283908  1 O  px                52     -0.283908  2 O  px         
     3      0.227143  1 O  px                48     -0.227143  2 O  px         
    12     -0.161444  1 O  py                57      0.161444  2 O  py         

 Vector   10  Occ=0.000000D+00  E= 6.380879D-02
              MO Center=  1.9D-14,  1.2D-14,  4.8D-06, r^2= 4.7D+00
   Bfn.  Coefficient  Atom+Function         Bfn.  Coefficient  Atom+Function  
  ----- ------------  ---------------      ----- ------------  ---------------
    14      1.006769  1 O  s                 59      1.006753  2 O  s          
     6     -0.248215  1 O  s                 51     -0.248216  2 O  s          
    10     -0.224397  1 O  s                 55     -0.224394  2 O  s          
    35     -0.191233  1 O  dzz               80     -0.191231  2 O  dzz        
    30     -0.164404  1 O  dxx               33     -0.164404  1 O  dyy        

 Vector   11  Occ=0.000000D+00  E= 7.132458D-02
              MO Center= -1.6D-15,  9.2D-16, -4.0D-06, r^2= 5.0D+00
   Bfn.  Coefficient  Atom+Function         Bfn.  Coefficient  Atom+Function  
  ----- ------------  ---------------      ----- ------------  ---------------
    14      3.730684  1 O  s                 59     -3.730689  2 O  s          
    17      1.892530  1 O  pz                62      1.892530  2 O  pz         
    13     -0.688743  1 O  pz                58     -0.688742  2 O  pz         
    10     -0.617259  1 O  s                 55      0.617260  2 O  s          
    35     -0.380086  1 O  dzz               80      0.380087  2 O  dzz        

 Vector   12  Occ=0.000000D+00  E= 1.291794D-01
              MO Center= -7.2D-15,  5.5D-15,  7.3D-07, r^2= 5.2D+00
   Bfn.  Coefficient  Atom+Function         Bfn.  Coefficient  Atom+Function  
  ----- ------------  ---------------      ----- ------------  ---------------
    15      0.526643  1 O  px                60      0.526644  2 O  px         
    16     -0.396999  1 O  py                61     -0.397000  2 O  py         
    11     -0.211922  1 O  px                56     -0.211922  2 O  px         
    12      0.159753  1 O  py                57      0.159753  2 O  py         

 Vector   13  Occ=0.000000D+00  E= 1.291794D-01
              MO Center= -1.1D-14, -1.5D-14,  7.3D-07, r^2= 5.2D+00
   Bfn.  Coefficient  Atom+Function         Bfn.  Coefficient  Atom+Function  
  ----- ------------  ---------------      ----- ------------  ---------------
    16      0.526643  1 O  py                61      0.526644  2 O  py         
    15      0.396999  1 O  px                60      0.397000  2 O  px         
    12     -0.211922  1 O  py                57     -0.211922  2 O  py         
    11     -0.159753  1 O  px                56     -0.159753  2 O  px         

 Vector   14  Occ=0.000000D+00  E= 1.765310D-01
              MO Center= -3.0D-15, -2.4D-15,  3.4D-06, r^2= 6.3D+00
   Bfn.  Coefficient  Atom+Function         Bfn.  Coefficient  Atom+Function  
  ----- ------------  ---------------      ----- ------------  ---------------
    17      1.312370  1 O  pz                62     -1.312375  2 O  pz         
    10     -0.166343  1 O  s                 55     -0.166350  2 O  s          

 Vector   15  Occ=0.000000D+00  E= 1.858045D-01
              MO Center=  3.7D-14,  3.7D-14, -4.1D-06, r^2= 3.4D+00
   Bfn.  Coefficient  Atom+Function         Bfn.  Coefficient  Atom+Function  
  ----- ------------  ---------------      ----- ------------  ---------------
    10      1.820704  1 O  s                 55     -1.820704  2 O  s          
    14     -1.787782  1 O  s                 59      1.787783  2 O  s          
    13      1.775508  1 O  pz                58      1.775507  2 O  pz         
    17     -1.250627  1 O  pz                62     -1.250622  2 O  pz         
     9      0.327146  1 O  pz                54      0.327145  2 O  pz         

 Vector   16  Occ=0.000000D+00  E= 2.127899D-01
              MO Center=  1.5D-15, -3.7D-14, -7.2D-07, r^2= 6.6D+00
   Bfn.  Coefficient  Atom+Function         Bfn.  Coefficient  Atom+Function  
  ----- ------------  ---------------      ----- ------------  ---------------
    16      1.830942  1 O  py                61     -1.830941  2 O  py         
    12     -0.358923  1 O  py                57      0.358922  2 O  py         

 Vector   17  Occ=0.000000D+00  E= 2.127899D-01
              MO Center= -2.4D-14, -1.0D-15, -7.2D-07, r^2= 6.6D+00
   Bfn.  Coefficient  Atom+Function         Bfn.  Coefficient  Atom+Function  
  ----- ------------  ---------------      ----- ------------  ---------------
    15      1.830942  1 O  px                60     -1.830941  2 O  px         
    11     -0.358923  1 O  px                56      0.358922  2 O  px         

 Vector   18  Occ=0.000000D+00  E= 3.207337D-01
              MO Center= -1.6D-14,  1.5D-15, -1.6D-07, r^2= 7.4D+00
   Bfn.  Coefficient  Atom+Function         Bfn.  Coefficient  Atom+Function  
  ----- ------------  ---------------      ----- ------------  ---------------
    14     22.945081  1 O  s                 59    -22.945081  2 O  s          
    17      7.656513  1 O  pz                62      7.656513  2 O  pz         
    10     -0.857386  1 O  s                 55      0.857386  2 O  s          
    35     -0.457513  1 O  dzz               80      0.457513  2 O  dzz        
    30     -0.383861  1 O  dxx               33     -0.383861  1 O  dyy        

 Vector   19  Occ=0.000000D+00  E= 5.090937D-01
              MO Center= -2.3D-15, -1.4D-15,  2.0D-07, r^2= 1.8D+00
   Bfn.  Coefficient  Atom+Function         Bfn.  Coefficient  Atom+Function  
  ----- ------------  ---------------      ----- ------------  ---------------
    31      1.012861  1 O  dxy               76      1.012862  2 O  dxy        


   alpha - beta orbital overlaps 
   ----------------------------- 


   alpha      1      2      3      4      5      6      7      8      9     10
    beta      1      2      3      4      6      7      5      9      8     11
 overlap   1.000  1.000  0.999  0.999  0.992  0.992  0.999  0.789  0.789  0.991


   alpha     11     12     13     14     15     16     17     18     19     20
    beta     10     12     13     15     14     16     17     18     19     20
 overlap   1.000  0.839  0.839  0.992  1.000  0.999  0.999  0.999  1.000  1.000


   alpha     21     22     23     24     25     26     27     28     29     30
    beta     21     23     22     24     25     28     29     26     27     31
 overlap   0.999  0.717  0.717  1.000  0.999  0.902  0.902  1.000  1.000  0.840


   alpha     31     32     33     34     35     36     37     38     39     40
    beta     30     32     33     34     35     36     37     38     40     39
 overlap   0.840  1.000  0.983  0.983  1.000  1.000  1.000  1.000  0.933  0.933


   alpha     41     42     43     44     45     46     47     48     49     50
    beta     41     42     43     44     45     46     47     48     49     50
 overlap   1.000  1.000  1.000  1.000  1.000  0.716  0.716  1.000  0.824  0.824


   alpha     51     52     53     54     55     56     57     58     59     60
    beta     51     52     53     55     54     57     56     58     59     60
 overlap   1.000  1.000  1.000  0.989  0.989  0.925  0.925  0.816  0.816  0.928


   alpha     61     62     63     64     65     66     67     68     69     70
    beta     61     62     63     64     65     66     67     68     69     70
 overlap   0.928  1.000  1.000  1.000  1.000  1.000  1.000  0.972  0.972  1.000


   alpha     71     72     73     74     75     76     77     78     79     80
    beta     71     72     73     74     75     76     77     79     78     80
 overlap   0.948  0.948  1.000  1.000  1.000  1.000  1.000  0.906  0.906  1.000


   alpha     81     82     83     84     85     86     87     88     89     90
    beta     82     81     84     83     85     86     87     88     89     90
 overlap   0.799  0.799  0.993  0.993  1.000  1.000  1.000  1.000  1.000  1.000


     --------------------------
     Expectation value of S2:  
     --------------------------
      <S2> =      2.0054 (Exact =     2.0000)


 center of mass
 --------------
 x =   0.00000000 y =   0.00000000 z =   0.00000000

 moments of inertia (a.u.)
 ------------------
          41.216099660712           0.000000000000           0.000000000000
           0.000000000000          41.216099660712           0.000000000000
           0.000000000000           0.000000000000           0.000000000000

     Multipole analysis of the density
     ---------------------------------

     L   x y z        total         alpha         beta         nuclear
     -   - - -        -----         -----         ----         -------
     0   0 0 0     -0.000000     -9.000000     -7.000000     16.000000

     1   1 0 0      0.000000      0.000000      0.000000      0.000000
     1   0 1 0     -0.000000     -0.000000     -0.000000      0.000000
     1   0 0 1     -0.000003     -0.000000     -0.000002      0.000000

     2   2 0 0     -7.629487     -4.447004     -3.182483      0.000000
     2   1 1 0     -0.000000      0.000000     -0.000000      0.000000
     2   1 0 1     -0.000000     -0.000000     -0.000000      0.000000
     2   0 2 0     -7.629487     -4.447004     -3.182483      0.000000
     2   0 1 1      0.000000      0.000000      0.000000      0.000000
     2   0 0 2     -7.775070    -16.140775    -12.248903     20.614608


 Parallel integral file used      58 records with       0 large values


 Task  times  cpu:        1.9s     wall:        2.5s


                                NWChem Input Module
                                -------------------


 Summary of allocated global arrays
-----------------------------------
  No active global arrays



                         GA Statistics for process    0
                         ------------------------------

       create   destroy   get      put      acc     scatter   gather  read&inc
calls:  291      291     1885     1484      291        0        0       62     
number of processes/call 2.08e+00 1.31e+00 4.90e+00 0.00e+00 0.00e+00
bytes total:             3.11e+07 6.02e+06 1.42e+07 0.00e+00 0.00e+00 4.96e+02
bytes remote:            2.21e+07 2.35e+06 1.11e+07 0.00e+00 0.00e+00 0.00e+00
Max memory consumed for GA by this process: 1020600 bytes

MA_summarize_allocated_blocks: starting scan ...
MA_summarize_allocated_blocks: scan completed: 0 heap blocks, 0 stack blocks
MA usage statistics:

	allocation statistics:
					      heap	     stack
					      ----	     -----
	current number of blocks	         0	         0
	maximum number of blocks	        23	        51
	current total bytes		         0	         0
	maximum total bytes		   9656392	  23807720
	maximum total K-bytes		      9657	     23808
	maximum total M-bytes		        10	        24


                                     CITATION
                                     --------
                Please cite the following reference when publishing
                           results obtained with NWChem:

                 M. Valiev, E.J. Bylaska, N. Govind, K. Kowalski,
              T.P. Straatsma, H.J.J. van Dam, D. Wang, J. Nieplocha,
                        E. Apra, T.L. Windus, W.A. de Jong
                 "NWChem: a comprehensive and scalable open-source
                  solution for large scale molecular simulations"
                      Comput. Phys. Commun. 181, 1477 (2010)
                           doi:10.1016/j.cpc.2010.04.018

                                      AUTHORS
                                      -------
          E. Apra, E. J. Bylaska, W. A. de Jong, N. Govind, K. Kowalski,
       T. P. Straatsma, M. Valiev, H. J. J. van Dam, D. Wang, T. L. Windus,
        J. Hammond, J. Autschbach, K. Bhaskaran-Nair, J. Brabec, K. Lopata,
       S. A. Fischer, S. Krishnamoorthy, W. Ma, M. Klemm, O. Villa, Y. Chen,
    V. Anisimov, F. Aquino, S. Hirata, M. T. Hackler, T. Risthaus, M. Malagoli,
       A. Marenich, A. Otero-de-la-Roza, J. Mullin, P. Nichols, R. Peverati,
     J. Pittner, Y. Zhao, P.-D. Fan, A. Fonari, M. Williamson, R. J. Harrison,
       J. R. Rehr, M. Dupuis, D. Silverstein, D. M. A. Smith, J. Nieplocha,
        V. Tipparaju, M. Krishnan, B. E. Van Kuiken, A. Vazquez-Mayagoitia,
        L. Jensen, M. Swart, Q. Wu, T. Van Voorhis, A. A. Auer, M. Nooijen,
      L. D. Crosby, E. Brown, G. Cisneros, G. I. Fann, H. Fruchtl, J. Garza,
        K. Hirao, R. A. Kendall, J. A. Nichols, K. Tsemekhman, K. Wolinski,
     J. Anchell, D. E. Bernholdt, P. Borowski, T. Clark, D. Clerc, H. Dachsel,
   M. J. O. Deegan, K. Dyall, D. Elwood, E. Glendening, M. Gutowski, A. C. Hess,
         J. Jaffe, B. G. Johnson, J. Ju, R. Kobayashi, R. Kutteh, Z. Lin,
   R. Littlefield, X. Long, B. Meng, T. Nakajima, S. Niu, L. Pollack, M. Rosing,
   K. Glaesemann, G. Sandrone, M. Stave, H. Taylor, G. Thomas, J. H. van Lenthe,
                               A. T. Wong, Z. Zhang.

 Total times  cpu:        1.9s     wall:        2.7s
