[1537795795.989360] [r8n4:6861 :0]         sys.c:744  MXM  WARN  Conflicting CPU frequencies detected, using: 1695.17
[1537795795.999397] [r8n4:6867 :0]         sys.c:744  MXM  WARN  Conflicting CPU frequencies detected, using: 1784.57
[1537795796.000885] [r8n4:6862 :0]         sys.c:744  MXM  WARN  Conflicting CPU frequencies detected, using: 1784.57
[1537795796.001005] [r8n4:6863 :0]         sys.c:744  MXM  WARN  Conflicting CPU frequencies detected, using: 1784.57
[1537795796.001024] [r8n4:6865 :0]         sys.c:744  MXM  WARN  Conflicting CPU frequencies detected, using: 1784.57
[1537795796.001058] [r8n4:6864 :0]         sys.c:744  MXM  WARN  Conflicting CPU frequencies detected, using: 1784.57
[1537795796.001154] [r8n4:6866 :0]         sys.c:744  MXM  WARN  Conflicting CPU frequencies detected, using: 1784.57
[1537795796.020223] [r8n4:6869 :0]         sys.c:744  MXM  WARN  Conflicting CPU frequencies detected, using: 1895.97
[1537795796.020541] [r8n4:6871 :0]         sys.c:744  MXM  WARN  Conflicting CPU frequencies detected, using: 1895.97
[1537795796.021934] [r8n4:6873 :0]         sys.c:744  MXM  WARN  Conflicting CPU frequencies detected, using: 1895.97
[1537795796.043859] [r8n4:6885 :0]         sys.c:744  MXM  WARN  Conflicting CPU frequencies detected, using: 1999.74
[1537795796.044038] [r8n4:6881 :0]         sys.c:744  MXM  WARN  Conflicting CPU frequencies detected, using: 1999.74
[1537795796.045179] [r8n4:6883 :0]         sys.c:744  MXM  WARN  Conflicting CPU frequencies detected, using: 1999.74
[1537795796.045307] [r8n4:6879 :0]         sys.c:744  MXM  WARN  Conflicting CPU frequencies detected, using: 1999.74
[1537795796.046183] [r8n4:6875 :0]         sys.c:744  MXM  WARN  Conflicting CPU frequencies detected, using: 1999.74
[1537795796.046280] [r8n4:6877 :0]         sys.c:744  MXM  WARN  Conflicting CPU frequencies detected, using: 1999.74
 argument  1 = /storage/home/bikashp/nwchem_run/rabeet/ip13g2/nwip13g2/OH+.nw
                                         
                                         


              Northwest Computational Chemistry Package (NWChem) 6.6
              ------------------------------------------------------


                    Environmental Molecular Sciences Laboratory
                       Pacific Northwest National Laboratory
                                Richland, WA 99352

                              Copyright (c) 1994-2015
                       Pacific Northwest National Laboratory
                            Battelle Memorial Institute

             NWChem is an open-source computational chemistry package
                        distributed under the terms of the
                      Educational Community License (ECL) 2.0
             A copy of the license is included with this distribution
                              in the LICENSE.TXT file

                                  ACKNOWLEDGMENT
                                  --------------

            This software and its documentation were developed at the
            EMSL at Pacific Northwest National Laboratory, a multiprogram
            national laboratory, operated for the U.S. Department of Energy
            by Battelle under Contract Number DE-AC05-76RL01830. Support
            for this work was provided by the Department of Energy Office
            of Biological and Environmental Research, Office of Basic
            Energy Sciences, and the Office of Advanced Scientific Computing.


           Job information
           ---------------

    hostname        = r8n4.niserhpc.org
    program         = /home/bikashp/Code/nwchem-6.6_tpssloc/bin/LINUX64/nwchem
    date            = Mon Sep 24 18:59:59 2018

    compiled        = Tue_Sep_18_16:24:59_2018
    source          = /home/bikashp/Code/nwchem-6.6_tpssloc
    nwchem branch   = 6.6
    nwchem revision = 27746
    ga revision     = 10594
    input           = /storage/home/bikashp/nwchem_run/rabeet/ip13g2/nwip13g2/OH+.nw
    prefix          = OH+.
    data base       = ./OH+.db
    status          = startup
    nproc           =       16
    time left       =     -1s



           Memory information
           ------------------

    heap     =   13107196 doubles =    100.0 Mbytes
    stack    =   13107201 doubles =    100.0 Mbytes
    global   =   26214400 doubles =    200.0 Mbytes (distinct from heap & stack)
    total    =   52428797 doubles =    400.0 Mbytes
    verify   = yes
    hardfail = no 


           Directory information
           ---------------------

  0 permanent = .
  0 scratch   = .




                                NWChem Input Module
                                -------------------



 Scaling coordinates for geometry "geometry" by  1.889725989
 (inverse scale =  0.529177249)


          ------
          auto-z
          ------


                             Geometry "geometry" -> ""
                             -------------------------

 Output coordinates in angstroms (scale by  1.889725989 to convert to a.u.)

  No.       Tag          Charge          X              Y              Z
 ---- ---------------- ---------- -------------- -------------- --------------
    1 H                    1.0000     0.00000000     0.00000000    -0.91251556
    2 O                    8.0000     0.00000000     0.00000000     0.11406444

      Atomic Mass 
      ----------- 

      H                  1.007825
      O                 15.994910


 Effective nuclear repulsion energy (a.u.)       4.1238071967

            Nuclear Dipole moment (a.u.) 
            ----------------------------
        X                 Y               Z
 ---------------- ---------------- ----------------
     0.0000000000     0.0000000000     0.0000000000



                                Z-matrix (autoz)
                                -------- 

 Units are Angstrom for bonds and degrees for angles

      Type          Name      I     J     K     L     M      Value
      ----------- --------  ----- ----- ----- ----- ----- ----------
    1 Stretch                  1     2                       1.02658


            XYZ format geometry
            -------------------
     2
 geometry
 H                     0.00000000     0.00000000    -0.91251556
 O                     0.00000000     0.00000000     0.11406444

 ==============================================================================
                                internuclear distances
 ------------------------------------------------------------------------------
       center one      |      center two      | atomic units |  angstroms
 ------------------------------------------------------------------------------
    2 O                |   1 H                |     1.93995  |     1.02658
 ------------------------------------------------------------------------------
                         number of included internuclear distances:          1
 ==============================================================================





 Summary of "ao basis" -> "" (cartesian)
 ------------------------------------------------------------------------------
       Tag                 Description            Shells   Functions and Types
 ---------------- ------------------------------  ------  ---------------------
 *                     6-311++G(3df,3pd)              on all atoms 



                                 NWChem DFT Module
                                 -----------------


                      Basis "ao basis" -> "ao basis" (cartesian)
                      -----
  H (Hydrogen)
  ------------
            Exponent  Coefficients 
       -------------- ---------------------------------------------------------
  1 S  3.38650000E+01  0.025494
  1 S  5.09479000E+00  0.190373
  1 S  1.15879000E+00  0.852161

  2 S  3.25840000E-01  1.000000

  3 S  1.02741000E-01  1.000000

  4 S  3.60000000E-02  1.000000

  5 P  3.00000000E+00  1.000000

  6 P  7.50000000E-01  1.000000

  7 P  1.87500000E-01  1.000000

  8 D  1.00000000E+00  1.000000

  O (Oxygen)
  ----------
            Exponent  Coefficients 
       -------------- ---------------------------------------------------------
  1 S  8.58850000E+03  0.001895
  1 S  1.29723000E+03  0.014386
  1 S  2.99296000E+02  0.070732
  1 S  8.73771000E+01  0.240001
  1 S  2.56789000E+01  0.594797
  1 S  3.74004000E+00  0.280802

  2 S  4.21175000E+01  0.113889
  2 S  9.62837000E+00  0.920811
  2 S  2.85332000E+00 -0.003274

  3 P  4.21175000E+01  0.036511
  3 P  9.62837000E+00  0.237153
  3 P  2.85332000E+00  0.819702

  4 S  9.05661000E-01  1.000000

  5 P  9.05661000E-01  1.000000

  6 S  2.55611000E-01  1.000000

  7 P  2.55611000E-01  1.000000

  8 S  8.45000000E-02  1.000000

  9 P  8.45000000E-02  1.000000

 10 D  5.16000000E+00  1.000000

 11 D  1.29200000E+00  1.000000

 12 D  3.22500000E-01  1.000000

 13 F  1.40000000E+00  1.000000



 Summary of "ao basis" -> "ao basis" (cartesian)
 ------------------------------------------------------------------------------
       Tag                 Description            Shells   Functions and Types
 ---------------- ------------------------------  ------  ---------------------
 H                     6-311++G(3df,3pd)             8       19   4s3p1d
 O                     6-311++G(3df,3pd)            13       45   5s4p3d1f




 Summary of "ao basis" -> "ao basis" (cartesian)
 ------------------------------------------------------------------------------
       Tag                 Description            Shells   Functions and Types
 ---------------- ------------------------------  ------  ---------------------
 H                     6-311++G(3df,3pd)             8       19   4s3p1d
 O                     6-311++G(3df,3pd)            13       45   5s4p3d1f


  Caching 1-el integrals 

            General Information
            -------------------
          SCF calculation type: DFT
          Wavefunction type:  spin polarized.
          No. of atoms     :     2
          No. of electrons :     8
           Alpha electrons :     5
            Beta electrons :     3
          Charge           :     1
          Spin multiplicity:     3
          Use of symmetry is: off; symmetry adaption is: off
          Maximum number of iterations: ***
          AO basis - number of functions:    64
                     number of shells:    21
          Convergence on energy requested: 1.00D-06
          Convergence on density requested: 1.00D-05
          Convergence on gradient requested: 5.00D-04

              XC Information
              --------------
                  TPSS metaGGA Exchange Functional  1.000          
             TPSS03 metaGGA Correlation Functional  1.000          

             Grid Information
             ----------------
          Grid used for XC integration:  medium    
          Radial quadrature: Mura-Knowles        
          Angular quadrature: Lebedev. 
          Tag              B.-S. Rad. Rad. Pts. Rad. Cut. Ang. Pts.
          ---              ---------- --------- --------- ---------
          H                   0.35       45           8.0       434
          O                   0.60       49           8.0       434
          Grid pruning is: on 
          Number of quadrature shells:    94
          Spatial weights used:  Erf1

          Convergence Information
          -----------------------
          Convergence aids based upon iterative change in 
          total energy or number of iterations. 
          Levelshifting, if invoked, occurs when the 
          HOMO/LUMO gap drops below (HL_TOL): 1.00D-02
          DIIS, if invoked, will attempt to extrapolate 
          using up to (NFOCK): 10 stored Fock matrices.

                    Damping( 0%)  Levelshifting(0.5)       DIIS
                  --------------- ------------------- ---------------
          dE  on:    start            ASAP                start   
          dE off:    2 iters        *** iters           *** iters 


      Screening Tolerance Information
      -------------------------------
          Density screening/tol_rho: 1.00D-10
          AO Gaussian exp screening on grid/accAOfunc:  14
          CD Gaussian exp screening on grid/accCDfunc:  20
          XC Gaussian exp screening on grid/accXCfunc:  20
          Schwarz screening/accCoul: 1.00D-08


      Superposition of Atomic Density Guess
      -------------------------------------

 Sum of atomic energies:         -75.27760388

 Renormalizing density from       9.00 to      8

      Non-variational initial energy
      ------------------------------

 Total energy =     -69.439414
 1-e energy   =     -99.223575
 2-e energy   =      25.660354
 HOMO         =      -1.143767
 LUMO         =      -1.143767

   Time after variat. SCF:      0.2
   Time prior to 1st pass:      0.2

 Integral file          = ./OH+.aoints.00
 Record size in doubles =    65536    No. of integs per rec  =    43688
 Max. records in memory =        6    Max. records in file   = 11667371
 No. of bits per label  =        8    No. of bits per value  =       64


 #quartets = 2.680D+04 #integrals = 5.635D+05 #direct =  0.0% #cached =100.0%


File balance: exchanges=     0  moved=     0  time=   0.0


 Grid_pts file          = ./OH+.gridpts.00
 Record size in doubles =  12289        No. of grid_pts per rec  =   3070
 Max. records in memory =      2        Max. recs in file   =  62220919


           Memory utilization after 1st SCF pass: 
           Heap Space remaining (MW):       12.69            12686796
          Stack Space remaining (MW):       13.11            13106556

   convergence    iter        energy       DeltaE   RMS-Dens  Diis-err    time
 ---------------- ----- ----------------- --------- --------- ---------  ------
 d= 0,ls=0.0,diis     1    -75.2247920910 -7.93D+01  8.61D-03  4.96D-01     0.5
                                                     9.71D-03  3.98D-01
 d= 0,ls=0.0,diis     2    -75.1923120073  3.25D-02  4.12D-03  3.29D-01     0.6
                                                     3.59D-03  1.80D-01
 d= 0,ls=0.0,diis     3    -75.2907920136 -9.85D-02  6.28D-04  8.68D-03     0.7
                                                     6.73D-04  6.38D-03
 d= 0,ls=0.0,diis     4    -75.2899719076  8.20D-04  1.06D-04  5.57D-05     0.7
                                                     8.07D-05  2.10D-05
 d= 0,ls=0.0,diis     5    -75.2899806153 -8.71D-06  9.42D-06  1.35D-06     0.8
                                                     7.95D-06  8.23D-07
  Resetting Diis
 d= 0,ls=0.0,diis     6    -75.2900054615 -2.48D-05  1.91D-06  3.86D-08     0.9
                                                     1.08D-06  1.93D-08
 d= 0,ls=0.0,diis     7    -75.2900071341 -1.67D-06  4.53D-07  1.69D-09     0.9
                                                     3.20D-07  1.16D-09
 d= 0,ls=0.0,diis     8    -75.2900066279  5.06D-07  9.29D-08  2.18D-10     1.0
                                                     1.14D-07  1.93D-10


         Total DFT energy =      -75.290006627858
      One electron energy =     -107.306947114378
           Coulomb energy =       36.391355949400
          Exchange energy =       -8.258356331513
       Correlation energy =       -0.239866328075
 Nuclear repulsion energy =        4.123807196709

 Numeric. integr. density =        8.000000074822

     Total iterative time =      0.8s



                    DFT Final Alpha Molecular Orbital Analysis
                    ------------------------------------------

 Vector    1  Occ=1.000000D+00  E=-1.962831D+01
              MO Center= -9.8D-17, -7.8D-17,  1.1D-01, r^2= 1.5D-02
   Bfn.  Coefficient  Atom+Function         Bfn.  Coefficient  Atom+Function  
  ----- ------------  ---------------      ----- ------------  ---------------
    20      0.550215  2 O  s                 21      0.471155  2 O  s          

 Vector    2  Occ=1.000000D+00  E=-1.540154D+00
              MO Center=  8.6D-16,  1.2D-15, -4.2D-02, r^2= 4.2D-01
   Bfn.  Coefficient  Atom+Function         Bfn.  Coefficient  Atom+Function  
  ----- ------------  ---------------      ----- ------------  ---------------
    29      0.700085  2 O  s                 25      0.566908  2 O  s          
    21     -0.216116  2 O  s          

 Vector    3  Occ=1.000000D+00  E=-9.681020D-01
              MO Center=  1.7D-15, -2.5D-14,  5.6D-02, r^2= 6.2D-01
   Bfn.  Coefficient  Atom+Function         Bfn.  Coefficient  Atom+Function  
  ----- ------------  ---------------      ----- ------------  ---------------
    28      0.369112  2 O  pz                32      0.343232  2 O  pz         
    24      0.297207  2 O  pz                29      0.286712  2 O  s          
     1     -0.163034  1 H  s          

 Vector    4  Occ=1.000000D+00  E=-9.451183D-01
              MO Center=  4.1D-15,  2.3D-14,  8.7D-02, r^2= 4.6D-01
   Bfn.  Coefficient  Atom+Function         Bfn.  Coefficient  Atom+Function  
  ----- ------------  ---------------      ----- ------------  ---------------
    27      0.461061  2 O  py                23      0.349245  2 O  py         
    31      0.349592  2 O  py         

 Vector    5  Occ=1.000000D+00  E=-9.451183D-01
              MO Center= -6.3D-15,  1.1D-15,  8.7D-02, r^2= 4.6D-01
   Bfn.  Coefficient  Atom+Function         Bfn.  Coefficient  Atom+Function  
  ----- ------------  ---------------      ----- ------------  ---------------
    26      0.461061  2 O  px                22      0.349245  2 O  px         
    30      0.349592  2 O  px         

 Vector    6  Occ=0.000000D+00  E=-3.722794D-01
              MO Center=  2.3D-16,  1.1D-15, -9.4D-01, r^2= 1.4D+00
   Bfn.  Coefficient  Atom+Function         Bfn.  Coefficient  Atom+Function  
  ----- ------------  ---------------      ----- ------------  ---------------
     3      0.781757  1 H  s                  2      0.598236  1 H  s          
    29     -0.448949  2 O  s                 32      0.317825  2 O  pz         
    25     -0.272923  2 O  s                 28      0.268199  2 O  pz         
    24      0.191631  2 O  pz                33     -0.181959  2 O  s          
     1      0.176899  1 H  s          

 Vector    7  Occ=0.000000D+00  E=-1.596757D-01
              MO Center= -1.1D-14, -5.3D-15,  7.5D-02, r^2= 5.3D+00
   Bfn.  Coefficient  Atom+Function         Bfn.  Coefficient  Atom+Function  
  ----- ------------  ---------------      ----- ------------  ---------------
    33      1.831075  2 O  s                  3     -1.636213  1 H  s          
     4      0.714021  1 H  s                  2     -0.421490  1 H  s          
    32     -0.355199  2 O  pz                36     -0.329663  2 O  pz         
    25     -0.173363  2 O  s          

 Vector    8  Occ=0.000000D+00  E=-1.254120D-01
              MO Center=  1.3D-15, -1.5D-15, -1.8D-01, r^2= 4.1D+00
   Bfn.  Coefficient  Atom+Function         Bfn.  Coefficient  Atom+Function  
  ----- ------------  ---------------      ----- ------------  ---------------
    35      0.730469  2 O  py                34     -0.616506  2 O  px         
    12      0.193457  1 H  py                31     -0.192621  2 O  py         
    11     -0.163275  1 H  px                30      0.162569  2 O  px         

 Vector    9  Occ=0.000000D+00  E=-1.254120D-01
              MO Center=  1.1D-14,  9.8D-15, -1.8D-01, r^2= 4.1D+00
   Bfn.  Coefficient  Atom+Function         Bfn.  Coefficient  Atom+Function  
  ----- ------------  ---------------      ----- ------------  ---------------
    34      0.730469  2 O  px                35      0.616506  2 O  py         
    11      0.193457  1 H  px                30     -0.192621  2 O  px         
    12      0.163275  1 H  py                31     -0.162569  2 O  py         

 Vector   10  Occ=0.000000D+00  E=-8.705079D-02
              MO Center= -1.7D-15,  4.4D-16, -3.5D-01, r^2= 7.3D+00
   Bfn.  Coefficient  Atom+Function         Bfn.  Coefficient  Atom+Function  
  ----- ------------  ---------------      ----- ------------  ---------------
     4      1.132954  1 H  s                 36     -0.933822  2 O  pz         
    33     -0.899186  2 O  s                  3     -0.670448  1 H  s          
     2     -0.271483  1 H  s                 29      0.245363  2 O  s          
    25      0.244023  2 O  s          

 Vector   11  Occ=0.000000D+00  E=-2.760477D-02
              MO Center=  7.7D-16,  3.5D-15, -3.3D-01, r^2= 7.8D+00
   Bfn.  Coefficient  Atom+Function         Bfn.  Coefficient  Atom+Function  
  ----- ------------  ---------------      ----- ------------  ---------------
    33      4.816980  2 O  s                  3     -3.654787  1 H  s          
    36     -2.479907  2 O  pz                 4     -1.390536  1 H  s          
    13     -0.343464  1 H  pz                 2     -0.330301  1 H  s          
    32     -0.243438  2 O  pz                25     -0.209358  2 O  s          

 Vector   12  Occ=0.000000D+00  E= 2.927939D-02
              MO Center=  2.3D-16, -4.3D-15, -3.2D-01, r^2= 3.3D+00
   Bfn.  Coefficient  Atom+Function         Bfn.  Coefficient  Atom+Function  
  ----- ------------  ---------------      ----- ------------  ---------------
    12      1.199674  1 H  py                35     -0.857844  2 O  py         
    31     -0.223084  2 O  py                53     -0.212182  2 O  dyz        

 Vector   13  Occ=0.000000D+00  E= 2.927939D-02
              MO Center= -4.3D-15,  2.5D-16, -3.2D-01, r^2= 3.3D+00
   Bfn.  Coefficient  Atom+Function         Bfn.  Coefficient  Atom+Function  
  ----- ------------  ---------------      ----- ------------  ---------------
    11      1.199674  1 H  px                34     -0.857844  2 O  px         
    30     -0.223084  2 O  px                51     -0.212182  2 O  dxz        

 Vector   14  Occ=0.000000D+00  E= 1.294672D-01
              MO Center=  4.0D-15, -3.9D-15, -9.6D-01, r^2= 6.1D+00
   Bfn.  Coefficient  Atom+Function         Bfn.  Coefficient  Atom+Function  
  ----- ------------  ---------------      ----- ------------  ---------------
     3      7.804008  1 H  s                 33     -4.043158  2 O  s          
    36      2.355479  2 O  pz                 4     -1.292948  1 H  s          
     2     -1.175687  1 H  s                 13      1.041988  1 H  pz         
    29     -0.618411  2 O  s                 54     -0.492351  2 O  dzz        
    32      0.413616  2 O  pz                28     -0.156006  2 O  pz         

 Vector   15  Occ=0.000000D+00  E= 2.872145D-01
              MO Center=  1.8D-15, -1.7D-15,  1.1D-01, r^2= 1.5D+00
   Bfn.  Coefficient  Atom+Function         Bfn.  Coefficient  Atom+Function  
  ----- ------------  ---------------      ----- ------------  ---------------
    49      0.839881  2 O  dxx               52     -0.839881  2 O  dyy        

 Vector   16  Occ=0.000000D+00  E= 2.872152D-01
              MO Center= -2.9D-16, -5.5D-16,  1.1D-01, r^2= 1.5D+00
   Bfn.  Coefficient  Atom+Function         Bfn.  Coefficient  Atom+Function  
  ----- ------------  ---------------      ----- ------------  ---------------
    50      1.679761  2 O  dxy        

 Vector   17  Occ=0.000000D+00  E= 3.471513D-01
              MO Center= -2.1D-15,  7.3D-15, -1.2D+00, r^2= 3.8D+00
   Bfn.  Coefficient  Atom+Function         Bfn.  Coefficient  Atom+Function  
  ----- ------------  ---------------      ----- ------------  ---------------
     3      9.246991  1 H  s                 33     -7.530206  2 O  s          
    13      4.505950  1 H  pz                29     -3.874978  2 O  s          
    36      2.790003  2 O  pz                 2      2.667574  1 H  s          
    32      2.341648  2 O  pz                54     -0.530085  2 O  dzz        
     4      0.398639  1 H  s                 25     -0.253801  2 O  s          

 Vector   18  Occ=0.000000D+00  E= 5.002502D-01
              MO Center=  1.6D-13, -6.0D-13,  2.2D-01, r^2= 3.7D+00
   Bfn.  Coefficient  Atom+Function         Bfn.  Coefficient  Atom+Function  
  ----- ------------  ---------------      ----- ------------  ---------------
     3      2.627259  1 H  s                 49     -1.905210  2 O  dxx        
    52     -1.905210  2 O  dyy               13      1.428657  1 H  pz         
    54     -1.346247  2 O  dzz               33      1.165954  2 O  s          
     4     -0.850121  1 H  s                 29      0.727273  2 O  s          
    36      0.624917  2 O  pz                43     -0.323617  2 O  dxx        


                     DFT Final Beta Molecular Orbital Analysis
                     -----------------------------------------

 Vector    1  Occ=1.000000D+00  E=-1.957349D+01
              MO Center=  3.1D-17, -1.7D-16,  1.1D-01, r^2= 1.5D-02
   Bfn.  Coefficient  Atom+Function         Bfn.  Coefficient  Atom+Function  
  ----- ------------  ---------------      ----- ------------  ---------------
    20      0.551646  2 O  s                 21      0.470063  2 O  s          

 Vector    2  Occ=1.000000D+00  E=-1.421957D+00
              MO Center= -3.1D-15,  5.0D-16, -9.4D-02, r^2= 4.5D-01
   Bfn.  Coefficient  Atom+Function         Bfn.  Coefficient  Atom+Function  
  ----- ------------  ---------------      ----- ------------  ---------------
    29      0.692885  2 O  s                 25      0.463143  2 O  s          
    21     -0.191877  2 O  s          

 Vector    3  Occ=1.000000D+00  E=-9.439907D-01
              MO Center= -4.1D-15,  1.7D-15,  9.7D-02, r^2= 6.3D-01
   Bfn.  Coefficient  Atom+Function         Bfn.  Coefficient  Atom+Function  
  ----- ------------  ---------------      ----- ------------  ---------------
    29      0.355315  2 O  s                 28      0.332566  2 O  pz         
    32      0.321221  2 O  pz                24      0.289438  2 O  pz         
     1     -0.164880  1 H  s          

 Vector    4  Occ=0.000000D+00  E=-7.564500D-01
              MO Center=  5.0D-15, -4.3D-15,  8.3D-02, r^2= 5.6D-01
   Bfn.  Coefficient  Atom+Function         Bfn.  Coefficient  Atom+Function  
  ----- ------------  ---------------      ----- ------------  ---------------
    30      0.304548  2 O  px                31     -0.292881  2 O  py         
    26      0.253867  2 O  px                27     -0.244141  2 O  py         
    22      0.240408  2 O  px                23     -0.231198  2 O  py         

 Vector    5  Occ=0.000000D+00  E=-7.564500D-01
              MO Center=  1.3D-15,  7.6D-16,  8.3D-02, r^2= 5.6D-01
   Bfn.  Coefficient  Atom+Function         Bfn.  Coefficient  Atom+Function  
  ----- ------------  ---------------      ----- ------------  ---------------
    31      0.304548  2 O  py                30      0.292881  2 O  px         
    27      0.253867  2 O  py                26      0.244141  2 O  px         
    23      0.240408  2 O  py                22      0.231198  2 O  px         

 Vector    6  Occ=0.000000D+00  E=-3.409519D-01
              MO Center= -1.7D-15,  2.9D-16, -1.0D+00, r^2= 1.5D+00
   Bfn.  Coefficient  Atom+Function         Bfn.  Coefficient  Atom+Function  
  ----- ------------  ---------------      ----- ------------  ---------------
     3      0.907392  1 H  s                  2      0.592850  1 H  s          
    29     -0.488354  2 O  s                 32      0.346745  2 O  pz         
    33     -0.315182  2 O  s                 28      0.236473  2 O  pz         
    25     -0.232192  2 O  s                 24      0.188859  2 O  pz         

 Vector    7  Occ=0.000000D+00  E=-1.422765D-01
              MO Center= -1.9D-14,  5.4D-14, -1.1D-02, r^2= 5.9D+00
   Bfn.  Coefficient  Atom+Function         Bfn.  Coefficient  Atom+Function  
  ----- ------------  ---------------      ----- ------------  ---------------
     3      1.500389  1 H  s                 33     -1.492523  2 O  s          
     4     -0.886057  1 H  s                  2      0.393379  1 H  s          
    32      0.356939  2 O  pz                36      0.215445  2 O  pz         

 Vector    8  Occ=0.000000D+00  E=-9.314202D-02
              MO Center=  3.9D-14, -3.7D-14, -2.1D-01, r^2= 4.3D+00
   Bfn.  Coefficient  Atom+Function         Bfn.  Coefficient  Atom+Function  
  ----- ------------  ---------------      ----- ------------  ---------------
    34      0.712851  2 O  px                35     -0.680396  2 O  py         
    30     -0.274885  2 O  px                31      0.262369  2 O  py         
    11      0.211518  1 H  px                12     -0.201887  1 H  py         

 Vector    9  Occ=0.000000D+00  E=-9.314202D-02
              MO Center= -1.3D-14, -1.4D-14, -2.1D-01, r^2= 4.3D+00
   Bfn.  Coefficient  Atom+Function         Bfn.  Coefficient  Atom+Function  
  ----- ------------  ---------------      ----- ------------  ---------------
    35      0.712851  2 O  py                34      0.680396  2 O  px         
    31     -0.274885  2 O  py                30     -0.262369  2 O  px         
    12      0.211518  1 H  py                11      0.201887  1 H  px         

 Vector   10  Occ=0.000000D+00  E=-7.844342D-02
              MO Center= -7.1D-15, -1.3D-15, -1.0D-01, r^2= 7.1D+00
   Bfn.  Coefficient  Atom+Function         Bfn.  Coefficient  Atom+Function  
  ----- ------------  ---------------      ----- ------------  ---------------
     4      1.075937  1 H  s                 36     -1.061247  2 O  pz         
     3     -0.897645  1 H  s                 33     -0.760350  2 O  s          
    29      0.290875  2 O  s                  2     -0.265374  1 H  s          
    25      0.234587  2 O  s                 49      0.164984  2 O  dxx        
    52      0.164984  2 O  dyy        

 Vector   11  Occ=0.000000D+00  E=-1.453106D-02
              MO Center= -1.3D-15,  1.5D-15, -4.5D-01, r^2= 7.6D+00
   Bfn.  Coefficient  Atom+Function         Bfn.  Coefficient  Atom+Function  
  ----- ------------  ---------------      ----- ------------  ---------------
    33      5.099907  2 O  s                  3     -3.819522  1 H  s          
    36     -2.504657  2 O  pz                 4     -1.391253  1 H  s          
    13     -0.382500  1 H  pz                 2     -0.319130  1 H  s          
    32     -0.254480  2 O  pz                25     -0.214184  2 O  s          

 Vector   12  Occ=0.000000D+00  E= 4.055200D-02
              MO Center=  6.2D-15, -2.5D-15, -3.2D-01, r^2= 3.4D+00
   Bfn.  Coefficient  Atom+Function         Bfn.  Coefficient  Atom+Function  
  ----- ------------  ---------------      ----- ------------  ---------------
    11      1.158345  1 H  px                34     -0.835338  2 O  px         
    12     -0.398371  1 H  py                35      0.287284  2 O  py         
    30     -0.218976  2 O  px                51     -0.162635  2 O  dxz        

 Vector   13  Occ=0.000000D+00  E= 4.055200D-02
              MO Center=  1.5D-15,  4.3D-15, -3.2D-01, r^2= 3.4D+00
   Bfn.  Coefficient  Atom+Function         Bfn.  Coefficient  Atom+Function  
  ----- ------------  ---------------      ----- ------------  ---------------
    12      1.158345  1 H  py                35     -0.835338  2 O  py         
    11      0.398371  1 H  px                34     -0.287284  2 O  px         
    31     -0.218976  2 O  py                53     -0.162635  2 O  dyz        

 Vector   14  Occ=0.000000D+00  E= 1.403526D-01
              MO Center= -8.7D-15, -3.0D-15, -9.4D-01, r^2= 6.0D+00
   Bfn.  Coefficient  Atom+Function         Bfn.  Coefficient  Atom+Function  
  ----- ------------  ---------------      ----- ------------  ---------------
     3      7.887910  1 H  s                 33     -4.134390  2 O  s          
    36      2.380504  2 O  pz                 4     -1.255055  1 H  s          
     2     -1.218599  1 H  s                 13      1.091329  1 H  pz         
    29     -0.623852  2 O  s                 54     -0.498627  2 O  dzz        
    32      0.398271  2 O  pz         

 Vector   15  Occ=0.000000D+00  E= 3.422196D-01
              MO Center=  1.3D-15, -1.7D-16,  1.1D-01, r^2= 1.5D+00
   Bfn.  Coefficient  Atom+Function         Bfn.  Coefficient  Atom+Function  
  ----- ------------  ---------------      ----- ------------  ---------------
    50      1.694120  2 O  dxy        

 Vector   16  Occ=0.000000D+00  E= 3.422201D-01
              MO Center= -9.6D-16, -4.0D-16,  1.1D-01, r^2= 1.5D+00
   Bfn.  Coefficient  Atom+Function         Bfn.  Coefficient  Atom+Function  
  ----- ------------  ---------------      ----- ------------  ---------------
    49      0.847060  2 O  dxx               52     -0.847060  2 O  dyy        

 Vector   17  Occ=0.000000D+00  E= 3.604697D-01
              MO Center=  3.0D-15,  2.2D-16, -1.2D+00, r^2= 3.6D+00
   Bfn.  Coefficient  Atom+Function         Bfn.  Coefficient  Atom+Function  
  ----- ------------  ---------------      ----- ------------  ---------------
     3      9.315456  1 H  s                 33     -7.338352  2 O  s          
    13      4.649343  1 H  pz                29     -4.032276  2 O  s          
     2      2.837036  1 H  s                 36      2.734102  2 O  pz         
    32      2.475370  2 O  pz                54     -0.610543  2 O  dzz        
     4      0.323631  1 H  s                 25     -0.228018  2 O  s          

 Vector   18  Occ=0.000000D+00  E= 5.321318D-01
              MO Center=  3.8D-14, -1.8D-14,  6.8D-01, r^2= 3.0D+00
   Bfn.  Coefficient  Atom+Function         Bfn.  Coefficient  Atom+Function  
  ----- ------------  ---------------      ----- ------------  ---------------
     3      2.178827  1 H  s                 49     -1.674066  2 O  dxx        
    52     -1.674066  2 O  dyy               54     -1.526931  2 O  dzz        
    29      1.240236  2 O  s                 13      1.013629  1 H  pz         
    36      0.922418  2 O  pz                33      0.905912  2 O  s          
     4     -0.626346  1 H  s                 32     -0.617658  2 O  pz         


   alpha - beta orbital overlaps 
   ----------------------------- 


   alpha      1      2      3      4      5      6      7      8      9     10
    beta      1      2      3      5      4      6      7      8      9     10
 overlap   1.000  0.997  0.998  0.816  0.816  0.997  0.996  0.990  0.990  0.997


   alpha     11     12     13     14     15     16     17     18     19     20
    beta     11     13     12     14     16     15     17     18     20     19
 overlap   0.995  0.964  0.964  0.999  1.000  1.000  0.997  0.940  0.783  0.783


   alpha     21     22     23     24     25     26     27     28     29     30
    beta     21     23     22     24     26     25     27     28     29     30
 overlap   0.941  0.786  0.786  1.000  0.831  0.831  0.999  0.998  0.996  0.991


   alpha     31     32     33     34     35     36     37     38     39     40
    beta     31     32     33     34     35     36     37     38     39     40
 overlap   0.991  0.990  0.990  0.991  0.991  0.997  0.971  0.971  0.995  0.996


   alpha     41     42     43     44     45     46     47     48     49     50
    beta     42     41     43     44     45     46     47     48     49     50
 overlap   0.994  0.994  0.908  0.908  1.000  1.000  0.998  0.972  0.972  0.998


   alpha     51     52     53     54     55     56     57     58     59     60
    beta     51     53     52     54     56     55     57     58     59     61
 overlap   0.998  0.991  0.991  0.999  1.000  1.000  0.985  0.985  0.998  0.997


   alpha     61     62     63     64
    beta     60     62     63     64
 overlap   0.997  0.998  1.000  1.000

     --------------------------
     Expectation value of S2:  
     --------------------------
      <S2> =      2.0044 (Exact =     2.0000)


 center of mass
 --------------
 x =   0.00000000 y =   0.00000000 z =   0.10056110

 moments of inertia (a.u.)
 ------------------
           3.568053942122           0.000000000000           0.000000000000
           0.000000000000           3.568053942122           0.000000000000
           0.000000000000           0.000000000000           0.000000000000

     Multipole analysis of the density
     ---------------------------------

     L   x y z        total         alpha         beta         nuclear
     -   - - -        -----         -----         ----         -------
     0   0 0 0      1.000000     -5.000000     -3.000000      9.000000

     1   1 0 0      0.000000     -0.000000      0.000000      0.000000
     1   0 1 0     -0.000000     -0.000000     -0.000000      0.000000
     1   0 0 1     -0.791458     -0.572079     -0.219379      0.000000

     2   2 0 0     -3.071385     -2.182128     -0.889257      0.000000
     2   1 1 0     -0.000000     -0.000000     -0.000000      0.000000
     2   1 0 1      0.000000     -0.000000      0.000000      0.000000
     2   0 2 0     -3.071385     -2.182128     -0.889257      0.000000
     2   0 1 1     -0.000000      0.000000     -0.000000      0.000000
     2   0 0 2     -1.725433     -2.815130     -2.255570      3.345267


 Parallel integral file used      18 records with       0 large values


 Task  times  cpu:        0.9s     wall:        1.4s


                                NWChem Input Module
                                -------------------


 Summary of allocated global arrays
-----------------------------------
  No active global arrays



                         GA Statistics for process    0
                         ------------------------------

       create   destroy   get      put      acc     scatter   gather  read&inc
calls:  273      273     1723     1009      297        0        0       59     
number of processes/call 1.94e+00 1.33e+00 4.04e+00 0.00e+00 0.00e+00
bytes total:             1.45e+07 1.98e+06 6.84e+06 0.00e+00 0.00e+00 4.72e+02
bytes remote:            1.28e+07 1.35e+06 6.10e+06 0.00e+00 0.00e+00 0.00e+00
Max memory consumed for GA by this process: 197384 bytes

MA_summarize_allocated_blocks: starting scan ...
MA_summarize_allocated_blocks: scan completed: 0 heap blocks, 0 stack blocks
MA usage statistics:

	allocation statistics:
					      heap	     stack
					      ----	     -----
	current number of blocks	         0	         0
	maximum number of blocks	        23	        51
	current total bytes		         0	         0
	maximum total bytes		   3362808	  22513768
	maximum total K-bytes		      3363	     22514
	maximum total M-bytes		         4	        23


                                     CITATION
                                     --------
                Please cite the following reference when publishing
                           results obtained with NWChem:

                 M. Valiev, E.J. Bylaska, N. Govind, K. Kowalski,
              T.P. Straatsma, H.J.J. van Dam, D. Wang, J. Nieplocha,
                        E. Apra, T.L. Windus, W.A. de Jong
                 "NWChem: a comprehensive and scalable open-source
                  solution for large scale molecular simulations"
                      Comput. Phys. Commun. 181, 1477 (2010)
                           doi:10.1016/j.cpc.2010.04.018

                                      AUTHORS
                                      -------
          E. Apra, E. J. Bylaska, W. A. de Jong, N. Govind, K. Kowalski,
       T. P. Straatsma, M. Valiev, H. J. J. van Dam, D. Wang, T. L. Windus,
        J. Hammond, J. Autschbach, K. Bhaskaran-Nair, J. Brabec, K. Lopata,
       S. A. Fischer, S. Krishnamoorthy, W. Ma, M. Klemm, O. Villa, Y. Chen,
    V. Anisimov, F. Aquino, S. Hirata, M. T. Hackler, T. Risthaus, M. Malagoli,
       A. Marenich, A. Otero-de-la-Roza, J. Mullin, P. Nichols, R. Peverati,
     J. Pittner, Y. Zhao, P.-D. Fan, A. Fonari, M. Williamson, R. J. Harrison,
       J. R. Rehr, M. Dupuis, D. Silverstein, D. M. A. Smith, J. Nieplocha,
        V. Tipparaju, M. Krishnan, B. E. Van Kuiken, A. Vazquez-Mayagoitia,
        L. Jensen, M. Swart, Q. Wu, T. Van Voorhis, A. A. Auer, M. Nooijen,
      L. D. Crosby, E. Brown, G. Cisneros, G. I. Fann, H. Fruchtl, J. Garza,
        K. Hirao, R. A. Kendall, J. A. Nichols, K. Tsemekhman, K. Wolinski,
     J. Anchell, D. E. Bernholdt, P. Borowski, T. Clark, D. Clerc, H. Dachsel,
   M. J. O. Deegan, K. Dyall, D. Elwood, E. Glendening, M. Gutowski, A. C. Hess,
         J. Jaffe, B. G. Johnson, J. Ju, R. Kobayashi, R. Kutteh, Z. Lin,
   R. Littlefield, X. Long, B. Meng, T. Nakajima, S. Niu, L. Pollack, M. Rosing,
   K. Glaesemann, G. Sandrone, M. Stave, H. Taylor, G. Thomas, J. H. van Lenthe,
                               A. T. Wong, Z. Zhang.

 Total times  cpu:        0.9s     wall:        1.6s
