[1537795807.780632] [r8n4:7215 :0]         sys.c:744  MXM  WARN  Conflicting CPU frequencies detected, using: 1794.90
[1537795807.790255] [r8n4:7216 :0]         sys.c:744  MXM  WARN  Conflicting CPU frequencies detected, using: 1899.84
[1537795807.790641] [r8n4:7218 :0]         sys.c:744  MXM  WARN  Conflicting CPU frequencies detected, using: 1899.84
[1537795807.791500] [r8n4:7219 :0]         sys.c:744  MXM  WARN  Conflicting CPU frequencies detected, using: 1899.84
[1537795807.791730] [r8n4:7220 :0]         sys.c:744  MXM  WARN  Conflicting CPU frequencies detected, using: 1899.84
[1537795807.792047] [r8n4:7221 :0]         sys.c:744  MXM  WARN  Conflicting CPU frequencies detected, using: 1899.84
[1537795807.792242] [r8n4:7217 :0]         sys.c:744  MXM  WARN  Conflicting CPU frequencies detected, using: 1899.84
[1537795807.811160] [r8n4:7227 :0]         sys.c:744  MXM  WARN  Conflicting CPU frequencies detected, using: 2097.76
[1537795807.811158] [r8n4:7223 :0]         sys.c:744  MXM  WARN  Conflicting CPU frequencies detected, using: 2097.76
[1537795807.811194] [r8n4:7225 :0]         sys.c:744  MXM  WARN  Conflicting CPU frequencies detected, using: 2097.76
[1537795807.831250] [r8n4:7237 :0]         sys.c:744  MXM  WARN  Conflicting CPU frequencies detected, using: 2295.87
[1537795807.831310] [r8n4:7229 :0]         sys.c:744  MXM  WARN  Conflicting CPU frequencies detected, using: 2295.87
[1537795807.831832] [r8n4:7233 :0]         sys.c:744  MXM  WARN  Conflicting CPU frequencies detected, using: 2295.87
[1537795807.831931] [r8n4:7235 :0]         sys.c:744  MXM  WARN  Conflicting CPU frequencies detected, using: 2295.87
[1537795807.831986] [r8n4:7231 :0]         sys.c:744  MXM  WARN  Conflicting CPU frequencies detected, using: 2295.87
[1537795807.832927] [r8n4:7239 :0]         sys.c:744  MXM  WARN  Conflicting CPU frequencies detected, using: 2295.87
 argument  1 = /storage/home/bikashp/nwchem_run/rabeet/ip13g2/nwip13g2/P+.nw
                                         
                                         


              Northwest Computational Chemistry Package (NWChem) 6.6
              ------------------------------------------------------


                    Environmental Molecular Sciences Laboratory
                       Pacific Northwest National Laboratory
                                Richland, WA 99352

                              Copyright (c) 1994-2015
                       Pacific Northwest National Laboratory
                            Battelle Memorial Institute

             NWChem is an open-source computational chemistry package
                        distributed under the terms of the
                      Educational Community License (ECL) 2.0
             A copy of the license is included with this distribution
                              in the LICENSE.TXT file

                                  ACKNOWLEDGMENT
                                  --------------

            This software and its documentation were developed at the
            EMSL at Pacific Northwest National Laboratory, a multiprogram
            national laboratory, operated for the U.S. Department of Energy
            by Battelle under Contract Number DE-AC05-76RL01830. Support
            for this work was provided by the Department of Energy Office
            of Biological and Environmental Research, Office of Basic
            Energy Sciences, and the Office of Advanced Scientific Computing.


           Job information
           ---------------

    hostname        = r8n4.niserhpc.org
    program         = /home/bikashp/Code/nwchem-6.6_tpssloc/bin/LINUX64/nwchem
    date            = Mon Sep 24 19:00:11 2018

    compiled        = Tue_Sep_18_16:24:59_2018
    source          = /home/bikashp/Code/nwchem-6.6_tpssloc
    nwchem branch   = 6.6
    nwchem revision = 27746
    ga revision     = 10594
    input           = /storage/home/bikashp/nwchem_run/rabeet/ip13g2/nwip13g2/P+.nw
    prefix          = P+.
    data base       = ./P+.db
    status          = startup
    nproc           =       16
    time left       =     -1s



           Memory information
           ------------------

    heap     =   13107196 doubles =    100.0 Mbytes
    stack    =   13107201 doubles =    100.0 Mbytes
    global   =   26214400 doubles =    200.0 Mbytes (distinct from heap & stack)
    total    =   52428797 doubles =    400.0 Mbytes
    verify   = yes
    hardfail = no 


           Directory information
           ---------------------

  0 permanent = .
  0 scratch   = .




                                NWChem Input Module
                                -------------------



 Scaling coordinates for geometry "geometry" by  1.889725989
 (inverse scale =  0.529177249)



                             Geometry "geometry" -> ""
                             -------------------------

 Output coordinates in angstroms (scale by  1.889725989 to convert to a.u.)

  No.       Tag          Charge          X              Y              Z
 ---- ---------------- ---------- -------------- -------------- --------------
    1 P                   15.0000     0.00000000     0.00000000     0.00000000

      Atomic Mass 
      ----------- 

      P                 30.973760


 Effective nuclear repulsion energy (a.u.)       0.0000000000

            Nuclear Dipole moment (a.u.) 
            ----------------------------
        X                 Y               Z
 ---------------- ---------------- ----------------
     0.0000000000     0.0000000000     0.0000000000


            XYZ format geometry
            -------------------
     1
 geometry
 P                     0.00000000     0.00000000     0.00000000



 Summary of "ao basis" -> "" (cartesian)
 ------------------------------------------------------------------------------
       Tag                 Description            Shells   Functions and Types
 ---------------- ------------------------------  ------  ---------------------
 *                     6-311++G(3df,3pd)              on all atoms 



                                 NWChem DFT Module
                                 -----------------


                      Basis "ao basis" -> "ao basis" (cartesian)
                      -----
  P (Phosphorous)
  ---------------
            Exponent  Coefficients 
       -------------- ---------------------------------------------------------
  1 S  7.74924000E+04  0.000781
  1 S  1.16058000E+04  0.006068
  1 S  2.64596000E+03  0.031160
  1 S  7.54976000E+02  0.123431
  1 S  2.48755000E+02  0.378209
  1 S  9.11565000E+01  0.563262

  2 S  9.11565000E+01  0.160255
  2 S  3.62257000E+01  0.627647
  2 S  1.52113000E+01  0.263849

  3 S  4.79417000E+00  1.000000

  4 S  1.80793000E+00  1.000000

  5 S  3.56816000E-01  1.000000

  6 S  1.14783000E-01  1.000000

  7 P  3.84843000E+02  0.009206
  7 P  9.05521000E+01  0.069874
  7 P  2.91339000E+01  0.292470
  7 P  1.08862000E+01  0.728103

  8 P  4.35259000E+00  0.628349
  8 P  1.77706000E+00  0.428044

  9 P  6.97005000E-01  1.000000

 10 P  2.53532000E-01  1.000000

 11 P  6.84930000E-02  1.000000

 12 S  3.48000000E-02  1.000000

 13 P  3.48000000E-02  1.000000

 14 D  2.20000000E+00  1.000000

 15 D  5.50000000E-01  1.000000

 16 D  1.37500000E-01  1.000000

 17 F  4.50000000E-01  1.000000



 Summary of "ao basis" -> "ao basis" (cartesian)
 ------------------------------------------------------------------------------
       Tag                 Description            Shells   Functions and Types
 ---------------- ------------------------------  ------  ---------------------
 P                     6-311++G(3df,3pd)            17       53   7s6p3d1f




 Summary of "ao basis" -> "ao basis" (cartesian)
 ------------------------------------------------------------------------------
       Tag                 Description            Shells   Functions and Types
 ---------------- ------------------------------  ------  ---------------------
 P                     6-311++G(3df,3pd)            17       53   7s6p3d1f


  Caching 1-el integrals 

            General Information
            -------------------
          SCF calculation type: DFT
          Wavefunction type:  spin polarized.
          No. of atoms     :     1
          No. of electrons :    14
           Alpha electrons :     8
            Beta electrons :     6
          Charge           :     1
          Spin multiplicity:     3
          Use of symmetry is: off; symmetry adaption is: off
          Maximum number of iterations: ***
          AO basis - number of functions:    53
                     number of shells:    17
          Convergence on energy requested: 1.00D-06
          Convergence on density requested: 1.00D-05
          Convergence on gradient requested: 5.00D-04

              XC Information
              --------------
                  TPSS metaGGA Exchange Functional  1.000          
             TPSS03 metaGGA Correlation Functional  1.000          

             Grid Information
             ----------------
          Grid used for XC integration:  medium    
          Radial quadrature: Mura-Knowles        
          Angular quadrature: Lebedev. 
          Tag              B.-S. Rad. Rad. Pts. Rad. Cut. Ang. Pts.
          ---              ---------- --------- --------- ---------
          P                   1.00       88           9.0       590
          Grid pruning is: on 
          Number of quadrature shells:    88
          Spatial weights used:  Erf1

          Convergence Information
          -----------------------
          Convergence aids based upon iterative change in 
          total energy or number of iterations. 
          Levelshifting, if invoked, occurs when the 
          HOMO/LUMO gap drops below (HL_TOL): 1.00D-02
          DIIS, if invoked, will attempt to extrapolate 
          using up to (NFOCK): 10 stored Fock matrices.

                    Damping( 0%)  Levelshifting(0.5)       DIIS
                  --------------- ------------------- ---------------
          dE  on:    start            ASAP                start   
          dE off:    2 iters        *** iters           *** iters 


      Screening Tolerance Information
      -------------------------------
          Density screening/tol_rho: 1.00D-10
          AO Gaussian exp screening on grid/accAOfunc:  14
          CD Gaussian exp screening on grid/accCDfunc:  20
          XC Gaussian exp screening on grid/accXCfunc:  20
          Schwarz screening/accCoul: 1.00D-08


      Superposition of Atomic Density Guess
      -------------------------------------

 Sum of atomic energies:        -340.65047561

 Renormalizing density from      15.00 to     14

      Non-variational initial energy
      ------------------------------

 Total energy =    -325.819232
 1-e energy   =    -439.889247
 2-e energy   =     114.070015
 HOMO         =      -0.652699
 LUMO         =      -0.652699

   Time after variat. SCF:      0.2
   Time prior to 1st pass:      0.2

 #quartets = 1.177D+04 #integrals = 1.644D+05 #direct =  0.0% #cached =100.0%


 Integral file          = ./P+.aoints.00
 Record size in doubles =    65536    No. of integs per rec  =    43688
 Max. records in memory =        4    Max. records in file   = 11667403
 No. of bits per label  =        8    No. of bits per value  =       64


File balance: exchanges=     0  moved=     0  time=   0.0


 Grid_pts file          = ./P+.gridpts.00
 Record size in doubles =  12289        No. of grid_pts per rec  =   3070
 Max. records in memory =      3        Max. recs in file   =  62221091


           Memory utilization after 1st SCF pass: 
           Heap Space remaining (MW):       12.81            12805276
          Stack Space remaining (MW):       13.11            13106660

   convergence    iter        energy       DeltaE   RMS-Dens  Diis-err    time
 ---------------- ----- ----------------- --------- --------- ---------  ------
 d= 0,ls=0.0,diis     1   -340.7872153565 -3.41D+02  2.99D-02  2.11D+00     0.5
                                                     2.88D-02  2.18D+00
 d= 0,ls=0.5,diis     2   -340.8709962655 -8.38D-02  8.05D-03  5.49D-01     0.6
                                                     9.21D-03  5.54D-01
 d= 0,ls=0.5,diis     3   -340.9286998002 -5.77D-02  4.71D-03  5.31D-03     0.7
                                                     3.23D-03  1.03D-02
 d= 0,ls=0.5,diis     4   -340.9316939375 -2.99D-03  1.04D-03  1.14D-04     0.7
                                                     7.23D-04  6.28D-04
 d= 0,ls=0.5,diis     5   -340.9316879195  6.02D-06  3.21D-04  2.24D-05     0.8
                                                     2.62D-04  9.66D-05
  Resetting Diis
 d= 0,ls=0.5,diis     6   -340.9317006383 -1.27D-05  7.11D-05  3.82D-06     0.9
                                                     1.07D-04  1.40D-05
 d= 0,ls=0.5,diis     7   -340.9316975467  3.09D-06  2.18D-05  8.22D-07     1.0
                                                     3.12D-05  1.98D-06
 d= 0,ls=0.5,diis     8   -340.9317051390 -7.59D-06  2.01D-05  2.77D-07     1.1
                                                     2.90D-05  4.03D-07
 d= 0,ls=0.5,diis     9   -340.9317038670  1.27D-06  6.03D-06  5.70D-08     1.2
                                                     7.29D-06  8.53D-08
 d= 0,ls=0.5,diis    10   -340.9317066747 -2.81D-06  2.33D-06  1.15D-08     1.3
                                                     2.98D-06  1.49D-08
 d= 0,ls=0.5,diis    11   -340.9317070750 -4.00D-07  1.11D-06  2.65D-09     1.4
                                                     1.36D-06  2.50D-09


         Total DFT energy =     -340.931707210279
      One electron energy =     -465.358221734650
           Coulomb energy =      147.313808381915
          Exchange energy =      -22.347058821112
       Correlation energy =       -0.540235036431
 Nuclear repulsion energy =        0.000000000000

 Numeric. integr. density =       13.999999999824

     Total iterative time =      1.2s



                    DFT Final Alpha Molecular Orbital Analysis
                    ------------------------------------------

 Vector    1  Occ=1.000000D+00  E=-7.710847D+01
              MO Center=  3.7D-17, -1.3D-17, -1.7D-17, r^2= 4.1D-03
   Bfn.  Coefficient  Atom+Function         Bfn.  Coefficient  Atom+Function  
  ----- ------------  ---------------      ----- ------------  ---------------
     2      0.645176  1 P  s                  1      0.419465  1 P  s          

 Vector    2  Occ=1.000000D+00  E=-6.883908D+00
              MO Center=  1.8D-15, -1.3D-15,  1.0D-15, r^2= 9.1D-02
   Bfn.  Coefficient  Atom+Function         Bfn.  Coefficient  Atom+Function  
  ----- ------------  ---------------      ----- ------------  ---------------
     4      0.611563  1 P  s                  3      0.492685  1 P  s          
     2     -0.310714  1 P  s          

 Vector    3  Occ=1.000000D+00  E=-5.071937D+00
              MO Center=  1.7D-16, -5.4D-16,  8.2D-16, r^2= 8.3D-02
   Bfn.  Coefficient  Atom+Function         Bfn.  Coefficient  Atom+Function  
  ----- ------------  ---------------      ----- ------------  ---------------
    12      0.621258  1 P  pz                 9      0.369638  1 P  pz         
    11      0.227915  1 P  py                10      0.168705  1 P  px         

 Vector    4  Occ=1.000000D+00  E=-5.063730D+00
              MO Center= -5.4D-17,  1.5D-15, -7.2D-16, r^2= 8.3D-02
   Bfn.  Coefficient  Atom+Function         Bfn.  Coefficient  Atom+Function  
  ----- ------------  ---------------      ----- ------------  ---------------
    11      0.642467  1 P  py                 8      0.383790  1 P  py         
    12     -0.214939  1 P  pz         

 Vector    5  Occ=1.000000D+00  E=-5.063730D+00
              MO Center= -1.2D-15, -6.6D-16, -7.4D-17, r^2= 8.3D-02
   Bfn.  Coefficient  Atom+Function         Bfn.  Coefficient  Atom+Function  
  ----- ------------  ---------------      ----- ------------  ---------------
    10      0.656199  1 P  px                 7      0.391993  1 P  px         
    12     -0.184223  1 P  pz         

 Vector    6  Occ=1.000000D+00  E=-9.378430D-01
              MO Center=  6.5D-16, -5.9D-15, -2.4D-15, r^2= 1.1D+00
   Bfn.  Coefficient  Atom+Function         Bfn.  Coefficient  Atom+Function  
  ----- ------------  ---------------      ----- ------------  ---------------
     6      0.903793  1 P  s                  5      0.558503  1 P  s          
     4     -0.391410  1 P  s                  3     -0.221646  1 P  s          

 Vector    7  Occ=1.000000D+00  E=-6.028895D-01
              MO Center=  2.7D-15, -4.6D-15, -1.3D-15, r^2= 1.5D+00
   Bfn.  Coefficient  Atom+Function         Bfn.  Coefficient  Atom+Function  
  ----- ------------  ---------------      ----- ------------  ---------------
    16      0.912351  1 P  px                18     -0.255978  1 P  pz         
    10     -0.193790  1 P  px                19      0.183451  1 P  px         
    13      0.169792  1 P  px         

 Vector    8  Occ=1.000000D+00  E=-6.028892D-01
              MO Center= -8.0D-16, -1.2D-15, -5.8D-15, r^2= 1.5D+00
   Bfn.  Coefficient  Atom+Function         Bfn.  Coefficient  Atom+Function  
  ----- ------------  ---------------      ----- ------------  ---------------
    17      0.893214  1 P  py                18     -0.298947  1 P  pz         
    11     -0.189725  1 P  py                20      0.179610  1 P  py         
    14      0.166229  1 P  py         

 Vector    9  Occ=0.000000D+00  E=-6.005834D-01
              MO Center=  1.5D-15, -5.0D-16,  1.1D-14, r^2= 1.5D+00
   Bfn.  Coefficient  Atom+Function         Bfn.  Coefficient  Atom+Function  
  ----- ------------  ---------------      ----- ------------  ---------------
    18      0.738134  1 P  pz                17      0.270792  1 P  py         
    16      0.200443  1 P  px                21      0.187970  1 P  pz         
    15      0.182437  1 P  pz                12     -0.178871  1 P  pz         

 Vector   10  Occ=0.000000D+00  E=-1.892321D-01
              MO Center=  1.8D-14,  7.0D-15,  5.8D-15, r^2= 7.3D+00
   Bfn.  Coefficient  Atom+Function         Bfn.  Coefficient  Atom+Function  
  ----- ------------  ---------------      ----- ------------  ---------------
    22      1.155356  1 P  s                  6     -0.501038  1 P  s          
     5     -0.409150  1 P  s                  4      0.176661  1 P  s          
    38      0.156962  1 P  dxx        

 Vector   11  Occ=0.000000D+00  E=-1.774555D-01
              MO Center=  1.3D-15, -1.3D-15,  1.0D-15, r^2= 2.7D+00
   Bfn.  Coefficient  Atom+Function         Bfn.  Coefficient  Atom+Function  
  ----- ------------  ---------------      ----- ------------  ---------------
    42      1.036247  1 P  dyz               41      0.435190  1 P  dyy        
    36      0.408214  1 P  dyz               43     -0.408899  1 P  dzz        
    39      0.286615  1 P  dxy               40     -0.207851  1 P  dxz        
    35      0.171437  1 P  dyy               37     -0.161080  1 P  dzz        

 Vector   12  Occ=0.000000D+00  E=-1.774555D-01
              MO Center=  1.9D-15,  4.0D-16,  3.9D-15, r^2= 2.7D+00
   Bfn.  Coefficient  Atom+Function         Bfn.  Coefficient  Atom+Function  
  ----- ------------  ---------------      ----- ------------  ---------------
    40      1.127272  1 P  dxz               34      0.444073  1 P  dxz        
    39      0.442451  1 P  dxy               38      0.330108  1 P  dxx        
    43     -0.325361  1 P  dzz               33      0.174297  1 P  dxy        

 Vector   13  Occ=0.000000D+00  E=-1.757420D-01
              MO Center=  3.2D-14, -1.8D-14, -6.6D-15, r^2= 2.7D+00
   Bfn.  Coefficient  Atom+Function         Bfn.  Coefficient  Atom+Function  
  ----- ------------  ---------------      ----- ------------  ---------------
    38      0.640110  1 P  dxx               41     -0.619482  1 P  dyy        
    42      0.412134  1 P  dyz               40     -0.404917  1 P  dxz        
    32      0.242643  1 P  dxx               35     -0.234825  1 P  dyy        
    36      0.156225  1 P  dyz               39      0.156093  1 P  dxy        
    34     -0.153490  1 P  dxz        

 Vector   14  Occ=0.000000D+00  E=-1.757420D-01
              MO Center= -9.9D-15, -1.2D-14,  4.7D-15, r^2= 2.7D+00
   Bfn.  Coefficient  Atom+Function         Bfn.  Coefficient  Atom+Function  
  ----- ------------  ---------------      ----- ------------  ---------------
    39      1.264664  1 P  dxy               33      0.479391  1 P  dxy        
    40     -0.388697  1 P  dxz               42     -0.358168  1 P  dyz        

 Vector   15  Occ=0.000000D+00  E=-1.731097D-01
              MO Center= -2.9D-15, -2.8D-15, -4.5D-15, r^2= 2.9D+00
   Bfn.  Coefficient  Atom+Function         Bfn.  Coefficient  Atom+Function  
  ----- ------------  ---------------      ----- ------------  ---------------
    42      0.704033  1 P  dyz               43      0.590770  1 P  dzz        
    40      0.521129  1 P  dxz               38     -0.298002  1 P  dxx        
    36      0.292313  1 P  dyz               37      0.288482  1 P  dzz        
    22      0.255491  1 P  s                 41     -0.239630  1 P  dyy        
    34      0.216373  1 P  dxz                5     -0.207599  1 P  s          

 Vector   16  Occ=0.000000D+00  E=-1.205840D-01
              MO Center=  5.0D-15,  1.1D-14,  4.2D-16, r^2= 1.1D+01
   Bfn.  Coefficient  Atom+Function         Bfn.  Coefficient  Atom+Function  
  ----- ------------  ---------------      ----- ------------  ---------------
    24      0.992963  1 P  py                25     -0.410656  1 P  pz         
    17     -0.239533  1 P  py                23      0.171364  1 P  px         

 Vector   17  Occ=0.000000D+00  E=-1.205830D-01
              MO Center= -3.8D-14,  6.6D-15,  8.7D-15, r^2= 1.1D+01
   Bfn.  Coefficient  Atom+Function         Bfn.  Coefficient  Atom+Function  
  ----- ------------  ---------------      ----- ------------  ---------------
    23      1.040337  1 P  px                24     -0.257364  1 P  py         
    16     -0.250968  1 P  px                25     -0.188186  1 P  pz         

 Vector   18  Occ=0.000000D+00  E=-1.184201D-01
              MO Center= -3.7D-15, -3.0D-15, -1.7D-14, r^2= 1.1D+01
   Bfn.  Coefficient  Atom+Function         Bfn.  Coefficient  Atom+Function  
  ----- ------------  ---------------      ----- ------------  ---------------
    25      0.998142  1 P  pz                24      0.366025  1 P  py         
    23      0.271096  1 P  px                18     -0.216002  1 P  pz         

 Vector   19  Occ=0.000000D+00  E= 5.456410D-02
              MO Center=  1.3D-12, -3.5D-13,  5.6D-14, r^2= 9.4D+00
   Bfn.  Coefficient  Atom+Function         Bfn.  Coefficient  Atom+Function  
  ----- ------------  ---------------      ----- ------------  ---------------
    22      2.041767  1 P  s                 38     -1.401680  1 P  dxx        
    41     -1.401880  1 P  dyy               43     -1.404745  1 P  dzz        
     6      1.343752  1 P  s                  4     -0.287801  1 P  s          
    37     -0.251157  1 P  dzz               32     -0.236886  1 P  dxx        
    35     -0.237824  1 P  dyy                3     -0.164976  1 P  s          

 Vector   20  Occ=0.000000D+00  E= 5.656839D-02
              MO Center= -2.4D-14, -5.7D-14,  2.8D-14, r^2= 1.2D+01
   Bfn.  Coefficient  Atom+Function         Bfn.  Coefficient  Atom+Function  
  ----- ------------  ---------------      ----- ------------  ---------------
    20      2.493518  1 P  py                24     -1.830981  1 P  py         
    17     -1.702592  1 P  py                21     -1.158592  1 P  pz         
    19      0.901597  1 P  px                25      0.850756  1 P  pz         
    18      0.791079  1 P  pz                23     -0.662039  1 P  px         
    16     -0.615618  1 P  px                45      0.451785  1 P  fxxy       

 Vector   21  Occ=0.000000D+00  E= 5.656972D-02
              MO Center= -1.2D-12,  5.1D-13,  1.5D-13, r^2= 1.2D+01
   Bfn.  Coefficient  Atom+Function         Bfn.  Coefficient  Atom+Function  
  ----- ------------  ---------------      ----- ------------  ---------------
    19      2.654876  1 P  px                23     -1.949474  1 P  px         
    16     -1.812749  1 P  px                20     -1.106677  1 P  py         
    24      0.812631  1 P  py                17      0.755645  1 P  py         
    44      0.481557  1 P  fxxx              47      0.481725  1 P  fxyy       
    49      0.475046  1 P  fxzz              21     -0.315809  1 P  pz         

 Vector   22  Occ=0.000000D+00  E= 5.799987D-02
              MO Center= -6.6D-14, -8.5D-14, -2.3D-13, r^2= 1.2D+01
   Bfn.  Coefficient  Atom+Function         Bfn.  Coefficient  Atom+Function  
  ----- ------------  ---------------      ----- ------------  ---------------
    21      2.650485  1 P  pz                25     -1.936974  1 P  pz         
    18     -1.843649  1 P  pz                20      0.971170  1 P  py         
    19      0.720103  1 P  px                24     -0.709724  1 P  py         
    17     -0.675555  1 P  py                23     -0.526253  1 P  px         
    16     -0.500890  1 P  px                46      0.499255  1 P  fxxz       

 Vector   23  Occ=0.000000D+00  E= 4.528408D-01
              MO Center= -1.3D-15,  7.2D-16, -6.8D-16, r^2= 2.1D+00
   Bfn.  Coefficient  Atom+Function         Bfn.  Coefficient  Atom+Function  
  ----- ------------  ---------------      ----- ------------  ---------------
    36      0.881701  1 P  dyz               37      0.717539  1 P  dzz        
    42     -0.713691  1 P  dyz               43     -0.691817  1 P  dzz        
    34      0.652645  1 P  dxz               40     -0.528282  1 P  dxz        
    32     -0.395537  1 P  dxx                6      0.323719  1 P  s          
    35     -0.322411  1 P  dyy               33      0.239428  1 P  dxy        

 Vector   24  Occ=0.000000D+00  E= 4.565185D-01
              MO Center=  2.2D-15,  2.7D-17,  6.0D-16, r^2= 2.0D+00
   Bfn.  Coefficient  Atom+Function         Bfn.  Coefficient  Atom+Function  
  ----- ------------  ---------------      ----- ------------  ---------------
    34      1.354655  1 P  dxz               40     -1.080924  1 P  dxz        
    33      0.554822  1 P  dxy               39     -0.442711  1 P  dxy        
    37     -0.420436  1 P  dzz               32      0.398864  1 P  dxx        
    43      0.335480  1 P  dzz               38     -0.318267  1 P  dxx        
    28      0.219523  1 P  dxz        

 Vector   25  Occ=0.000000D+00  E= 4.565186D-01
              MO Center= -8.7D-16, -1.2D-15,  2.3D-16, r^2= 2.0D+00
   Bfn.  Coefficient  Atom+Function         Bfn.  Coefficient  Atom+Function  
  ----- ------------  ---------------      ----- ------------  ---------------
    36      1.265573  1 P  dyz               42     -1.009842  1 P  dyz        
    35      0.528310  1 P  dyy               37     -0.475681  1 P  dzz        
    41     -0.421556  1 P  dyy               43      0.379562  1 P  dzz        
    34     -0.322983  1 P  dxz               33      0.319959  1 P  dxy        
    40      0.257719  1 P  dxz               39     -0.255306  1 P  dxy        

 Vector   26  Occ=0.000000D+00  E= 4.577921D-01
              MO Center=  3.5D-15, -1.5D-16,  5.1D-16, r^2= 2.0D+00
   Bfn.  Coefficient  Atom+Function         Bfn.  Coefficient  Atom+Function  
  ----- ------------  ---------------      ----- ------------  ---------------
    32      0.769597  1 P  dxx               35     -0.746837  1 P  dyy        
    38     -0.607867  1 P  dxx               41      0.589888  1 P  dyy        
    34     -0.495298  1 P  dxz               36      0.490736  1 P  dyz        
    40      0.391211  1 P  dxz               42     -0.387608  1 P  dyz        
    33      0.210779  1 P  dxy               39     -0.166483  1 P  dxy        

 Vector   27  Occ=0.000000D+00  E= 4.577921D-01
              MO Center= -3.8D-15,  3.8D-15, -2.8D-16, r^2= 2.0D+00
   Bfn.  Coefficient  Atom+Function         Bfn.  Coefficient  Atom+Function  
  ----- ------------  ---------------      ----- ------------  ---------------
    33      1.522598  1 P  dxy               39     -1.202623  1 P  dxy        
    34     -0.461623  1 P  dxz               36     -0.439338  1 P  dyz        
    40      0.364613  1 P  dxz               42      0.347011  1 P  dyz        
    27      0.250257  1 P  dxy               32     -0.178525  1 P  dxx        

 Vector   28  Occ=0.000000D+00  E= 6.015712D-01
              MO Center= -3.2D-15, -5.8D-14,  2.0D-14, r^2= 5.1D+00
   Bfn.  Coefficient  Atom+Function         Bfn.  Coefficient  Atom+Function  
  ----- ------------  ---------------      ----- ------------  ---------------
    17      8.128427  1 P  py                45     -3.336033  1 P  fxxy       
    50     -3.336100  1 P  fyyy              52     -3.337144  1 P  fyzz       
    18     -3.240878  1 P  pz                14     -2.807215  1 P  py         
    20     -2.363423  1 P  py                46      1.329974  1 P  fxxz       
    51      1.328798  1 P  fyyz              53      1.330761  1 P  fzzz       


                     DFT Final Beta Molecular Orbital Analysis
                     -----------------------------------------

 Vector    1  Occ=1.000000D+00  E=-7.709842D+01
              MO Center= -1.0D-17,  2.1D-17,  5.5D-20, r^2= 4.1D-03
   Bfn.  Coefficient  Atom+Function         Bfn.  Coefficient  Atom+Function  
  ----- ------------  ---------------      ----- ------------  ---------------
     2      0.645201  1 P  s                  1      0.419497  1 P  s          

 Vector    2  Occ=1.000000D+00  E=-6.875781D+00
              MO Center=  9.5D-16,  1.2D-16,  1.3D-15, r^2= 9.1D-02
   Bfn.  Coefficient  Atom+Function         Bfn.  Coefficient  Atom+Function  
  ----- ------------  ---------------      ----- ------------  ---------------
     4      0.615521  1 P  s                  3      0.490856  1 P  s          
     2     -0.310475  1 P  s          

 Vector    3  Occ=1.000000D+00  E=-5.067627D+00
              MO Center= -3.6D-16, -7.2D-16, -1.5D-15, r^2= 8.3D-02
   Bfn.  Coefficient  Atom+Function         Bfn.  Coefficient  Atom+Function  
  ----- ------------  ---------------      ----- ------------  ---------------
    12      0.621658  1 P  pz                 9      0.369390  1 P  pz         
    11      0.228062  1 P  py                10      0.168814  1 P  px         

 Vector    4  Occ=1.000000D+00  E=-5.047909D+00
              MO Center=  3.3D-16,  6.6D-16,  1.9D-16, r^2= 8.3D-02
   Bfn.  Coefficient  Atom+Function         Bfn.  Coefficient  Atom+Function  
  ----- ------------  ---------------      ----- ------------  ---------------
    11      0.644106  1 P  py                 8      0.383063  1 P  py         
    12     -0.215481  1 P  pz         

 Vector    5  Occ=1.000000D+00  E=-5.047909D+00
              MO Center= -3.7D-16, -6.4D-16,  4.3D-16, r^2= 8.3D-02
   Bfn.  Coefficient  Atom+Function         Bfn.  Coefficient  Atom+Function  
  ----- ------------  ---------------      ----- ------------  ---------------
    10      0.657870  1 P  px                 7      0.391249  1 P  px         
    12     -0.184702  1 P  pz         

 Vector    6  Occ=1.000000D+00  E=-8.722095D-01
              MO Center= -6.9D-16,  2.4D-15,  1.4D-15, r^2= 1.1D+00
   Bfn.  Coefficient  Atom+Function         Bfn.  Coefficient  Atom+Function  
  ----- ------------  ---------------      ----- ------------  ---------------
     6      1.049141  1 P  s                  4     -0.403251  1 P  s          
     5      0.389426  1 P  s                  3     -0.193205  1 P  s          
    38     -0.169018  1 P  dxx               41     -0.168521  1 P  dyy        
    43     -0.161347  1 P  dzz        

 Vector    7  Occ=0.000000D+00  E=-5.881779D-01
              MO Center= -1.3D-15, -2.2D-17, -6.2D-15, r^2= 1.5D+00
   Bfn.  Coefficient  Atom+Function         Bfn.  Coefficient  Atom+Function  
  ----- ------------  ---------------      ----- ------------  ---------------
    18      0.752380  1 P  pz                17      0.276019  1 P  py         
    16      0.204312  1 P  px                21      0.184893  1 P  pz         
    12     -0.174877  1 P  pz                15      0.168231  1 P  pz         

 Vector    8  Occ=0.000000D+00  E=-5.302298D-01
              MO Center= -5.6D-15,  8.9D-15,  2.4D-15, r^2= 1.6D+00
   Bfn.  Coefficient  Atom+Function         Bfn.  Coefficient  Atom+Function  
  ----- ------------  ---------------      ----- ------------  ---------------
    17      1.057585  1 P  py                18     -0.353769  1 P  pz         
    20      0.201365  1 P  py                45     -0.187742  1 P  fxxy       
    50     -0.183534  1 P  fyyy              11     -0.169130  1 P  py         
    52     -0.152695  1 P  fyzz       

 Vector    9  Occ=0.000000D+00  E=-5.302289D-01
              MO Center= -1.7D-14,  2.9D-15,  6.4D-16, r^2= 1.6D+00
   Bfn.  Coefficient  Atom+Function         Bfn.  Coefficient  Atom+Function  
  ----- ------------  ---------------      ----- ------------  ---------------
    16      1.080171  1 P  px                18     -0.303316  1 P  pz         
    19      0.205666  1 P  px                44     -0.190545  1 P  fxxx       
    47     -0.187198  1 P  fxyy              10     -0.172742  1 P  px         
    49     -0.151235  1 P  fxzz       

 Vector   10  Occ=0.000000D+00  E=-1.704226D-01
              MO Center=  1.7D-14,  3.4D-15,  2.7D-16, r^2= 5.2D+00
   Bfn.  Coefficient  Atom+Function         Bfn.  Coefficient  Atom+Function  
  ----- ------------  ---------------      ----- ------------  ---------------
    22      0.854110  1 P  s                 42     -0.488577  1 P  dyz        
    43     -0.380785  1 P  dzz               40     -0.361646  1 P  dxz        
     5     -0.295308  1 P  s                 38      0.235994  1 P  dxx        
    37     -0.231594  1 P  dzz               36     -0.205648  1 P  dyz        
    41      0.195485  1 P  dyy               34     -0.152222  1 P  dxz        

 Vector   11  Occ=0.000000D+00  E=-1.523091D-01
              MO Center= -2.0D-16,  1.8D-15,  7.0D-15, r^2= 5.3D+00
   Bfn.  Coefficient  Atom+Function         Bfn.  Coefficient  Atom+Function  
  ----- ------------  ---------------      ----- ------------  ---------------
    22      0.903956  1 P  s                 42      0.545266  1 P  dyz        
    43      0.481465  1 P  dzz                6     -0.473684  1 P  s          
    40      0.403604  1 P  dxz                5     -0.326793  1 P  s          
    38     -0.206873  1 P  dxx               36      0.187755  1 P  dyz        
    37      0.176469  1 P  dzz               41     -0.161668  1 P  dyy        

 Vector   12  Occ=0.000000D+00  E=-1.506837D-01
              MO Center= -2.1D-15,  8.2D-15, -2.3D-15, r^2= 2.8D+00
   Bfn.  Coefficient  Atom+Function         Bfn.  Coefficient  Atom+Function  
  ----- ------------  ---------------      ----- ------------  ---------------
    42      1.066158  1 P  dyz               41      0.445819  1 P  dyy        
    43     -0.406340  1 P  dzz               36      0.375658  1 P  dyz        
    39      0.276664  1 P  dxy               40     -0.255727  1 P  dxz        
    35      0.157083  1 P  dyy        

 Vector   13  Occ=0.000000D+00  E=-1.506833D-01
              MO Center= -2.3D-15,  2.2D-15,  2.6D-15, r^2= 2.8D+00
   Bfn.  Coefficient  Atom+Function         Bfn.  Coefficient  Atom+Function  
  ----- ------------  ---------------      ----- ------------  ---------------
    40      1.146431  1 P  dxz               39      0.463978  1 P  dxy        
    34      0.403942  1 P  dxz               43     -0.348728  1 P  dzz        
    38      0.337033  1 P  dxx               33      0.163481  1 P  dxy        

 Vector   14  Occ=0.000000D+00  E=-1.351206D-01
              MO Center= -9.4D-16,  1.4D-14, -1.6D-15, r^2= 2.9D+00
   Bfn.  Coefficient  Atom+Function         Bfn.  Coefficient  Atom+Function  
  ----- ------------  ---------------      ----- ------------  ---------------
    39      1.332673  1 P  dxy               40     -0.399763  1 P  dxz        
    42     -0.390006  1 P  dyz               33      0.378548  1 P  dxy        
    38     -0.164134  1 P  dxx        

 Vector   15  Occ=0.000000D+00  E=-1.351206D-01
              MO Center=  9.5D-15, -4.5D-15, -1.0D-16, r^2= 2.9D+00
   Bfn.  Coefficient  Atom+Function         Bfn.  Coefficient  Atom+Function  
  ----- ------------  ---------------      ----- ------------  ---------------
    38      0.672892  1 P  dxx               41     -0.654350  1 P  dyy        
    40     -0.438783  1 P  dxz               42      0.425828  1 P  dyz        
    39      0.199873  1 P  dxy               32      0.191136  1 P  dxx        
    35     -0.185868  1 P  dyy        

 Vector   16  Occ=0.000000D+00  E=-1.044107D-01
              MO Center= -3.0D-15, -1.0D-14, -1.2D-14, r^2= 1.1D+01
   Bfn.  Coefficient  Atom+Function         Bfn.  Coefficient  Atom+Function  
  ----- ------------  ---------------      ----- ------------  ---------------
    25      1.083306  1 P  pz                24      0.397471  1 P  py         
    23      0.294162  1 P  px                21     -0.196572  1 P  pz         
    15     -0.160899  1 P  pz         

 Vector   17  Occ=0.000000D+00  E=-9.293753D-02
              MO Center= -1.2D-14, -7.0D-15,  6.7D-15, r^2= 1.2D+01
   Bfn.  Coefficient  Atom+Function         Bfn.  Coefficient  Atom+Function  
  ----- ------------  ---------------      ----- ------------  ---------------
    24      1.077909  1 P  py                25     -0.532754  1 P  pz         
    23      0.505557  1 P  px                20     -0.310404  1 P  py         
    21      0.153408  1 P  pz         

 Vector   18  Occ=0.000000D+00  E=-9.293672D-02
              MO Center= -1.4D-15, -6.3D-15,  1.6D-15, r^2= 1.2D+01
   Bfn.  Coefficient  Atom+Function         Bfn.  Coefficient  Atom+Function  
  ----- ------------  ---------------      ----- ------------  ---------------
    23      1.158393  1 P  px                24     -0.591511  1 P  py         
    19     -0.333566  1 P  px                20      0.170332  1 P  py         
    13     -0.151694  1 P  px         

 Vector   19  Occ=0.000000D+00  E= 6.857613D-02
              MO Center=  3.0D-14,  3.9D-14,  1.2D-13, r^2= 1.2D+01
   Bfn.  Coefficient  Atom+Function         Bfn.  Coefficient  Atom+Function  
  ----- ------------  ---------------      ----- ------------  ---------------
    21      2.642903  1 P  pz                25     -1.893807  1 P  pz         
    18     -1.843128  1 P  pz                20      0.969685  1 P  py         
    19      0.717656  1 P  px                24     -0.694835  1 P  py         
    17     -0.676258  1 P  py                23     -0.514248  1 P  px         
    46      0.505723  1 P  fxxz              16     -0.500481  1 P  px         

 Vector   20  Occ=0.000000D+00  E= 7.288171D-02
              MO Center=  5.2D-14,  1.6D-13, -2.1D-13, r^2= 9.2D+00
   Bfn.  Coefficient  Atom+Function         Bfn.  Coefficient  Atom+Function  
  ----- ------------  ---------------      ----- ------------  ---------------
    22      2.012450  1 P  s                 43     -1.461735  1 P  dzz        
     6      1.403129  1 P  s                 38     -1.387998  1 P  dxx        
    41     -1.392843  1 P  dyy                4     -0.303538  1 P  s          
    32     -0.247229  1 P  dxx               35     -0.246187  1 P  dyy        
    37     -0.231394  1 P  dzz                3     -0.168200  1 P  s          

 Vector   21  Occ=0.000000D+00  E= 8.403792D-02
              MO Center= -6.7D-14, -2.0D-13,  9.4D-14, r^2= 1.1D+01
   Bfn.  Coefficient  Atom+Function         Bfn.  Coefficient  Atom+Function  
  ----- ------------  ---------------      ----- ------------  ---------------
    20      2.534567  1 P  py                17     -1.921475  1 P  py         
    24     -1.759223  1 P  py                21     -1.159517  1 P  pz         
    18      0.879032  1 P  pz                19      0.845478  1 P  px         
    25      0.804816  1 P  pz                16     -0.640969  1 P  px         
    23     -0.586838  1 P  px                45      0.521944  1 P  fxxy       

 Vector   22  Occ=0.000000D+00  E= 8.403912D-02
              MO Center= -2.4D-15, -2.2D-15,  1.1D-15, r^2= 1.1D+01
   Bfn.  Coefficient  Atom+Function         Bfn.  Coefficient  Atom+Function  
  ----- ------------  ---------------      ----- ------------  ---------------
    19      2.692741  1 P  px                16     -2.041384  1 P  px         
    23     -1.869017  1 P  px                20     -1.055569  1 P  py         
    17      0.800232  1 P  py                24      0.732664  1 P  py         
    44      0.557517  1 P  fxxx              47      0.558296  1 P  fxyy       
    49      0.518828  1 P  fxzz              21     -0.343900  1 P  pz         

 Vector   23  Occ=0.000000D+00  E= 4.849676D-01
              MO Center= -2.7D-15, -2.2D-15, -1.8D-15, r^2= 2.0D+00
   Bfn.  Coefficient  Atom+Function         Bfn.  Coefficient  Atom+Function  
  ----- ------------  ---------------      ----- ------------  ---------------
    36      0.883122  1 P  dyz               37      0.772583  1 P  dzz        
    42     -0.697345  1 P  dyz               34      0.653687  1 P  dxz        
    40     -0.516176  1 P  dxz               43     -0.492966  1 P  dzz        
    38      0.387361  1 P  dxx               32     -0.342267  1 P  dxx        
    41      0.329544  1 P  dyy               35     -0.269048  1 P  dyy        

 Vector   24  Occ=0.000000D+00  E= 5.012391D-01
              MO Center= -5.7D-17,  2.6D-15,  1.5D-15, r^2= 2.0D+00
   Bfn.  Coefficient  Atom+Function         Bfn.  Coefficient  Atom+Function  
  ----- ------------  ---------------      ----- ------------  ---------------
    36      1.267842  1 P  dyz               42     -0.980253  1 P  dyz        
    35      0.530189  1 P  dyy               37     -0.483463  1 P  dzz        
    41     -0.409924  1 P  dyy               43      0.373798  1 P  dzz        
    33      0.329326  1 P  dxy               34     -0.303354  1 P  dxz        
    39     -0.254624  1 P  dxy               40      0.234543  1 P  dxz        


   alpha - beta orbital overlaps 
   ----------------------------- 


   alpha      1      2      3      4      5      6      7      8      9     10
    beta      1      2      3      4      5      6      9      8      7     10
 overlap   1.000  1.000  1.000  1.000  1.000  0.998  0.998  0.998  1.000  0.852


   alpha     11     12     13     14     15     16     17     18     19     20
    beta     12     13     15     14     11     17     18     16     20     21
 overlap   0.999  0.999  0.998  0.998  0.849  0.963  0.963  0.999  0.998  0.993


   alpha     21     22     23     24     25     26     27     28     29     30
    beta     22     19     23     25     24     27     26     29     30     28
 overlap   0.993  0.999  0.998  1.000  1.000  0.998  0.998  0.986  0.986  0.998


   alpha     31     32     33     34     35     36     37     38     39     40
    beta     31     32     34     33     35     36     37     38     39     40
 overlap   0.999  0.998  0.997  0.997  1.000  1.000  1.000  1.000  1.000  0.810


   alpha     41     42     43     44     45     46     47     48     49     50
    beta     41     42     43     44     45     46     47     48     49     50
 overlap   0.810  1.000  1.000  1.000  1.000  1.000  1.000  1.000  1.000  1.000


   alpha     51     52     53
    beta     51     52     53
 overlap   1.000  1.000  1.000

     --------------------------
     Expectation value of S2:  
     --------------------------
      <S2> =      2.0045 (Exact =     2.0000)


 Parallel integral file used      16 records with       0 large values


 Task  times  cpu:        1.4s     wall:        2.2s


                                NWChem Input Module
                                -------------------


 Summary of allocated global arrays
-----------------------------------
  No active global arrays



                         GA Statistics for process    0
                         ------------------------------

       create   destroy   get      put      acc     scatter   gather  read&inc
calls:  331      331     1208      923      303        0        0       33     
number of processes/call 1.73e+00 1.50e+00 3.39e+00 0.00e+00 0.00e+00
bytes total:             1.76e+07 6.74e+06 6.81e+06 0.00e+00 0.00e+00 2.64e+02
bytes remote:            1.39e+06 5.56e+05 1.26e+06 0.00e+00 0.00e+00 0.00e+00
Max memory consumed for GA by this process: 1415736 bytes

MA_summarize_allocated_blocks: starting scan ...
MA_summarize_allocated_blocks: scan completed: 0 heap blocks, 0 stack blocks
MA usage statistics:

	allocation statistics:
					      heap	     stack
					      ----	     -----
	current number of blocks	         0	         0
	maximum number of blocks	        23	        51
	current total bytes		         0	         0
	maximum total bytes		   2415384	  22513064
	maximum total K-bytes		      2416	     22514
	maximum total M-bytes		         3	        23


                                     CITATION
                                     --------
                Please cite the following reference when publishing
                           results obtained with NWChem:

                 M. Valiev, E.J. Bylaska, N. Govind, K. Kowalski,
              T.P. Straatsma, H.J.J. van Dam, D. Wang, J. Nieplocha,
                        E. Apra, T.L. Windus, W.A. de Jong
                 "NWChem: a comprehensive and scalable open-source
                  solution for large scale molecular simulations"
                      Comput. Phys. Commun. 181, 1477 (2010)
                           doi:10.1016/j.cpc.2010.04.018

                                      AUTHORS
                                      -------
          E. Apra, E. J. Bylaska, W. A. de Jong, N. Govind, K. Kowalski,
       T. P. Straatsma, M. Valiev, H. J. J. van Dam, D. Wang, T. L. Windus,
        J. Hammond, J. Autschbach, K. Bhaskaran-Nair, J. Brabec, K. Lopata,
       S. A. Fischer, S. Krishnamoorthy, W. Ma, M. Klemm, O. Villa, Y. Chen,
    V. Anisimov, F. Aquino, S. Hirata, M. T. Hackler, T. Risthaus, M. Malagoli,
       A. Marenich, A. Otero-de-la-Roza, J. Mullin, P. Nichols, R. Peverati,
     J. Pittner, Y. Zhao, P.-D. Fan, A. Fonari, M. Williamson, R. J. Harrison,
       J. R. Rehr, M. Dupuis, D. Silverstein, D. M. A. Smith, J. Nieplocha,
        V. Tipparaju, M. Krishnan, B. E. Van Kuiken, A. Vazquez-Mayagoitia,
        L. Jensen, M. Swart, Q. Wu, T. Van Voorhis, A. A. Auer, M. Nooijen,
      L. D. Crosby, E. Brown, G. Cisneros, G. I. Fann, H. Fruchtl, J. Garza,
        K. Hirao, R. A. Kendall, J. A. Nichols, K. Tsemekhman, K. Wolinski,
     J. Anchell, D. E. Bernholdt, P. Borowski, T. Clark, D. Clerc, H. Dachsel,
   M. J. O. Deegan, K. Dyall, D. Elwood, E. Glendening, M. Gutowski, A. C. Hess,
         J. Jaffe, B. G. Johnson, J. Ju, R. Kobayashi, R. Kutteh, Z. Lin,
   R. Littlefield, X. Long, B. Meng, T. Nakajima, S. Niu, L. Pollack, M. Rosing,
   K. Glaesemann, G. Sandrone, M. Stave, H. Taylor, G. Thomas, J. H. van Lenthe,
                               A. T. Wong, Z. Zhang.

 Total times  cpu:        1.4s     wall:        2.4s
