[1537795801.810573] [r8n4:7034 :0]         sys.c:744  MXM  WARN  Conflicting CPU frequencies detected, using: 1696.70
[1537795801.814195] [r8n4:7037 :0]         sys.c:744  MXM  WARN  Conflicting CPU frequencies detected, using: 1696.70
[1537795801.814685] [r8n4:7042 :0]         sys.c:744  MXM  WARN  Conflicting CPU frequencies detected, using: 1696.70
[1537795801.814999] [r8n4:7035 :0]         sys.c:744  MXM  WARN  Conflicting CPU frequencies detected, using: 1696.70
[1537795801.815617] [r8n4:7038 :0]         sys.c:744  MXM  WARN  Conflicting CPU frequencies detected, using: 1696.70
[1537795801.815703] [r8n4:7036 :0]         sys.c:744  MXM  WARN  Conflicting CPU frequencies detected, using: 1696.70
[1537795801.815782] [r8n4:7039 :0]         sys.c:744  MXM  WARN  Conflicting CPU frequencies detected, using: 1696.70
[1537795801.815857] [r8n4:7040 :0]         sys.c:744  MXM  WARN  Conflicting CPU frequencies detected, using: 1696.70
[1537795801.822311] [r8n4:7046 :0]         sys.c:744  MXM  WARN  Conflicting CPU frequencies detected, using: 1795.62
[1537795801.822722] [r8n4:7044 :0]         sys.c:744  MXM  WARN  Conflicting CPU frequencies detected, using: 1795.62
[1537795801.843027] [r8n4:7054 :0]         sys.c:744  MXM  WARN  Conflicting CPU frequencies detected, using: 1998.66
[1537795801.843239] [r8n4:7050 :0]         sys.c:744  MXM  WARN  Conflicting CPU frequencies detected, using: 1998.66
[1537795801.844464] [r8n4:7048 :0]         sys.c:744  MXM  WARN  Conflicting CPU frequencies detected, using: 1998.66
[1537795801.844910] [r8n4:7058 :0]         sys.c:744  MXM  WARN  Conflicting CPU frequencies detected, using: 1998.66
[1537795801.845140] [r8n4:7052 :0]         sys.c:744  MXM  WARN  Conflicting CPU frequencies detected, using: 1998.66
[1537795801.847260] [r8n4:7056 :0]         sys.c:744  MXM  WARN  Conflicting CPU frequencies detected, using: 1998.66
 argument  1 = /storage/home/bikashp/nwchem_run/rabeet/ip13g2/nwip13g2/P.nw
                                         
                                         


              Northwest Computational Chemistry Package (NWChem) 6.6
              ------------------------------------------------------


                    Environmental Molecular Sciences Laboratory
                       Pacific Northwest National Laboratory
                                Richland, WA 99352

                              Copyright (c) 1994-2015
                       Pacific Northwest National Laboratory
                            Battelle Memorial Institute

             NWChem is an open-source computational chemistry package
                        distributed under the terms of the
                      Educational Community License (ECL) 2.0
             A copy of the license is included with this distribution
                              in the LICENSE.TXT file

                                  ACKNOWLEDGMENT
                                  --------------

            This software and its documentation were developed at the
            EMSL at Pacific Northwest National Laboratory, a multiprogram
            national laboratory, operated for the U.S. Department of Energy
            by Battelle under Contract Number DE-AC05-76RL01830. Support
            for this work was provided by the Department of Energy Office
            of Biological and Environmental Research, Office of Basic
            Energy Sciences, and the Office of Advanced Scientific Computing.


           Job information
           ---------------

    hostname        = r8n4.niserhpc.org
    program         = /home/bikashp/Code/nwchem-6.6_tpssloc/bin/LINUX64/nwchem
    date            = Mon Sep 24 19:00:04 2018

    compiled        = Tue_Sep_18_16:24:59_2018
    source          = /home/bikashp/Code/nwchem-6.6_tpssloc
    nwchem branch   = 6.6
    nwchem revision = 27746
    ga revision     = 10594
    input           = /storage/home/bikashp/nwchem_run/rabeet/ip13g2/nwip13g2/P.nw
    prefix          = P.
    data base       = ./P.db
    status          = startup
    nproc           =       16
    time left       =     -1s



           Memory information
           ------------------

    heap     =   13107196 doubles =    100.0 Mbytes
    stack    =   13107201 doubles =    100.0 Mbytes
    global   =   26214400 doubles =    200.0 Mbytes (distinct from heap & stack)
    total    =   52428797 doubles =    400.0 Mbytes
    verify   = yes
    hardfail = no 


           Directory information
           ---------------------

  0 permanent = .
  0 scratch   = .




                                NWChem Input Module
                                -------------------



 Scaling coordinates for geometry "geometry" by  1.889725989
 (inverse scale =  0.529177249)



                             Geometry "geometry" -> ""
                             -------------------------

 Output coordinates in angstroms (scale by  1.889725989 to convert to a.u.)

  No.       Tag          Charge          X              Y              Z
 ---- ---------------- ---------- -------------- -------------- --------------
    1 P                   15.0000     0.00000000     0.00000000     0.00000000

      Atomic Mass 
      ----------- 

      P                 30.973760


 Effective nuclear repulsion energy (a.u.)       0.0000000000

            Nuclear Dipole moment (a.u.) 
            ----------------------------
        X                 Y               Z
 ---------------- ---------------- ----------------
     0.0000000000     0.0000000000     0.0000000000


            XYZ format geometry
            -------------------
     1
 geometry
 P                     0.00000000     0.00000000     0.00000000



 Summary of "ao basis" -> "" (cartesian)
 ------------------------------------------------------------------------------
       Tag                 Description            Shells   Functions and Types
 ---------------- ------------------------------  ------  ---------------------
 *                     6-311++G(3df,3pd)              on all atoms 



                                 NWChem DFT Module
                                 -----------------


                      Basis "ao basis" -> "ao basis" (cartesian)
                      -----
  P (Phosphorous)
  ---------------
            Exponent  Coefficients 
       -------------- ---------------------------------------------------------
  1 S  7.74924000E+04  0.000781
  1 S  1.16058000E+04  0.006068
  1 S  2.64596000E+03  0.031160
  1 S  7.54976000E+02  0.123431
  1 S  2.48755000E+02  0.378209
  1 S  9.11565000E+01  0.563262

  2 S  9.11565000E+01  0.160255
  2 S  3.62257000E+01  0.627647
  2 S  1.52113000E+01  0.263849

  3 S  4.79417000E+00  1.000000

  4 S  1.80793000E+00  1.000000

  5 S  3.56816000E-01  1.000000

  6 S  1.14783000E-01  1.000000

  7 P  3.84843000E+02  0.009206
  7 P  9.05521000E+01  0.069874
  7 P  2.91339000E+01  0.292470
  7 P  1.08862000E+01  0.728103

  8 P  4.35259000E+00  0.628349
  8 P  1.77706000E+00  0.428044

  9 P  6.97005000E-01  1.000000

 10 P  2.53532000E-01  1.000000

 11 P  6.84930000E-02  1.000000

 12 S  3.48000000E-02  1.000000

 13 P  3.48000000E-02  1.000000

 14 D  2.20000000E+00  1.000000

 15 D  5.50000000E-01  1.000000

 16 D  1.37500000E-01  1.000000

 17 F  4.50000000E-01  1.000000



 Summary of "ao basis" -> "ao basis" (cartesian)
 ------------------------------------------------------------------------------
       Tag                 Description            Shells   Functions and Types
 ---------------- ------------------------------  ------  ---------------------
 P                     6-311++G(3df,3pd)            17       53   7s6p3d1f




 Summary of "ao basis" -> "ao basis" (cartesian)
 ------------------------------------------------------------------------------
       Tag                 Description            Shells   Functions and Types
 ---------------- ------------------------------  ------  ---------------------
 P                     6-311++G(3df,3pd)            17       53   7s6p3d1f


  Caching 1-el integrals 

            General Information
            -------------------
          SCF calculation type: DFT
          Wavefunction type:  spin polarized.
          No. of atoms     :     1
          No. of electrons :    15
           Alpha electrons :     9
            Beta electrons :     6
          Charge           :     0
          Spin multiplicity:     4
          Use of symmetry is: off; symmetry adaption is: off
          Maximum number of iterations: ***
          AO basis - number of functions:    53
                     number of shells:    17
          Convergence on energy requested: 1.00D-06
          Convergence on density requested: 1.00D-05
          Convergence on gradient requested: 5.00D-04

              XC Information
              --------------
                  TPSS metaGGA Exchange Functional  1.000          
             TPSS03 metaGGA Correlation Functional  1.000          

             Grid Information
             ----------------
          Grid used for XC integration:  medium    
          Radial quadrature: Mura-Knowles        
          Angular quadrature: Lebedev. 
          Tag              B.-S. Rad. Rad. Pts. Rad. Cut. Ang. Pts.
          ---              ---------- --------- --------- ---------
          P                   1.00       88           9.0       590
          Grid pruning is: on 
          Number of quadrature shells:    88
          Spatial weights used:  Erf1

          Convergence Information
          -----------------------
          Convergence aids based upon iterative change in 
          total energy or number of iterations. 
          Levelshifting, if invoked, occurs when the 
          HOMO/LUMO gap drops below (HL_TOL): 1.00D-02
          DIIS, if invoked, will attempt to extrapolate 
          using up to (NFOCK): 10 stored Fock matrices.

                    Damping( 0%)  Levelshifting(0.5)       DIIS
                  --------------- ------------------- ---------------
          dE  on:    start            ASAP                start   
          dE off:    2 iters        *** iters           *** iters 


      Screening Tolerance Information
      -------------------------------
          Density screening/tol_rho: 1.00D-10
          AO Gaussian exp screening on grid/accAOfunc:  14
          CD Gaussian exp screening on grid/accCDfunc:  20
          XC Gaussian exp screening on grid/accXCfunc:  20
          Schwarz screening/accCoul: 1.00D-08


      Superposition of Atomic Density Guess
      -------------------------------------

 Sum of atomic energies:        -340.65047561

      Non-variational initial energy
      ------------------------------

 Total energy =    -340.362186
 1-e energy   =    -471.309908
 2-e energy   =     130.947721
 HOMO         =      -0.168937
 LUMO         =      -0.168937

   Time after variat. SCF:      0.2
   Time prior to 1st pass:      0.2

 #quartets = 1.177D+04 #integrals = 1.644D+05 #direct =  0.0% #cached =100.0%


 Integral file          = ./P.aoints.00
 Record size in doubles =    65536    No. of integs per rec  =    43688
 Max. records in memory =        4    Max. records in file   = 11667403
 No. of bits per label  =        8    No. of bits per value  =       64


File balance: exchanges=     0  moved=     0  time=   0.0


 Grid_pts file          = ./P.gridpts.00
 Record size in doubles =  12289        No. of grid_pts per rec  =   3070
 Max. records in memory =      3        Max. recs in file   =  62221091


           Memory utilization after 1st SCF pass: 
           Heap Space remaining (MW):       12.81            12805276
          Stack Space remaining (MW):       13.11            13106660

   convergence    iter        energy       DeltaE   RMS-Dens  Diis-err    time
 ---------------- ----- ----------------- --------- --------- ---------  ------
 d= 0,ls=0.0,diis     1   -341.2985807224 -3.41D+02  2.37D-02  1.63D-01     0.6
                                                     1.66D-02  1.36D-01
 d= 0,ls=0.0,diis     2   -341.3191672482 -2.06D-02  6.40D-03  3.47D-03     0.6
                                                     5.74D-03  2.00D-03
 d= 0,ls=0.0,diis     3   -341.3137882434  5.38D-03  1.35D-03  1.83D-03     0.7
                                                     2.41D-03  1.65D-03
 d= 0,ls=0.0,diis     4   -341.3160905247 -2.30D-03  2.45D-04  3.70D-05     0.8
                                                     3.02D-04  2.57D-05
 d= 0,ls=0.0,diis     5   -341.3161368042 -4.63D-05  8.18D-05  2.29D-06     0.9
                                                     8.80D-05  1.37D-06
  Resetting Diis
 d= 0,ls=0.0,diis     6   -341.3161700455 -3.32D-05  3.92D-06  1.96D-09     1.0
                                                     7.63D-06  1.49D-09
 d= 0,ls=0.0,diis     7   -341.3161691191  9.26D-07  4.44D-07  1.01D-11     1.1
                                                     2.40D-07  2.48D-12


         Total DFT energy =     -341.316169119082
      One electron energy =     -470.989479539325
           Coulomb energy =      152.859061090761
          Exchange energy =      -22.617101462170
       Correlation energy =       -0.568649208348
 Nuclear repulsion energy =        0.000000000000

 Numeric. integr. density =       14.999999999754

     Total iterative time =      0.9s



                    DFT Final Alpha Molecular Orbital Analysis
                    ------------------------------------------

 Vector    1  Occ=1.000000D+00  E=-7.670469D+01
              MO Center=  5.1D-17, -7.0D-18, -5.5D-17, r^2= 4.1D-03
   Bfn.  Coefficient  Atom+Function         Bfn.  Coefficient  Atom+Function  
  ----- ------------  ---------------      ----- ------------  ---------------
     2      0.645161  1 P  s                  1      0.419460  1 P  s          

 Vector    2  Occ=1.000000D+00  E=-6.489296D+00
              MO Center= -8.5D-16, -1.6D-15,  5.9D-16, r^2= 9.1D-02
   Bfn.  Coefficient  Atom+Function         Bfn.  Coefficient  Atom+Function  
  ----- ------------  ---------------      ----- ------------  ---------------
     4      0.608665  1 P  s                  3      0.492560  1 P  s          
     2     -0.310616  1 P  s          

 Vector    3  Occ=1.000000D+00  E=-4.671772D+00
              MO Center=  1.1D-15,  1.5D-17, -1.3D-17, r^2= 8.3D-02
   Bfn.  Coefficient  Atom+Function         Bfn.  Coefficient  Atom+Function  
  ----- ------------  ---------------      ----- ------------  ---------------
    10      0.608953  1 P  px                 7      0.363444  1 P  px         
    11      0.276783  1 P  py                 8      0.165193  1 P  py         

 Vector    4  Occ=1.000000D+00  E=-4.671772D+00
              MO Center= -5.9D-16,  9.2D-16, -3.6D-16, r^2= 8.3D-02
   Bfn.  Coefficient  Atom+Function         Bfn.  Coefficient  Atom+Function  
  ----- ------------  ---------------      ----- ------------  ---------------
    11      0.573652  1 P  py                 8      0.342375  1 P  py         
    12     -0.312062  1 P  pz                10     -0.194332  1 P  px         
     9     -0.186249  1 P  pz         

 Vector    5  Occ=1.000000D+00  E=-4.671772D+00
              MO Center= -8.2D-18,  1.9D-17,  2.5D-16, r^2= 8.3D-02
   Bfn.  Coefficient  Atom+Function         Bfn.  Coefficient  Atom+Function  
  ----- ------------  ---------------      ----- ------------  ---------------
    12      0.591649  1 P  pz                 9      0.353116  1 P  pz         
    11      0.241948  1 P  py                10     -0.235872  1 P  px         

 Vector    6  Occ=1.000000D+00  E=-5.958890D-01
              MO Center=  8.8D-15, -4.9D-15,  4.4D-15, r^2= 1.2D+00
   Bfn.  Coefficient  Atom+Function         Bfn.  Coefficient  Atom+Function  
  ----- ------------  ---------------      ----- ------------  ---------------
     6      0.904857  1 P  s                  5      0.648452  1 P  s          
     4     -0.383586  1 P  s                  3     -0.229930  1 P  s          

 Vector    7  Occ=1.000000D+00  E=-2.808657D-01
              MO Center=  7.4D-15, -9.2D-15,  6.1D-15, r^2= 1.8D+00
   Bfn.  Coefficient  Atom+Function         Bfn.  Coefficient  Atom+Function  
  ----- ------------  ---------------      ----- ------------  ---------------
    18      0.869819  1 P  pz                17      0.571030  1 P  py         
    16     -0.309622  1 P  px                21      0.230372  1 P  pz         
    46     -0.169352  1 P  fxxz              51     -0.169352  1 P  fyyz       
    53     -0.169352  1 P  fzzz              20      0.151237  1 P  py         

 Vector    8  Occ=1.000000D+00  E=-2.808657D-01
              MO Center=  1.3D-15, -6.5D-15,  5.9D-15, r^2= 1.8D+00
   Bfn.  Coefficient  Atom+Function         Bfn.  Coefficient  Atom+Function  
  ----- ------------  ---------------      ----- ------------  ---------------
    16      0.902893  1 P  px                18      0.520707  1 P  pz         
    17     -0.303602  1 P  py                19      0.239131  1 P  px         
    44     -0.175792  1 P  fxxx              47     -0.175792  1 P  fxyy       
    49     -0.175792  1 P  fxzz              10     -0.154700  1 P  px         

 Vector    9  Occ=1.000000D+00  E=-2.808657D-01
              MO Center= -6.4D-16, -1.4D-14,  6.3D-15, r^2= 1.8D+00
   Bfn.  Coefficient  Atom+Function         Bfn.  Coefficient  Atom+Function  
  ----- ------------  ---------------      ----- ------------  ---------------
    17      0.871939  1 P  py                16      0.517150  1 P  px         
    18     -0.388336  1 P  pz                20      0.230933  1 P  py         
    45     -0.169765  1 P  fxxy              50     -0.169765  1 P  fyyy       
    52     -0.169765  1 P  fyzz       

 Vector   10  Occ=0.000000D+00  E=-7.831618D-03
              MO Center=  5.0D-14,  6.4D-15,  1.4D-14, r^2= 9.2D+00
   Bfn.  Coefficient  Atom+Function         Bfn.  Coefficient  Atom+Function  
  ----- ------------  ---------------      ----- ------------  ---------------
    22      1.542930  1 P  s                  5     -0.394831  1 P  s          
     6     -0.284447  1 P  s                 38     -0.168442  1 P  dxx        
    41     -0.168442  1 P  dyy               43     -0.168442  1 P  dzz        

 Vector   11  Occ=0.000000D+00  E= 3.642088D-02
              MO Center=  3.6D-15, -1.9D-14,  3.3D-15, r^2= 1.4D+01
   Bfn.  Coefficient  Atom+Function         Bfn.  Coefficient  Atom+Function  
  ----- ------------  ---------------      ----- ------------  ---------------
    24      1.589531  1 P  py                20     -0.813630  1 P  py         
    14     -0.188162  1 P  py         

 Vector   12  Occ=0.000000D+00  E= 3.642088D-02
              MO Center= -5.7D-14, -4.7D-15,  4.4D-15, r^2= 1.4D+01
   Bfn.  Coefficient  Atom+Function         Bfn.  Coefficient  Atom+Function  
  ----- ------------  ---------------      ----- ------------  ---------------
    23      1.580907  1 P  px                19     -0.809215  1 P  px         
    25      0.201634  1 P  pz                13     -0.187141  1 P  px         

 Vector   13  Occ=0.000000D+00  E= 3.642088D-02
              MO Center=  3.3D-15,  6.1D-15, -2.3D-14, r^2= 1.4D+01
   Bfn.  Coefficient  Atom+Function         Bfn.  Coefficient  Atom+Function  
  ----- ------------  ---------------      ----- ------------  ---------------
    25      1.577449  1 P  pz                21     -0.807445  1 P  pz         
    23     -0.198663  1 P  px                15     -0.186732  1 P  pz         

 Vector   14  Occ=0.000000D+00  E= 9.114989D-02
              MO Center=  2.0D-15,  1.6D-16,  2.2D-15, r^2= 3.0D+00
   Bfn.  Coefficient  Atom+Function         Bfn.  Coefficient  Atom+Function  
  ----- ------------  ---------------      ----- ------------  ---------------
    43      0.749562  1 P  dzz               41     -0.677756  1 P  dyy        
    40     -0.357366  1 P  dxz               39     -0.283250  1 P  dxy        
    42      0.233141  1 P  dyz               37      0.174649  1 P  dzz        
    35     -0.157918  1 P  dyy        

 Vector   15  Occ=0.000000D+00  E= 9.114989D-02
              MO Center= -2.0D-15, -8.2D-16,  1.8D-15, r^2= 3.0D+00
   Bfn.  Coefficient  Atom+Function         Bfn.  Coefficient  Atom+Function  
  ----- ------------  ---------------      ----- ------------  ---------------
    39      0.893754  1 P  dxy               38     -0.696714  1 P  dxx        
    43      0.408189  1 P  dzz               41      0.288525  1 P  dyy        
    33      0.208246  1 P  dxy               42     -0.206526  1 P  dyz        
    32     -0.162335  1 P  dxx        

 Vector   16  Occ=0.000000D+00  E= 9.114989D-02
              MO Center=  7.0D-16, -1.7D-16, -4.5D-16, r^2= 3.0D+00
   Bfn.  Coefficient  Atom+Function         Bfn.  Coefficient  Atom+Function  
  ----- ------------  ---------------      ----- ------------  ---------------
    42      1.327352  1 P  dyz               40      0.708339  1 P  dxz        
    36      0.309275  1 P  dyz               34      0.165044  1 P  dxz        

 Vector   17  Occ=0.000000D+00  E= 9.114989D-02
              MO Center= -4.7D-15,  2.2D-15,  7.9D-16, r^2= 3.0D+00
   Bfn.  Coefficient  Atom+Function         Bfn.  Coefficient  Atom+Function  
  ----- ------------  ---------------      ----- ------------  ---------------
    39      1.053980  1 P  dxy               40      0.515251  1 P  dxz        
    38      0.498341  1 P  dxx               41     -0.463776  1 P  dyy        
    33      0.245579  1 P  dxy        

 Vector   18  Occ=0.000000D+00  E= 9.114989D-02
              MO Center= -4.7D-15,  1.9D-15, -2.8D-15, r^2= 3.0D+00
   Bfn.  Coefficient  Atom+Function         Bfn.  Coefficient  Atom+Function  
  ----- ------------  ---------------      ----- ------------  ---------------
    40      1.190404  1 P  dxz               42     -0.668387  1 P  dyz        
    39     -0.569784  1 P  dxy               34      0.277366  1 P  dxz        
    43      0.202556  1 P  dzz               36     -0.155735  1 P  dyz        

 Vector   19  Occ=0.000000D+00  E= 2.375782D-01
              MO Center=  8.3D-13, -2.4D-13,  1.6D-13, r^2= 8.0D+00
   Bfn.  Coefficient  Atom+Function         Bfn.  Coefficient  Atom+Function  
  ----- ------------  ---------------      ----- ------------  ---------------
     6      2.085641  1 P  s                 22      1.856698  1 P  s          
    38     -1.596777  1 P  dxx               41     -1.596777  1 P  dyy        
    43     -1.596777  1 P  dzz                4     -0.313228  1 P  s          
    32     -0.281609  1 P  dxx               35     -0.281609  1 P  dyy        
    37     -0.281609  1 P  dzz                3     -0.179183  1 P  s          

 Vector   20  Occ=0.000000D+00  E= 2.430755D-01
              MO Center= -6.5D-13,  4.9D-13,  1.2D-14, r^2= 9.7D+00
   Bfn.  Coefficient  Atom+Function         Bfn.  Coefficient  Atom+Function  
  ----- ------------  ---------------      ----- ------------  ---------------
    19     -2.382965  1 P  px                16      2.171452  1 P  px         
    20      1.711711  1 P  py                17     -1.559779  1 P  py         
    23      1.505098  1 P  px                24     -1.081129  1 P  py         
    44     -0.619269  1 P  fxxx              47     -0.619269  1 P  fxyy       
    49     -0.619269  1 P  fxzz              45      0.444828  1 P  fxxy       

 Vector   21  Occ=0.000000D+00  E= 2.430755D-01
              MO Center= -1.7D-13, -2.2D-13, -1.3D-14, r^2= 9.7D+00
   Bfn.  Coefficient  Atom+Function         Bfn.  Coefficient  Atom+Function  
  ----- ------------  ---------------      ----- ------------  ---------------
    20     -2.383091  1 P  py                17      2.171567  1 P  py         
    19     -1.713116  1 P  px                16      1.561059  1 P  px         
    24      1.505178  1 P  py                23      1.082017  1 P  px         
    45     -0.619302  1 P  fxxy              50     -0.619302  1 P  fyyy       
    52     -0.619302  1 P  fyzz              44     -0.445193  1 P  fxxx       

 Vector   22  Occ=0.000000D+00  E= 2.430755D-01
              MO Center= -6.7D-15, -8.8D-16, -1.8D-13, r^2= 9.7D+00
   Bfn.  Coefficient  Atom+Function         Bfn.  Coefficient  Atom+Function  
  ----- ------------  ---------------      ----- ------------  ---------------
    21     -2.933776  1 P  pz                18      2.673373  1 P  pz         
    25      1.852994  1 P  pz                46     -0.762410  1 P  fxxz       
    51     -0.762410  1 P  fyyz              53     -0.762410  1 P  fzzz       
    15     -0.314742  1 P  pz         

 Vector   23  Occ=0.000000D+00  E= 7.658179D-01
              MO Center= -3.1D-15, -4.3D-15, -4.7D-15, r^2= 1.7D+00
   Bfn.  Coefficient  Atom+Function         Bfn.  Coefficient  Atom+Function  
  ----- ------------  ---------------      ----- ------------  ---------------
    37      0.848146  1 P  dzz               36      0.712283  1 P  dyz        
    43     -0.579666  1 P  dzz               33     -0.542531  1 P  dxy        
    35     -0.538399  1 P  dyy               42     -0.486811  1 P  dyz        
    39      0.370793  1 P  dxy               41      0.367969  1 P  dyy        
    32     -0.309746  1 P  dxx               38      0.211697  1 P  dxx        


                     DFT Final Beta Molecular Orbital Analysis
                     -----------------------------------------

 Vector    1  Occ=1.000000D+00  E=-7.669202D+01
              MO Center=  2.4D-17,  2.6D-17, -1.2D-17, r^2= 4.1D-03
   Bfn.  Coefficient  Atom+Function         Bfn.  Coefficient  Atom+Function  
  ----- ------------  ---------------      ----- ------------  ---------------
     2      0.645193  1 P  s                  1      0.419500  1 P  s          

 Vector    2  Occ=1.000000D+00  E=-6.478747D+00
              MO Center=  2.0D-15,  1.0D-15,  7.2D-16, r^2= 9.1D-02
   Bfn.  Coefficient  Atom+Function         Bfn.  Coefficient  Atom+Function  
  ----- ------------  ---------------      ----- ------------  ---------------
     4      0.614127  1 P  s                  3      0.490279  1 P  s          
     2     -0.310313  1 P  s          

 Vector    3  Occ=1.000000D+00  E=-4.656385D+00
              MO Center= -1.3D-16, -9.2D-16,  9.5D-16, r^2= 8.3D-02
   Bfn.  Coefficient  Atom+Function         Bfn.  Coefficient  Atom+Function  
  ----- ------------  ---------------      ----- ------------  ---------------
    11      0.493261  1 P  py                10      0.386641  1 P  px         
     8      0.293103  1 P  py                12     -0.271669  1 P  pz         
     7      0.229748  1 P  px                 9     -0.161430  1 P  pz         

 Vector    4  Occ=1.000000D+00  E=-4.656385D+00
              MO Center= -1.2D-16,  1.3D-16, -1.9D-15, r^2= 8.3D-02
   Bfn.  Coefficient  Atom+Function         Bfn.  Coefficient  Atom+Function  
  ----- ------------  ---------------      ----- ------------  ---------------
    12      0.614998  1 P  pz                 9      0.365441  1 P  pz         
    10      0.268017  1 P  px                 7      0.159260  1 P  px         

 Vector    5  Occ=1.000000D+00  E=-4.656385D+00
              MO Center= -1.6D-16,  7.7D-16,  3.7D-16, r^2= 8.3D-02
   Bfn.  Coefficient  Atom+Function         Bfn.  Coefficient  Atom+Function  
  ----- ------------  ---------------      ----- ------------  ---------------
    10      0.495255  1 P  px                11     -0.454697  1 P  py         
     7      0.294288  1 P  px                 8     -0.270188  1 P  py         

 Vector    6  Occ=1.000000D+00  E=-5.046520D-01
              MO Center=  1.2D-14, -8.7D-16,  7.8D-15, r^2= 1.3D+00
   Bfn.  Coefficient  Atom+Function         Bfn.  Coefficient  Atom+Function  
  ----- ------------  ---------------      ----- ------------  ---------------
     6      1.111853  1 P  s                  5      0.541451  1 P  s          
     4     -0.404164  1 P  s                  3     -0.206601  1 P  s          

 Vector    7  Occ=0.000000D+00  E=-2.169963D-01
              MO Center=  1.2D-14, -9.3D-16, -2.3D-15, r^2= 2.1D+00
   Bfn.  Coefficient  Atom+Function         Bfn.  Coefficient  Atom+Function  
  ----- ------------  ---------------      ----- ------------  ---------------
    18      1.237589  1 P  pz                16     -0.534667  1 P  px         
    46     -0.324374  1 P  fxxz              51     -0.324374  1 P  fyyz       
    53     -0.324374  1 P  fzzz              21      0.288196  1 P  pz         

 Vector    8  Occ=0.000000D+00  E=-2.169963D-01
              MO Center=  5.7D-15, -2.1D-15, -3.8D-16, r^2= 2.1D+00
   Bfn.  Coefficient  Atom+Function         Bfn.  Coefficient  Atom+Function  
  ----- ------------  ---------------      ----- ------------  ---------------
    16      1.102248  1 P  px                17      0.586525  1 P  py         
    18      0.515015  1 P  pz                44     -0.288901  1 P  fxxx       
    47     -0.288901  1 P  fxyy              49     -0.288901  1 P  fxzz       
    19      0.256679  1 P  px                45     -0.153729  1 P  fxxy       
    50     -0.153729  1 P  fyyy              52     -0.153729  1 P  fyzz       

 Vector    9  Occ=0.000000D+00  E=-2.169963D-01
              MO Center=  9.4D-15,  1.5D-14,  8.8D-16, r^2= 2.1D+00
   Bfn.  Coefficient  Atom+Function         Bfn.  Coefficient  Atom+Function  
  ----- ------------  ---------------      ----- ------------  ---------------
    17      1.213871  1 P  py                16     -0.568668  1 P  px         
    45     -0.318157  1 P  fxxy              50     -0.318157  1 P  fyyy       
    52     -0.318157  1 P  fyzz              20      0.282673  1 P  py         
    18     -0.165339  1 P  pz         

 Vector   10  Occ=0.000000D+00  E= 2.242391D-02
              MO Center=  6.8D-15, -1.0D-14,  3.4D-14, r^2= 9.2D+00
   Bfn.  Coefficient  Atom+Function         Bfn.  Coefficient  Atom+Function  
  ----- ------------  ---------------      ----- ------------  ---------------
    22      1.559534  1 P  s                  5     -0.378249  1 P  s          
     6     -0.268241  1 P  s                 38     -0.188110  1 P  dxx        
    41     -0.188110  1 P  dyy               43     -0.188110  1 P  dzz        
     4      0.157459  1 P  s          

 Vector   11  Occ=0.000000D+00  E= 6.280884D-02
              MO Center=  9.5D-16, -4.2D-15, -8.6D-16, r^2= 1.4D+01
   Bfn.  Coefficient  Atom+Function         Bfn.  Coefficient  Atom+Function  
  ----- ------------  ---------------      ----- ------------  ---------------
    24      1.723157  1 P  py                20     -1.038733  1 P  py         
    17      0.270059  1 P  py                14     -0.202515  1 P  py         
    45     -0.178181  1 P  fxxy              50     -0.178181  1 P  fyyy       
    52     -0.178181  1 P  fyzz       

 Vector   12  Occ=0.000000D+00  E= 6.280884D-02
              MO Center= -8.8D-15,  6.5D-16, -5.2D-15, r^2= 1.4D+01
   Bfn.  Coefficient  Atom+Function         Bfn.  Coefficient  Atom+Function  
  ----- ------------  ---------------      ----- ------------  ---------------
    23      1.722999  1 P  px                19     -1.038638  1 P  px         
    16      0.270034  1 P  px                13     -0.202496  1 P  px         
    44     -0.178165  1 P  fxxx              47     -0.178165  1 P  fxyy       
    49     -0.178165  1 P  fxzz       

 Vector   13  Occ=0.000000D+00  E= 6.280884D-02
              MO Center= -7.7D-15,  2.9D-15, -2.9D-14, r^2= 1.4D+01
   Bfn.  Coefficient  Atom+Function         Bfn.  Coefficient  Atom+Function  
  ----- ------------  ---------------      ----- ------------  ---------------
    25      1.725515  1 P  pz                21     -1.040154  1 P  pz         
    18      0.270428  1 P  pz                15     -0.202792  1 P  pz         
    46     -0.178425  1 P  fxxz              51     -0.178425  1 P  fyyz       
    53     -0.178425  1 P  fzzz       

 Vector   14  Occ=0.000000D+00  E= 1.149532D-01
              MO Center=  1.1D-15, -8.6D-16, -1.7D-15, r^2= 3.2D+00
   Bfn.  Coefficient  Atom+Function         Bfn.  Coefficient  Atom+Function  
  ----- ------------  ---------------      ----- ------------  ---------------
    43      0.889355  1 P  dzz               41     -0.541730  1 P  dyy        
    38     -0.347625  1 P  dxx               39     -0.258987  1 P  dxy        
    40      0.248136  1 P  dxz        

 Vector   15  Occ=0.000000D+00  E= 1.149532D-01
              MO Center= -9.9D-15,  5.4D-15, -2.9D-15, r^2= 3.2D+00
   Bfn.  Coefficient  Atom+Function         Bfn.  Coefficient  Atom+Function  
  ----- ------------  ---------------      ----- ------------  ---------------
    38      0.816161  1 P  dxx               41     -0.697124  1 P  dyy        
    42      0.313619  1 P  dyz               40      0.311541  1 P  dxz        

 Vector   16  Occ=0.000000D+00  E= 1.149532D-01
              MO Center=  1.5D-15,  1.4D-15, -3.7D-15, r^2= 3.2D+00
   Bfn.  Coefficient  Atom+Function         Bfn.  Coefficient  Atom+Function  
  ----- ------------  ---------------      ----- ------------  ---------------
    42      1.372201  1 P  dyz               40     -0.738439  1 P  dxz        
    39      0.219378  1 P  dxy               36      0.204761  1 P  dyz        

 Vector   17  Occ=0.000000D+00  E= 1.149532D-01
              MO Center=  9.1D-17,  1.5D-15, -2.2D-15, r^2= 3.2D+00
   Bfn.  Coefficient  Atom+Function         Bfn.  Coefficient  Atom+Function  
  ----- ------------  ---------------      ----- ------------  ---------------
    40      1.117716  1 P  dxz               39     -0.762747  1 P  dxy        
    42      0.732043  1 P  dyz               41      0.242227  1 P  dyy        
    34      0.166786  1 P  dxz        

 Vector   18  Occ=0.000000D+00  E= 1.149532D-01
              MO Center= -7.0D-15,  2.0D-15,  1.3D-15, r^2= 3.2D+00
   Bfn.  Coefficient  Atom+Function         Bfn.  Coefficient  Atom+Function  
  ----- ------------  ---------------      ----- ------------  ---------------
    39      1.353135  1 P  dxy               40      0.768407  1 P  dxz        
    33      0.201916  1 P  dxy               38     -0.182599  1 P  dxx        

 Vector   19  Occ=0.000000D+00  E= 2.588051D-01
              MO Center=  1.9D-14,  7.0D-14, -1.5D-13, r^2= 7.9D+00
   Bfn.  Coefficient  Atom+Function         Bfn.  Coefficient  Atom+Function  
  ----- ------------  ---------------      ----- ------------  ---------------
     6      2.064094  1 P  s                 22      1.840093  1 P  s          
    38     -1.580451  1 P  dxx               41     -1.580451  1 P  dyy        
    43     -1.580451  1 P  dzz                4     -0.332399  1 P  s          
    32     -0.245673  1 P  dxx               35     -0.245673  1 P  dyy        
    37     -0.245673  1 P  dzz                3     -0.173335  1 P  s          

 Vector   20  Occ=0.000000D+00  E= 2.775627D-01
              MO Center= -1.4D-14, -7.1D-14,  2.7D-15, r^2= 8.9D+00
   Bfn.  Coefficient  Atom+Function         Bfn.  Coefficient  Atom+Function  
  ----- ------------  ---------------      ----- ------------  ---------------
    17      2.835094  1 P  py                20     -2.820116  1 P  py         
    24      1.704942  1 P  py                45     -0.817928  1 P  fxxy       
    50     -0.817928  1 P  fyyy              52     -0.817928  1 P  fyzz       
    16      0.649168  1 P  px                19     -0.645739  1 P  px         
    23      0.390391  1 P  px                14     -0.352402  1 P  py         

 Vector   21  Occ=0.000000D+00  E= 2.775627D-01
              MO Center= -9.4D-15,  1.2D-15,  5.1D-15, r^2= 8.9D+00
   Bfn.  Coefficient  Atom+Function         Bfn.  Coefficient  Atom+Function  
  ----- ------------  ---------------      ----- ------------  ---------------
    16      2.836294  1 P  px                19     -2.821310  1 P  px         
    23      1.705664  1 P  px                44     -0.818274  1 P  fxxx       
    47     -0.818274  1 P  fxyy              49     -0.818274  1 P  fxzz       
    17     -0.648522  1 P  py                20      0.645096  1 P  py         
    24     -0.390002  1 P  py                13     -0.352551  1 P  px         

 Vector   22  Occ=0.000000D+00  E= 2.775627D-01
              MO Center=  3.8D-15, -5.9D-15,  1.5D-13, r^2= 8.9D+00
   Bfn.  Coefficient  Atom+Function         Bfn.  Coefficient  Atom+Function  
  ----- ------------  ---------------      ----- ------------  ---------------
    18      2.908297  1 P  pz                21     -2.892933  1 P  pz         
    25      1.748965  1 P  pz                46     -0.839047  1 P  fxxz       
    51     -0.839047  1 P  fyyz              53     -0.839047  1 P  fzzz       
    15     -0.361501  1 P  pz         

 Vector   23  Occ=0.000000D+00  E= 8.482401D-01
              MO Center=  8.4D-15,  4.3D-14, -3.5D-14, r^2= 1.5D+00
   Bfn.  Coefficient  Atom+Function         Bfn.  Coefficient  Atom+Function  
  ----- ------------  ---------------      ----- ------------  ---------------
    36      0.972754  1 P  dyz               33      0.906636  1 P  dxy        
    37     -0.643404  1 P  dzz               42     -0.607021  1 P  dyz        
    39     -0.565762  1 P  dxy               43      0.401499  1 P  dzz        
    35      0.367678  1 P  dyy               32      0.275726  1 P  dxx        
    41     -0.229440  1 P  dyy               38     -0.172060  1 P  dxx        


   alpha - beta orbital overlaps 
   ----------------------------- 


   alpha      1      2      3      4      5      6      7      8      9     10
    beta      1      2      3      5      4      6      7      8      8     10
 overlap   1.000  1.000  0.724  0.686  0.713  0.998  0.812  0.737  0.599  0.999


   alpha     11     12     13     14     15     16     17     18     19     20
    beta     11     12     13     14     18     17     15     16     19     21
 overlap   0.991  0.982  0.984  0.858  0.658  0.758  0.712  0.754  0.999  0.917


   alpha     21     22     23     24     25     26     27     28     29     30
    beta     20     22     26     24     23     25     26     28     29     30
 overlap   0.917  0.995  0.639  0.699  0.842  0.613  0.566  0.988  0.988  0.997


   alpha     31     32     33     34     35     36     37     38     39     40
    beta     31     32     33     34     37     36     35     38     39     41
 overlap   1.000  0.600  0.873  0.792  0.729  0.836  0.839  0.813  0.993  0.837


   alpha     41     42     43     44     45     46     47     48     49     50
    beta     40     42     45     46     47     44     43     48     49     50
 overlap   0.832  1.000  0.644  0.690  0.773  0.762  0.763  1.000  0.989  0.981


   alpha     51     52     53
    beta     51     52     53
 overlap   0.971  1.000  1.000

     --------------------------
     Expectation value of S2:  
     --------------------------
      <S2> =      3.7541 (Exact =     3.7500)


 Parallel integral file used      16 records with       0 large values


 Task  times  cpu:        1.0s     wall:        1.5s


                                NWChem Input Module
                                -------------------


 Summary of allocated global arrays
-----------------------------------
  No active global arrays



                         GA Statistics for process    0
                         ------------------------------

       create   destroy   get      put      acc     scatter   gather  read&inc
calls:  255      255      818      751      173        0        0       44     
number of processes/call 1.78e+00 1.46e+00 3.79e+00 0.00e+00 0.00e+00
bytes total:             1.07e+07 4.32e+06 3.89e+06 0.00e+00 0.00e+00 3.52e+02
bytes remote:            1.06e+06 3.89e+05 9.32e+05 0.00e+00 0.00e+00 0.00e+00
Max memory consumed for GA by this process: 1415736 bytes

MA_summarize_allocated_blocks: starting scan ...
MA_summarize_allocated_blocks: scan completed: 0 heap blocks, 0 stack blocks
MA usage statistics:

	allocation statistics:
					      heap	     stack
					      ----	     -----
	current number of blocks	         0	         0
	maximum number of blocks	        23	        51
	current total bytes		         0	         0
	maximum total bytes		   2415384	  22513064
	maximum total K-bytes		      2416	     22514
	maximum total M-bytes		         3	        23


                                     CITATION
                                     --------
                Please cite the following reference when publishing
                           results obtained with NWChem:

                 M. Valiev, E.J. Bylaska, N. Govind, K. Kowalski,
              T.P. Straatsma, H.J.J. van Dam, D. Wang, J. Nieplocha,
                        E. Apra, T.L. Windus, W.A. de Jong
                 "NWChem: a comprehensive and scalable open-source
                  solution for large scale molecular simulations"
                      Comput. Phys. Commun. 181, 1477 (2010)
                           doi:10.1016/j.cpc.2010.04.018

                                      AUTHORS
                                      -------
          E. Apra, E. J. Bylaska, W. A. de Jong, N. Govind, K. Kowalski,
       T. P. Straatsma, M. Valiev, H. J. J. van Dam, D. Wang, T. L. Windus,
        J. Hammond, J. Autschbach, K. Bhaskaran-Nair, J. Brabec, K. Lopata,
       S. A. Fischer, S. Krishnamoorthy, W. Ma, M. Klemm, O. Villa, Y. Chen,
    V. Anisimov, F. Aquino, S. Hirata, M. T. Hackler, T. Risthaus, M. Malagoli,
       A. Marenich, A. Otero-de-la-Roza, J. Mullin, P. Nichols, R. Peverati,
     J. Pittner, Y. Zhao, P.-D. Fan, A. Fonari, M. Williamson, R. J. Harrison,
       J. R. Rehr, M. Dupuis, D. Silverstein, D. M. A. Smith, J. Nieplocha,
        V. Tipparaju, M. Krishnan, B. E. Van Kuiken, A. Vazquez-Mayagoitia,
        L. Jensen, M. Swart, Q. Wu, T. Van Voorhis, A. A. Auer, M. Nooijen,
      L. D. Crosby, E. Brown, G. Cisneros, G. I. Fann, H. Fruchtl, J. Garza,
        K. Hirao, R. A. Kendall, J. A. Nichols, K. Tsemekhman, K. Wolinski,
     J. Anchell, D. E. Bernholdt, P. Borowski, T. Clark, D. Clerc, H. Dachsel,
   M. J. O. Deegan, K. Dyall, D. Elwood, E. Glendening, M. Gutowski, A. C. Hess,
         J. Jaffe, B. G. Johnson, J. Ju, R. Kobayashi, R. Kutteh, Z. Lin,
   R. Littlefield, X. Long, B. Meng, T. Nakajima, S. Niu, L. Pollack, M. Rosing,
   K. Glaesemann, G. Sandrone, M. Stave, H. Taylor, G. Thomas, J. H. van Lenthe,
                               A. T. Wong, Z. Zhang.

 Total times  cpu:        1.0s     wall:        1.6s
