[1537795821.287589] [r8n4:7559 :0]         sys.c:744  MXM  WARN  Conflicting CPU frequencies detected, using: 1698.59
[1537795821.297370] [r8n4:7564 :0]         sys.c:744  MXM  WARN  Conflicting CPU frequencies detected, using: 1798.76
[1537795821.297499] [r8n4:7560 :0]         sys.c:744  MXM  WARN  Conflicting CPU frequencies detected, using: 1798.76
[1537795821.297553] [r8n4:7561 :0]         sys.c:744  MXM  WARN  Conflicting CPU frequencies detected, using: 1798.76
[1537795821.298441] [r8n4:7562 :0]         sys.c:744  MXM  WARN  Conflicting CPU frequencies detected, using: 1798.76
[1537795821.299077] [r8n4:7567 :0]         sys.c:744  MXM  WARN  Conflicting CPU frequencies detected, using: 1798.76
[1537795821.299120] [r8n4:7565 :0]         sys.c:744  MXM  WARN  Conflicting CPU frequencies detected, using: 1798.76
[1537795821.299131] [r8n4:7563 :0]         sys.c:744  MXM  WARN  Conflicting CPU frequencies detected, using: 1798.76
[1537795821.316001] [r8n4:7569 :0]         sys.c:744  MXM  WARN  Conflicting CPU frequencies detected, using: 1997.50
[1537795821.316111] [r8n4:7571 :0]         sys.c:744  MXM  WARN  Conflicting CPU frequencies detected, using: 1997.50
[1537795821.346467] [r8n4:7577 :0]         sys.c:744  MXM  WARN  Conflicting CPU frequencies detected, using: 2298.11
[1537795821.347064] [r8n4:7573 :0]         sys.c:744  MXM  WARN  Conflicting CPU frequencies detected, using: 2298.11
[1537795821.348096] [r8n4:7579 :0]         sys.c:744  MXM  WARN  Conflicting CPU frequencies detected, using: 2298.11
[1537795821.348182] [r8n4:7581 :0]         sys.c:744  MXM  WARN  Conflicting CPU frequencies detected, using: 2298.11
[1537795821.348294] [r8n4:7583 :0]         sys.c:744  MXM  WARN  Conflicting CPU frequencies detected, using: 2298.11
[1537795821.349211] [r8n4:7575 :0]         sys.c:744  MXM  WARN  Conflicting CPU frequencies detected, using: 2298.11
 argument  1 = /storage/home/bikashp/nwchem_run/rabeet/ip13g2/nwip13g2/PH+.nw
                                         
                                         


              Northwest Computational Chemistry Package (NWChem) 6.6
              ------------------------------------------------------


                    Environmental Molecular Sciences Laboratory
                       Pacific Northwest National Laboratory
                                Richland, WA 99352

                              Copyright (c) 1994-2015
                       Pacific Northwest National Laboratory
                            Battelle Memorial Institute

             NWChem is an open-source computational chemistry package
                        distributed under the terms of the
                      Educational Community License (ECL) 2.0
             A copy of the license is included with this distribution
                              in the LICENSE.TXT file

                                  ACKNOWLEDGMENT
                                  --------------

            This software and its documentation were developed at the
            EMSL at Pacific Northwest National Laboratory, a multiprogram
            national laboratory, operated for the U.S. Department of Energy
            by Battelle under Contract Number DE-AC05-76RL01830. Support
            for this work was provided by the Department of Energy Office
            of Biological and Environmental Research, Office of Basic
            Energy Sciences, and the Office of Advanced Scientific Computing.


           Job information
           ---------------

    hostname        = r8n4.niserhpc.org
    program         = /home/bikashp/Code/nwchem-6.6_tpssloc/bin/LINUX64/nwchem
    date            = Mon Sep 24 19:00:24 2018

    compiled        = Tue_Sep_18_16:24:59_2018
    source          = /home/bikashp/Code/nwchem-6.6_tpssloc
    nwchem branch   = 6.6
    nwchem revision = 27746
    ga revision     = 10594
    input           = /storage/home/bikashp/nwchem_run/rabeet/ip13g2/nwip13g2/PH+.nw
    prefix          = PH+.
    data base       = ./PH+.db
    status          = startup
    nproc           =       16
    time left       =     -1s



           Memory information
           ------------------

    heap     =   13107196 doubles =    100.0 Mbytes
    stack    =   13107201 doubles =    100.0 Mbytes
    global   =   26214400 doubles =    200.0 Mbytes (distinct from heap & stack)
    total    =   52428797 doubles =    400.0 Mbytes
    verify   = yes
    hardfail = no 


           Directory information
           ---------------------

  0 permanent = .
  0 scratch   = .




                                NWChem Input Module
                                -------------------



 Scaling coordinates for geometry "geometry" by  1.889725989
 (inverse scale =  0.529177249)


          ------
          auto-z
          ------


                             Geometry "geometry" -> ""
                             -------------------------

 Output coordinates in angstroms (scale by  1.889725989 to convert to a.u.)

  No.       Tag          Charge          X              Y              Z
 ---- ---------------- ---------- -------------- -------------- --------------
    1 P                   15.0000     0.00000000     0.00000000    -0.08891125
    2 H                    1.0000     0.00000000     0.00000000     1.33366875

      Atomic Mass 
      ----------- 

      P                 30.973760
      H                  1.007825


 Effective nuclear repulsion energy (a.u.)       5.5797626390

            Nuclear Dipole moment (a.u.) 
            ----------------------------
        X                 Y               Z
 ---------------- ---------------- ----------------
     0.0000000000     0.0000000000     0.0000000000



                                Z-matrix (autoz)
                                -------- 

 Units are Angstrom for bonds and degrees for angles

      Type          Name      I     J     K     L     M      Value
      ----------- --------  ----- ----- ----- ----- ----- ----------
    1 Stretch                  1     2                       1.42258


            XYZ format geometry
            -------------------
     2
 geometry
 P                     0.00000000     0.00000000    -0.08891125
 H                     0.00000000     0.00000000     1.33366875

 ==============================================================================
                                internuclear distances
 ------------------------------------------------------------------------------
       center one      |      center two      | atomic units |  angstroms
 ------------------------------------------------------------------------------
    2 H                |   1 P                |     2.68829  |     1.42258
 ------------------------------------------------------------------------------
                         number of included internuclear distances:          1
 ==============================================================================





 Summary of "ao basis" -> "" (cartesian)
 ------------------------------------------------------------------------------
       Tag                 Description            Shells   Functions and Types
 ---------------- ------------------------------  ------  ---------------------
 *                     6-311++G(3df,3pd)              on all atoms 



                                 NWChem DFT Module
                                 -----------------


                      Basis "ao basis" -> "ao basis" (cartesian)
                      -----
  P (Phosphorous)
  ---------------
            Exponent  Coefficients 
       -------------- ---------------------------------------------------------
  1 S  7.74924000E+04  0.000781
  1 S  1.16058000E+04  0.006068
  1 S  2.64596000E+03  0.031160
  1 S  7.54976000E+02  0.123431
  1 S  2.48755000E+02  0.378209
  1 S  9.11565000E+01  0.563262

  2 S  9.11565000E+01  0.160255
  2 S  3.62257000E+01  0.627647
  2 S  1.52113000E+01  0.263849

  3 S  4.79417000E+00  1.000000

  4 S  1.80793000E+00  1.000000

  5 S  3.56816000E-01  1.000000

  6 S  1.14783000E-01  1.000000

  7 P  3.84843000E+02  0.009206
  7 P  9.05521000E+01  0.069874
  7 P  2.91339000E+01  0.292470
  7 P  1.08862000E+01  0.728103

  8 P  4.35259000E+00  0.628349
  8 P  1.77706000E+00  0.428044

  9 P  6.97005000E-01  1.000000

 10 P  2.53532000E-01  1.000000

 11 P  6.84930000E-02  1.000000

 12 S  3.48000000E-02  1.000000

 13 P  3.48000000E-02  1.000000

 14 D  2.20000000E+00  1.000000

 15 D  5.50000000E-01  1.000000

 16 D  1.37500000E-01  1.000000

 17 F  4.50000000E-01  1.000000

  H (Hydrogen)
  ------------
            Exponent  Coefficients 
       -------------- ---------------------------------------------------------
  1 S  3.38650000E+01  0.025494
  1 S  5.09479000E+00  0.190373
  1 S  1.15879000E+00  0.852161

  2 S  3.25840000E-01  1.000000

  3 S  1.02741000E-01  1.000000

  4 S  3.60000000E-02  1.000000

  5 P  3.00000000E+00  1.000000

  6 P  7.50000000E-01  1.000000

  7 P  1.87500000E-01  1.000000

  8 D  1.00000000E+00  1.000000



 Summary of "ao basis" -> "ao basis" (cartesian)
 ------------------------------------------------------------------------------
       Tag                 Description            Shells   Functions and Types
 ---------------- ------------------------------  ------  ---------------------
 P                     6-311++G(3df,3pd)            17       53   7s6p3d1f
 H                     6-311++G(3df,3pd)             8       19   4s3p1d




 Summary of "ao basis" -> "ao basis" (cartesian)
 ------------------------------------------------------------------------------
       Tag                 Description            Shells   Functions and Types
 ---------------- ------------------------------  ------  ---------------------
 P                     6-311++G(3df,3pd)            17       53   7s6p3d1f
 H                     6-311++G(3df,3pd)             8       19   4s3p1d


  Caching 1-el integrals 

            General Information
            -------------------
          SCF calculation type: DFT
          Wavefunction type:  spin polarized.
          No. of atoms     :     2
          No. of electrons :    15
           Alpha electrons :     8
            Beta electrons :     7
          Charge           :     1
          Spin multiplicity:     2
          Use of symmetry is: off; symmetry adaption is: off
          Maximum number of iterations: ***
          AO basis - number of functions:    72
                     number of shells:    25
          Convergence on energy requested: 1.00D-06
          Convergence on density requested: 1.00D-05
          Convergence on gradient requested: 5.00D-04

              XC Information
              --------------
                  TPSS metaGGA Exchange Functional  1.000          
             TPSS03 metaGGA Correlation Functional  1.000          

             Grid Information
             ----------------
          Grid used for XC integration:  medium    
          Radial quadrature: Mura-Knowles        
          Angular quadrature: Lebedev. 
          Tag              B.-S. Rad. Rad. Pts. Rad. Cut. Ang. Pts.
          ---              ---------- --------- --------- ---------
          P                   1.00       88          11.0       590
          H                   0.35       45          11.0       434
          Grid pruning is: on 
          Number of quadrature shells:   133
          Spatial weights used:  Erf1

          Convergence Information
          -----------------------
          Convergence aids based upon iterative change in 
          total energy or number of iterations. 
          Levelshifting, if invoked, occurs when the 
          HOMO/LUMO gap drops below (HL_TOL): 1.00D-02
          DIIS, if invoked, will attempt to extrapolate 
          using up to (NFOCK): 10 stored Fock matrices.

                    Damping( 0%)  Levelshifting(0.5)       DIIS
                  --------------- ------------------- ---------------
          dE  on:    start            ASAP                start   
          dE off:    2 iters        *** iters           *** iters 


      Screening Tolerance Information
      -------------------------------
          Density screening/tol_rho: 1.00D-10
          AO Gaussian exp screening on grid/accAOfunc:  14
          CD Gaussian exp screening on grid/accCDfunc:  20
          XC Gaussian exp screening on grid/accXCfunc:  20
          Schwarz screening/accCoul: 1.00D-08


      Superposition of Atomic Density Guess
      -------------------------------------

 Sum of atomic energies:        -341.15029377

 Renormalizing density from      16.00 to     15

      Non-variational initial energy
      ------------------------------

 Total energy =    -327.331460
 1-e energy   =    -452.604275
 2-e energy   =     119.693053
 HOMO         =      -0.654880
 LUMO         =      -0.654880

   Time after variat. SCF:      0.7
   Time prior to 1st pass:      0.7

 Integral file          = ./PH+.aoints.00
 Record size in doubles =    65536    No. of integs per rec  =    43688
 Max. records in memory =        8    Max. records in file   = 11667424
 No. of bits per label  =        8    No. of bits per value  =       64


 #quartets = 5.238D+04 #integrals = 8.428D+05 #direct =  0.0% #cached =100.0%


File balance: exchanges=     0  moved=     0  time=   0.0


 Grid_pts file          = ./PH+.gridpts.00
 Record size in doubles =  12289        No. of grid_pts per rec  =   3070
 Max. records in memory =      3        Max. recs in file   =  62221202


           Memory utilization after 1st SCF pass: 
           Heap Space remaining (MW):       12.54            12542724
          Stack Space remaining (MW):       13.11            13106492

   convergence    iter        energy       DeltaE   RMS-Dens  Diis-err    time
 ---------------- ----- ----------------- --------- --------- ---------  ------
 d= 0,ls=0.0,diis     1   -341.4168381332 -3.47D+02  2.26D-02  1.95D+00     1.2
                                                     1.97D-02  1.98D+00
 d= 0,ls=0.5,diis     2   -341.4803930733 -6.36D-02  6.50D-03  5.71D-01     1.3
                                                     6.59D-03  5.81D-01
 d= 0,ls=0.5,diis     3   -341.5559743079 -7.56D-02  3.65D-03  7.54D-03     1.5
                                                     2.57D-03  1.38D-02
 d= 0,ls=0.5,diis     4   -341.5611057690 -5.13D-03  8.48D-04  2.46D-04     1.6
                                                     6.89D-04  8.54D-04
 d= 0,ls=0.5,diis     5   -341.5611787066 -7.29D-05  3.93D-04  4.82D-05     1.7
                                                     3.27D-04  1.51D-04
  Resetting Diis
 d= 0,ls=0.5,diis     6   -341.5612237290 -4.50D-05  1.18D-04  9.76D-06     1.9
                                                     1.12D-04  2.60D-05
 d= 0,ls=0.5,diis     7   -341.5612174643  6.26D-06  3.34D-05  1.87D-06     2.0
                                                     4.43D-05  4.69D-06
 d= 0,ls=0.5,diis     8   -341.5612216855 -4.22D-06  2.11D-05  5.90D-07     2.2
                                                     2.71D-05  1.15D-06
 d= 0,ls=0.5,diis     9   -341.5612223302 -6.45D-07  1.02D-05  1.85D-07     2.3
                                                     1.21D-05  3.08D-07
 d= 0,ls=0.5,diis    10   -341.5612262946 -3.96D-06  4.67D-06  5.16D-08     2.5
                                                     5.74D-06  7.58D-08
 d= 0,ls=0.5,diis    11   -341.5612257025  5.92D-07  2.59D-06  1.56D-08     2.6
                                                     3.06D-06  1.92D-08


         Total DFT energy =     -341.561225631641
      One electron energy =     -477.012926458064
           Coulomb energy =      153.127048955464
          Exchange energy =      -22.677419327549
       Correlation energy =       -0.577691440497
 Nuclear repulsion energy =        5.579762639005

 Numeric. integr. density =       14.999998367797

     Total iterative time =      2.0s



                    DFT Final Alpha Molecular Orbital Analysis
                    ------------------------------------------

 Vector    1  Occ=1.000000D+00  E=-7.707662D+01
              MO Center= -4.3D-17,  5.3D-18, -8.9D-02, r^2= 4.1D-03
   Bfn.  Coefficient  Atom+Function         Bfn.  Coefficient  Atom+Function  
  ----- ------------  ---------------      ----- ------------  ---------------
     2      0.645177  1 P  s                  1      0.419473  1 P  s          

 Vector    2  Occ=1.000000D+00  E=-6.856481D+00
              MO Center=  6.5D-16,  5.0D-15, -8.7D-02, r^2= 9.1D-02
   Bfn.  Coefficient  Atom+Function         Bfn.  Coefficient  Atom+Function  
  ----- ------------  ---------------      ----- ------------  ---------------
     4      0.611391  1 P  s                  3      0.492576  1 P  s          
     2     -0.310588  1 P  s          

 Vector    3  Occ=1.000000D+00  E=-5.045852D+00
              MO Center=  5.9D-16, -3.6D-15, -8.9D-02, r^2= 8.3D-02
   Bfn.  Coefficient  Atom+Function         Bfn.  Coefficient  Atom+Function  
  ----- ------------  ---------------      ----- ------------  ---------------
    11      0.681590  1 P  py                 8      0.405323  1 P  py         

 Vector    4  Occ=1.000000D+00  E=-5.037799D+00
              MO Center=  1.6D-15,  1.9D-16, -8.9D-02, r^2= 8.3D-02
   Bfn.  Coefficient  Atom+Function         Bfn.  Coefficient  Atom+Function  
  ----- ------------  ---------------      ----- ------------  ---------------
    10      0.680558  1 P  px                 7      0.406250  1 P  px         

 Vector    5  Occ=1.000000D+00  E=-5.029633D+00
              MO Center= -1.6D-15, -1.3D-15, -9.0D-02, r^2= 8.3D-02
   Bfn.  Coefficient  Atom+Function         Bfn.  Coefficient  Atom+Function  
  ----- ------------  ---------------      ----- ------------  ---------------
    12      0.681668  1 P  pz                 9      0.406813  1 P  pz         

 Vector    6  Occ=1.000000D+00  E=-9.511367D-01
              MO Center=  3.5D-15,  7.5D-16,  2.4D-01, r^2= 1.1D+00
   Bfn.  Coefficient  Atom+Function         Bfn.  Coefficient  Atom+Function  
  ----- ------------  ---------------      ----- ------------  ---------------
     6      0.796432  1 P  s                  5      0.505028  1 P  s          
     4     -0.362251  1 P  s                  3     -0.204724  1 P  s          

 Vector    7  Occ=1.000000D+00  E=-6.715627D-01
              MO Center= -3.1D-15,  1.5D-16,  1.6D-01, r^2= 1.7D+00
   Bfn.  Coefficient  Atom+Function         Bfn.  Coefficient  Atom+Function  
  ----- ------------  ---------------      ----- ------------  ---------------
    18      0.629378  1 P  pz                 6     -0.501226  1 P  s          
    55      0.283642  2 H  s                  5     -0.193771  1 P  s          
    12     -0.154075  1 P  pz         

 Vector    8  Occ=1.000000D+00  E=-5.961581D-01
              MO Center=  7.5D-16,  2.9D-15, -2.9D-02, r^2= 1.5D+00
   Bfn.  Coefficient  Atom+Function         Bfn.  Coefficient  Atom+Function  
  ----- ------------  ---------------      ----- ------------  ---------------
    16      0.962543  1 P  px                10     -0.197443  1 P  px         
    19      0.186750  1 P  px                13      0.160082  1 P  px         

 Vector    9  Occ=0.000000D+00  E=-5.937538D-01
              MO Center= -6.6D-15,  2.8D-15, -2.5D-02, r^2= 1.5D+00
   Bfn.  Coefficient  Atom+Function         Bfn.  Coefficient  Atom+Function  
  ----- ------------  ---------------      ----- ------------  ---------------
    17      0.817692  1 P  py                20      0.197423  1 P  py         
    11     -0.193239  1 P  py                14      0.187755  1 P  py         

 Vector   10  Occ=0.000000D+00  E=-3.177490D-01
              MO Center= -1.1D-14, -7.4D-15,  2.3D-01, r^2= 2.7D+00
   Bfn.  Coefficient  Atom+Function         Bfn.  Coefficient  Atom+Function  
  ----- ------------  ---------------      ----- ------------  ---------------
    18      1.096333  1 P  pz                 6      0.641260  1 P  s          
    56     -0.629501  2 H  s                 55     -0.481621  2 H  s          
    21      0.368534  1 P  pz                43     -0.287983  1 P  dzz        
    53     -0.239289  1 P  fzzz              57     -0.215766  2 H  s          
    46     -0.194034  1 P  fxxz              51     -0.176837  1 P  fyyz       

 Vector   11  Occ=0.000000D+00  E=-1.906220D-01
              MO Center= -1.1D-13,  4.3D-14,  4.8D-01, r^2= 6.6D+00
   Bfn.  Coefficient  Atom+Function         Bfn.  Coefficient  Atom+Function  
  ----- ------------  ---------------      ----- ------------  ---------------
    22      1.250068  1 P  s                  5     -0.394731  1 P  s          
    38      0.269115  1 P  dxx               18      0.242593  1 P  pz         
    25      0.220709  1 P  pz                 6     -0.214953  1 P  s          
    56     -0.199894  2 H  s                 21      0.182694  1 P  pz         
    57     -0.159943  2 H  s                  4      0.157202  1 P  s          

 Vector   12  Occ=0.000000D+00  E=-1.866873D-01
              MO Center= -3.8D-15, -4.3D-14,  8.6D-02, r^2= 2.8D+00
   Bfn.  Coefficient  Atom+Function         Bfn.  Coefficient  Atom+Function  
  ----- ------------  ---------------      ----- ------------  ---------------
    42      1.208407  1 P  dyz               36      0.470240  1 P  dyz        
    17     -0.211333  1 P  py                65      0.176337  2 H  py         

 Vector   13  Occ=0.000000D+00  E=-1.860289D-01
              MO Center=  1.5D-13,  9.6D-15,  9.7D-02, r^2= 2.8D+00
   Bfn.  Coefficient  Atom+Function         Bfn.  Coefficient  Atom+Function  
  ----- ------------  ---------------      ----- ------------  ---------------
    40      1.224785  1 P  dxz               34      0.454527  1 P  dxz        
    16     -0.197187  1 P  px                64      0.171412  2 H  px         

 Vector   14  Occ=0.000000D+00  E=-1.744764D-01
              MO Center=  1.4D-14,  3.3D-15, -7.5D-02, r^2= 2.7D+00
   Bfn.  Coefficient  Atom+Function         Bfn.  Coefficient  Atom+Function  
  ----- ------------  ---------------      ----- ------------  ---------------
    39      1.383475  1 P  dxy               33      0.527359  1 P  dxy        

 Vector   15  Occ=0.000000D+00  E=-1.701611D-01
              MO Center= -5.8D-15, -8.0D-15, -5.3D-02, r^2= 2.8D+00
   Bfn.  Coefficient  Atom+Function         Bfn.  Coefficient  Atom+Function  
  ----- ------------  ---------------      ----- ------------  ---------------
    41     -0.697490  1 P  dyy               38      0.655543  1 P  dxx        
    35     -0.325318  1 P  dyy               32      0.208753  1 P  dxx        
    22     -0.178288  1 P  s                  5      0.171537  1 P  s          
    39      0.162351  1 P  dxy        

 Vector   16  Occ=0.000000D+00  E=-1.254788D-01
              MO Center= -3.4D-14,  3.6D-14, -5.8D-01, r^2= 9.9D+00
   Bfn.  Coefficient  Atom+Function         Bfn.  Coefficient  Atom+Function  
  ----- ------------  ---------------      ----- ------------  ---------------
    22      0.959405  1 P  s                 25     -0.752393  1 P  pz         
    57     -0.526430  2 H  s                 56     -0.291865  2 H  s          
    21      0.203553  1 P  pz                 6     -0.198893  1 P  s          
    18      0.199828  1 P  pz                43      0.171794  1 P  dzz        

 Vector   17  Occ=0.000000D+00  E=-1.192097D-01
              MO Center=  6.3D-15,  3.0D-15, -1.3D-01, r^2= 1.1D+01
   Bfn.  Coefficient  Atom+Function         Bfn.  Coefficient  Atom+Function  
  ----- ------------  ---------------      ----- ------------  ---------------
    23      1.103622  1 P  px                16     -0.273956  1 P  px         

 Vector   18  Occ=0.000000D+00  E=-1.166925D-01
              MO Center= -8.2D-16, -3.2D-14, -1.1D-01, r^2= 1.1D+01
   Bfn.  Coefficient  Atom+Function         Bfn.  Coefficient  Atom+Function  
  ----- ------------  ---------------      ----- ------------  ---------------
    24      1.112368  1 P  py                17     -0.255648  1 P  py         

 Vector   19  Occ=0.000000D+00  E=-4.958657D-02
              MO Center=  1.7D-14,  7.8D-15,  9.6D-01, r^2= 1.6D+01
   Bfn.  Coefficient  Atom+Function         Bfn.  Coefficient  Atom+Function  
  ----- ------------  ---------------      ----- ------------  ---------------
    57      7.411506  2 H  s                 22     -6.412441  1 P  s          
    25     -3.533518  1 P  pz                56     -1.310778  2 H  s          
     6      0.927698  1 P  s                 21      0.823282  1 P  pz         
    18      0.701563  1 P  pz                55     -0.287054  2 H  s          
    43      0.253028  1 P  dzz               66      0.223728  2 H  pz         

 Vector   20  Occ=0.000000D+00  E= 1.155827D-02
              MO Center=  8.2D-15, -7.4D-15,  8.5D-01, r^2= 9.1D+00
   Bfn.  Coefficient  Atom+Function         Bfn.  Coefficient  Atom+Function  
  ----- ------------  ---------------      ----- ------------  ---------------
    56      3.105948  2 H  s                 22     -2.628397  1 P  s          
    18     -1.451975  1 P  pz                 6     -1.409973  1 P  s          
    25     -1.379499  1 P  pz                57      0.886021  2 H  s          
    38      0.801892  1 P  dxx               41      0.795572  1 P  dyy        
    43     -0.616602  1 P  dzz               21     -0.530746  1 P  pz         

 Vector   21  Occ=0.000000D+00  E= 5.418537D-02
              MO Center=  3.3D-13,  1.5D-13, -1.5D+00, r^2= 1.0D+01
   Bfn.  Coefficient  Atom+Function         Bfn.  Coefficient  Atom+Function  
  ----- ------------  ---------------      ----- ------------  ---------------
    21      4.140284  1 P  pz                56     -3.323930  2 H  s          
    25     -2.416204  1 P  pz                 6      2.305329  1 P  s          
    57      1.035047  2 H  s                 38     -0.698544  1 P  dxx        
    41     -0.694779  1 P  dyy               66      0.691799  2 H  pz         
    22      0.462457  1 P  s                 43      0.332608  1 P  dzz        

 Vector   22  Occ=0.000000D+00  E= 5.716948D-02
              MO Center= -4.1D-13, -3.0D-14, -8.5D-02, r^2= 1.2D+01
   Bfn.  Coefficient  Atom+Function         Bfn.  Coefficient  Atom+Function  
  ----- ------------  ---------------      ----- ------------  ---------------
    19      2.847260  1 P  px                23     -2.101066  1 P  px         
    16     -1.991502  1 P  px                49      0.542371  1 P  fxzz       
    44      0.520819  1 P  fxxx              47      0.509631  1 P  fxyy       
    20      0.216830  1 P  py                24     -0.159855  1 P  py         
    13      0.158131  1 P  px                17     -0.152795  1 P  py         

 Vector   23  Occ=0.000000D+00  E= 5.883521D-02
              MO Center=  7.4D-15, -1.0D-13, -7.6D-02, r^2= 1.2D+01
   Bfn.  Coefficient  Atom+Function         Bfn.  Coefficient  Atom+Function  
  ----- ------------  ---------------      ----- ------------  ---------------
    20      2.844371  1 P  py                24     -2.098855  1 P  py         
    17     -2.048812  1 P  py                52      0.573992  1 P  fyzz       
    45      0.550452  1 P  fxxy              50      0.528763  1 P  fyyy       
    19     -0.216588  1 P  px                14      0.183921  1 P  py         
    23      0.159965  1 P  px                16      0.154865  1 P  px         

 Vector   24  Occ=0.000000D+00  E= 1.275009D-01
              MO Center=  4.2D-14, -1.4D-14,  3.0D-01, r^2= 6.2D+00
   Bfn.  Coefficient  Atom+Function         Bfn.  Coefficient  Atom+Function  
  ----- ------------  ---------------      ----- ------------  ---------------
    22      3.792977  1 P  s                 57     -3.297127  2 H  s          
    21     -3.086229  1 P  pz                56      2.797545  2 H  s          
    43     -2.742058  1 P  dzz               25      2.352575  1 P  pz         
    55      1.140551  2 H  s                 41     -0.884543  1 P  dyy        
    38     -0.876272  1 P  dxx               18     -0.468924  1 P  pz         

 Vector   25  Occ=0.000000D+00  E= 1.704553D-01
              MO Center=  2.3D-15,  1.4D-16,  9.2D-01, r^2= 3.7D+00
   Bfn.  Coefficient  Atom+Function         Bfn.  Coefficient  Atom+Function  
  ----- ------------  ---------------      ----- ------------  ---------------
    40      1.947226  1 P  dxz               64     -1.770227  2 H  px         
    19      1.072244  1 P  px                16      0.645603  1 P  px         
    23     -0.371060  1 P  px                49     -0.340511  1 P  fxzz       
    34      0.189633  1 P  dxz               44     -0.153431  1 P  fxxx       

 Vector   26  Occ=0.000000D+00  E= 1.707496D-01
              MO Center= -1.3D-15,  3.2D-14,  9.1D-01, r^2= 3.7D+00
   Bfn.  Coefficient  Atom+Function         Bfn.  Coefficient  Atom+Function  
  ----- ------------  ---------------      ----- ------------  ---------------
    42      1.928576  1 P  dyz               65     -1.757583  2 H  py         
    20      1.151203  1 P  py                17      0.501924  1 P  py         
    24     -0.416109  1 P  py                52     -0.299714  1 P  fyzz       
    36      0.204350  1 P  dyz        

 Vector   27  Occ=0.000000D+00  E= 1.929339D-01
              MO Center=  1.6D-14, -3.1D-14,  1.1D+00, r^2= 8.7D+00
   Bfn.  Coefficient  Atom+Function         Bfn.  Coefficient  Atom+Function  
  ----- ------------  ---------------      ----- ------------  ---------------
    56      6.933223  2 H  s                 57     -6.369972  2 H  s          
    22      5.456826  1 P  s                 21     -3.202806  1 P  pz         
    25      3.069229  1 P  pz                 6     -2.253703  1 P  s          
    55     -1.556535  2 H  s                 18     -1.304118  1 P  pz         
    43     -1.184860  1 P  dzz               66     -1.040008  2 H  pz         

 Vector   28  Occ=0.000000D+00  E= 4.263321D-01
              MO Center=  6.2D-14,  6.8D-15,  2.3D-01, r^2= 6.0D+00
   Bfn.  Coefficient  Atom+Function         Bfn.  Coefficient  Atom+Function  
  ----- ------------  ---------------      ----- ------------  ---------------
    56    -10.554567  2 H  s                  6     10.071497  1 P  s          
    18      8.502353  1 P  pz                21      4.219872  1 P  pz         
    66      3.751791  2 H  pz                43      2.634604  1 P  dzz        
    46     -2.488601  1 P  fxxz              51     -2.453687  1 P  fyyz       
    53     -2.395283  1 P  fzzz              15     -1.829907  1 P  pz         

 Vector   29  Occ=0.000000D+00  E= 4.631351D-01
              MO Center= -4.2D-15, -7.0D-15, -7.8D-02, r^2= 2.1D+00
   Bfn.  Coefficient  Atom+Function         Bfn.  Coefficient  Atom+Function  
  ----- ------------  ---------------      ----- ------------  ---------------
    56      1.415450  2 H  s                  6     -1.133975  1 P  s          
    18     -1.128697  1 P  pz                32     -0.830523  1 P  dxx        
    35      0.828177  1 P  dyy               38      0.776134  1 P  dxx        
    21     -0.574013  1 P  pz                41     -0.544903  1 P  dyy        
    66     -0.496465  2 H  pz                43     -0.415006  1 P  dzz        

 Vector   30  Occ=0.000000D+00  E= 4.650916D-01
              MO Center=  8.9D-15, -1.3D-15, -8.3D-02, r^2= 2.0D+00
   Bfn.  Coefficient  Atom+Function         Bfn.  Coefficient  Atom+Function  
  ----- ------------  ---------------      ----- ------------  ---------------
    33      1.673665  1 P  dxy               39     -1.321906  1 P  dxy        
    27      0.267722  1 P  dxy        

 Vector   31  Occ=0.000000D+00  E= 4.664623D-01
              MO Center= -6.6D-16,  1.5D-15, -1.4D-01, r^2= 2.0D+00
   Bfn.  Coefficient  Atom+Function         Bfn.  Coefficient  Atom+Function  
  ----- ------------  ---------------      ----- ------------  ---------------
    34      1.642316  1 P  dxz               40     -1.472047  1 P  dxz        
    16     -0.518365  1 P  px                49      0.309891  1 P  fxzz       
    28      0.270407  1 P  dxz               47      0.166054  1 P  fxyy       
    44      0.158326  1 P  fxxx       

 Vector   32  Occ=0.000000D+00  E= 4.673903D-01
              MO Center= -8.4D-15, -2.8D-16, -1.5D-01, r^2= 2.1D+00
   Bfn.  Coefficient  Atom+Function         Bfn.  Coefficient  Atom+Function  
  ----- ------------  ---------------      ----- ------------  ---------------
    36      1.639878  1 P  dyz               42     -1.495166  1 P  dyz        
    17     -0.515619  1 P  py                52      0.319782  1 P  fyzz       
    30      0.266560  1 P  dyz               50      0.159737  1 P  fyyy       

 Vector   33  Occ=0.000000D+00  E= 5.423852D-01
              MO Center=  3.4D-14, -8.0D-15,  1.9D-01, r^2= 5.2D+00
   Bfn.  Coefficient  Atom+Function         Bfn.  Coefficient  Atom+Function  
  ----- ------------  ---------------      ----- ------------  ---------------
    18      4.096610  1 P  pz                56      3.881487  2 H  s          
    21     -3.649887  1 P  pz                 6     -2.702541  1 P  s          
    53     -2.153716  1 P  fzzz              46     -2.140805  1 P  fxxz       
    51     -2.134527  1 P  fyyz              66     -1.928098  2 H  pz         
    15     -1.878025  1 P  pz                25      1.853264  1 P  pz         


                     DFT Final Beta Molecular Orbital Analysis
                     -----------------------------------------

 Vector    1  Occ=1.000000D+00  E=-7.707171D+01
              MO Center= -6.1D-17,  1.6D-17, -8.9D-02, r^2= 4.1D-03
   Bfn.  Coefficient  Atom+Function         Bfn.  Coefficient  Atom+Function  
  ----- ------------  ---------------      ----- ------------  ---------------
     2      0.645189  1 P  s                  1      0.419488  1 P  s          

 Vector    2  Occ=1.000000D+00  E=-6.852375D+00
              MO Center= -1.0D-16, -1.0D-15, -8.7D-02, r^2= 9.1D-02
   Bfn.  Coefficient  Atom+Function         Bfn.  Coefficient  Atom+Function  
  ----- ------------  ---------------      ----- ------------  ---------------
     4      0.613488  1 P  s                  3      0.491899  1 P  s          
     2     -0.310486  1 P  s          

 Vector    3  Occ=1.000000D+00  E=-5.043648D+00
              MO Center= -1.5D-17,  1.4D-15, -8.9D-02, r^2= 8.3D-02
   Bfn.  Coefficient  Atom+Function         Bfn.  Coefficient  Atom+Function  
  ----- ------------  ---------------      ----- ------------  ---------------
    11      0.681870  1 P  py                 8      0.405200  1 P  py         

 Vector    4  Occ=1.000000D+00  E=-5.027194D+00
              MO Center=  3.9D-15,  2.8D-16, -9.0D-02, r^2= 8.3D-02
   Bfn.  Coefficient  Atom+Function         Bfn.  Coefficient  Atom+Function  
  ----- ------------  ---------------      ----- ------------  ---------------
    12      0.682207  1 P  pz                 9      0.406707  1 P  pz         

 Vector    5  Occ=1.000000D+00  E=-5.024421D+00
              MO Center= -4.0D-15, -2.9D-16, -8.9D-02, r^2= 8.3D-02
   Bfn.  Coefficient  Atom+Function         Bfn.  Coefficient  Atom+Function  
  ----- ------------  ---------------      ----- ------------  ---------------
    10      0.682039  1 P  px                 7      0.405644  1 P  px         

 Vector    6  Occ=1.000000D+00  E=-9.223599D-01
              MO Center=  4.4D-17,  2.5D-15,  2.9D-01, r^2= 1.1D+00
   Bfn.  Coefficient  Atom+Function         Bfn.  Coefficient  Atom+Function  
  ----- ------------  ---------------      ----- ------------  ---------------
     6      0.816003  1 P  s                  5      0.426658  1 P  s          
     4     -0.361712  1 P  s                  3     -0.188493  1 P  s          

 Vector    7  Occ=1.000000D+00  E=-6.660185D-01
              MO Center= -3.1D-15,  4.7D-15,  8.2D-02, r^2= 1.7D+00
   Bfn.  Coefficient  Atom+Function         Bfn.  Coefficient  Atom+Function  
  ----- ------------  ---------------      ----- ------------  ---------------
    18      0.657162  1 P  pz                 6     -0.549186  1 P  s          
    55      0.279066  2 H  s                  5     -0.169213  1 P  s          
     4      0.156698  1 P  s                 12     -0.152547  1 P  pz         

 Vector    8  Occ=0.000000D+00  E=-5.844266D-01
              MO Center= -1.1D-15, -4.0D-15, -3.6D-02, r^2= 1.5D+00
   Bfn.  Coefficient  Atom+Function         Bfn.  Coefficient  Atom+Function  
  ----- ------------  ---------------      ----- ------------  ---------------
    17      0.830122  1 P  py                20      0.195184  1 P  py         
    11     -0.190495  1 P  py                14      0.177308  1 P  py         

 Vector    9  Occ=0.000000D+00  E=-5.248453D-01
              MO Center= -1.3D-14,  1.4D-15, -3.0D-02, r^2= 1.7D+00
   Bfn.  Coefficient  Atom+Function         Bfn.  Coefficient  Atom+Function  
  ----- ------------  ---------------      ----- ------------  ---------------
    16      1.101940  1 P  px                19      0.211366  1 P  px         
    44     -0.209641  1 P  fxxx              49     -0.187871  1 P  fxzz       
    10     -0.178639  1 P  px         

 Vector   10  Occ=0.000000D+00  E=-3.059876D-01
              MO Center= -7.9D-15, -2.0D-15,  2.4D-01, r^2= 2.7D+00
   Bfn.  Coefficient  Atom+Function         Bfn.  Coefficient  Atom+Function  
  ----- ------------  ---------------      ----- ------------  ---------------
    18      1.057466  1 P  pz                 6      0.676185  1 P  s          
    56     -0.590919  2 H  s                 55     -0.456341  2 H  s          
    21      0.346551  1 P  pz                43     -0.325449  1 P  dzz        
    57     -0.277278  2 H  s                 22      0.224980  1 P  s          
    53     -0.220501  1 P  fzzz              46     -0.216340  1 P  fxxz       

 Vector   11  Occ=0.000000D+00  E=-1.864454D-01
              MO Center=  3.1D-16, -1.1D-15,  1.0D-01, r^2= 2.8D+00
   Bfn.  Coefficient  Atom+Function         Bfn.  Coefficient  Atom+Function  
  ----- ------------  ---------------      ----- ------------  ---------------
    42      1.209037  1 P  dyz               36      0.462868  1 P  dyz        
    17     -0.196650  1 P  py                65      0.182873  2 H  py         

 Vector   12  Occ=0.000000D+00  E=-1.790635D-01
              MO Center= -3.3D-14,  2.8D-14,  5.6D-01, r^2= 6.7D+00
   Bfn.  Coefficient  Atom+Function         Bfn.  Coefficient  Atom+Function  
  ----- ------------  ---------------      ----- ------------  ---------------
    22      1.080433  1 P  s                  5     -0.417499  1 P  s          
    18      0.241102  1 P  pz                 6     -0.162287  1 P  s          
    25      0.162209  1 P  pz                38      0.157172  1 P  dxx        
     4      0.156114  1 P  s                 43     -0.153707  1 P  dzz        

 Vector   13  Occ=0.000000D+00  E=-1.654958D-01
              MO Center=  2.0D-14,  7.9D-16,  1.3D-01, r^2= 3.0D+00
   Bfn.  Coefficient  Atom+Function         Bfn.  Coefficient  Atom+Function  
  ----- ------------  ---------------      ----- ------------  ---------------
    40      1.230139  1 P  dxz               34      0.386839  1 P  dxz        
    16     -0.215213  1 P  px                64      0.208475  2 H  px         

 Vector   14  Occ=0.000000D+00  E=-1.484190D-01
              MO Center=  1.7D-14,  3.2D-15, -2.6D-02, r^2= 3.0D+00
   Bfn.  Coefficient  Atom+Function         Bfn.  Coefficient  Atom+Function  
  ----- ------------  ---------------      ----- ------------  ---------------
    41     -0.725233  1 P  dyy               38      0.677054  1 P  dxx        
    35     -0.299456  1 P  dyy               57     -0.262706  2 H  s          
     6      0.238269  1 P  s                 22      0.219421  1 P  s          
    32      0.169124  1 P  dxx               39      0.168254  1 P  dxy        

 Vector   15  Occ=0.000000D+00  E=-1.459741D-01
              MO Center=  1.4D-15, -1.1D-14, -7.9D-02, r^2= 2.8D+00
   Bfn.  Coefficient  Atom+Function         Bfn.  Coefficient  Atom+Function  
  ----- ------------  ---------------      ----- ------------  ---------------
    39      1.424084  1 P  dxy               33      0.472655  1 P  dxy        

 Vector   16  Occ=0.000000D+00  E=-1.204023D-01
              MO Center= -3.7D-14,  7.3D-14, -7.1D-01, r^2= 9.9D+00
   Bfn.  Coefficient  Atom+Function         Bfn.  Coefficient  Atom+Function  
  ----- ------------  ---------------      ----- ------------  ---------------
    22      0.870797  1 P  s                 25     -0.840321  1 P  pz         
    57     -0.395717  2 H  s                 56     -0.329430  2 H  s          
    21      0.268992  1 P  pz                 6     -0.196585  1 P  s          
    18      0.196125  1 P  pz                43      0.187332  1 P  dzz        

 Vector   17  Occ=0.000000D+00  E=-1.102443D-01
              MO Center=  2.1D-15, -1.0D-13, -1.2D-01, r^2= 1.1D+01
   Bfn.  Coefficient  Atom+Function         Bfn.  Coefficient  Atom+Function  
  ----- ------------  ---------------      ----- ------------  ---------------
    24      1.158050  1 P  py                17     -0.205262  1 P  py         
    20     -0.194694  1 P  py                14     -0.152125  1 P  py         
    42     -0.150719  1 P  dyz        

 Vector   18  Occ=0.000000D+00  E=-9.833598D-02
              MO Center=  3.4D-14,  1.1D-14, -1.3D-01, r^2= 1.2D+01
   Bfn.  Coefficient  Atom+Function         Bfn.  Coefficient  Atom+Function  
  ----- ------------  ---------------      ----- ------------  ---------------
    23      1.275214  1 P  px                19     -0.357493  1 P  px         
    16     -0.203598  1 P  px                40     -0.174307  1 P  dxz        

 Vector   19  Occ=0.000000D+00  E=-4.489907D-02
              MO Center=  1.7D-15,  5.6D-15,  9.7D-01, r^2= 1.6D+01
   Bfn.  Coefficient  Atom+Function         Bfn.  Coefficient  Atom+Function  
  ----- ------------  ---------------      ----- ------------  ---------------
    57      7.560425  2 H  s                 22     -6.584027  1 P  s          
    25     -3.613691  1 P  pz                56     -1.469291  2 H  s          
     6      1.004609  1 P  s                 21      0.913187  1 P  pz         
    18      0.735103  1 P  pz                43      0.279701  1 P  dzz        
    55     -0.263993  2 H  s                 66      0.238525  2 H  pz         

 Vector   20  Occ=0.000000D+00  E= 1.910840D-02
              MO Center= -1.3D-14,  2.0D-14,  9.0D-01, r^2= 9.2D+00
   Bfn.  Coefficient  Atom+Function         Bfn.  Coefficient  Atom+Function  
  ----- ------------  ---------------      ----- ------------  ---------------
    56      3.144874  2 H  s                 22     -2.588077  1 P  s          
    18     -1.514250  1 P  pz                 6     -1.378190  1 P  s          
    25     -1.373523  1 P  pz                57      0.828714  2 H  s          
    38      0.796121  1 P  dxx               41      0.758615  1 P  dyy        
    43     -0.619873  1 P  dzz               21     -0.503516  1 P  pz         

 Vector   21  Occ=0.000000D+00  E= 5.870300D-02
              MO Center= -2.0D-14,  2.2D-13, -1.4D+00, r^2= 1.0D+01
   Bfn.  Coefficient  Atom+Function         Bfn.  Coefficient  Atom+Function  
  ----- ------------  ---------------      ----- ------------  ---------------
    21      4.181643  1 P  pz                56     -3.349454  2 H  s          
    25     -2.413451  1 P  pz                 6      2.276433  1 P  s          
    57      1.042149  2 H  s                 41     -0.689732  1 P  dyy        
    66      0.678608  2 H  pz                38     -0.664154  1 P  dxx        
    22      0.446320  1 P  s                 43      0.369856  1 P  dzz        

 Vector   22  Occ=0.000000D+00  E= 6.383111D-02
              MO Center=  1.3D-14, -2.5D-13, -8.0D-02, r^2= 1.2D+01
   Bfn.  Coefficient  Atom+Function         Bfn.  Coefficient  Atom+Function  
  ----- ------------  ---------------      ----- ------------  ---------------
    20      2.826109  1 P  py                17     -2.082140  1 P  py         
    24     -2.074016  1 P  py                45      0.581837  1 P  fxxy       
    52      0.581742  1 P  fyzz              50      0.527751  1 P  fyyy       
    14      0.189112  1 P  py                19     -0.164488  1 P  px         
    42     -0.152194  1 P  dyz        

 Vector   23  Occ=0.000000D+00  E= 7.914534D-02
              MO Center=  2.0D-14,  5.5D-15, -9.2D-02, r^2= 1.1D+01
   Bfn.  Coefficient  Atom+Function         Bfn.  Coefficient  Atom+Function  
  ----- ------------  ---------------      ----- ------------  ---------------
    19      2.846813  1 P  px                16     -2.281362  1 P  px         
    23     -2.018401  1 P  px                44      0.631227  1 P  fxxx       
    49      0.624011  1 P  fxzz              47      0.576114  1 P  fxyy       
    13      0.216056  1 P  px                20      0.165833  1 P  py         
    40     -0.163785  1 P  dxz        

 Vector   24  Occ=0.000000D+00  E= 1.347732D-01
              MO Center= -4.3D-16,  4.2D-15,  3.2D-01, r^2= 6.0D+00
   Bfn.  Coefficient  Atom+Function         Bfn.  Coefficient  Atom+Function  
  ----- ------------  ---------------      ----- ------------  ---------------
    22      3.653563  1 P  s                 57     -3.120158  2 H  s          
    21     -2.911219  1 P  pz                43     -2.731834  1 P  dzz        
    56      2.601361  2 H  s                 25      2.207662  1 P  pz         
    55      1.141728  2 H  s                 41     -0.914611  1 P  dyy        
    38     -0.836127  1 P  dxx               18     -0.512941  1 P  pz         

 Vector   25  Occ=0.000000D+00  E= 1.725036D-01
              MO Center=  1.8D-15, -1.2D-14,  9.1D-01, r^2= 3.8D+00
   Bfn.  Coefficient  Atom+Function         Bfn.  Coefficient  Atom+Function  
  ----- ------------  ---------------      ----- ------------  ---------------
    42      1.916347  1 P  dyz               65     -1.754246  2 H  py         
    20      1.199210  1 P  py                17      0.475115  1 P  py         
    24     -0.442567  1 P  py                52     -0.298112  1 P  fyzz       
    36      0.211339  1 P  dyz        

 Vector   26  Occ=0.000000D+00  E= 1.784367D-01
              MO Center=  1.0D-14,  4.7D-16,  8.9D-01, r^2= 3.8D+00
   Bfn.  Coefficient  Atom+Function         Bfn.  Coefficient  Atom+Function  
  ----- ------------  ---------------      ----- ------------  ---------------
    40      1.984628  1 P  dxz               64     -1.767983  2 H  px         
    19      1.124244  1 P  px                16      0.669205  1 P  px         
    23     -0.396969  1 P  px                49     -0.353505  1 P  fxzz       
    34      0.177909  1 P  dxz               44     -0.169142  1 P  fxxx       
    47     -0.164099  1 P  fxyy              13     -0.162710  1 P  px         

 Vector   27  Occ=0.000000D+00  E= 2.028135D-01
              MO Center= -9.2D-15,  1.3D-14,  1.0D+00, r^2= 8.7D+00
   Bfn.  Coefficient  Atom+Function         Bfn.  Coefficient  Atom+Function  
  ----- ------------  ---------------      ----- ------------  ---------------
    56      7.014229  2 H  s                 57     -6.321736  2 H  s          
    22      5.442682  1 P  s                 21     -3.308163  1 P  pz         
    25      3.091447  1 P  pz                 6     -2.257815  1 P  s          
    55     -1.532513  2 H  s                 18     -1.261520  1 P  pz         
    43     -1.257457  1 P  dzz               41     -1.093444  1 P  dyy        

 Vector   28  Occ=0.000000D+00  E= 4.315480D-01
              MO Center=  1.4D-14,  1.4D-14,  2.3D-01, r^2= 6.0D+00
   Bfn.  Coefficient  Atom+Function         Bfn.  Coefficient  Atom+Function  
  ----- ------------  ---------------      ----- ------------  ---------------
    56    -10.605745  2 H  s                  6     10.097137  1 P  s          
    18      8.340211  1 P  pz                21      4.309370  1 P  pz         
    66      3.796300  2 H  pz                43      2.630776  1 P  dzz        
    46     -2.437041  1 P  fxxz              51     -2.373772  1 P  fyyz       
    53     -2.311256  1 P  fzzz              55     -1.826244  2 H  s          

 Vector   29  Occ=0.000000D+00  E= 4.777490D-01
              MO Center= -4.3D-16,  2.8D-15, -1.6D-01, r^2= 2.0D+00
   Bfn.  Coefficient  Atom+Function         Bfn.  Coefficient  Atom+Function  
  ----- ------------  ---------------      ----- ------------  ---------------
    36      1.645368  1 P  dyz               42     -1.511905  1 P  dyz        
    17     -0.365218  1 P  py                30      0.271271  1 P  dyz        
    52      0.227432  1 P  fyzz              65      0.163665  2 H  py         

 Vector   30  Occ=0.000000D+00  E= 5.081049D-01
              MO Center=  2.5D-15,  5.6D-15, -3.6D-02, r^2= 2.2D+00
   Bfn.  Coefficient  Atom+Function         Bfn.  Coefficient  Atom+Function  
  ----- ------------  ---------------      ----- ------------  ---------------
     6      2.891579  1 P  s                 56     -2.675990  2 H  s          
    18      1.491065  1 P  pz                21      1.299595  1 P  pz         
    66      1.181904  2 H  pz                38     -1.011095  1 P  dxx        
    35     -0.885100  1 P  dyy               32      0.735895  1 P  dxx        
    55     -0.597794  2 H  s                 43      0.504218  1 P  dzz        


   alpha - beta orbital overlaps 
   ----------------------------- 


   alpha      1      2      3      4      5      6      7      8      9     10
    beta      1      2      3      5      4      6      7      9      8     10
 overlap   1.000  1.000  1.000  1.000  1.000  0.998  0.999  0.998  1.000  0.996


   alpha     11     12     13     14     15     16     17     18     19     20
    beta     12     11     13     15     14     16     18     17     19     20
 overlap   0.992  1.000  0.999  1.000  0.981  0.994  0.996  1.000  0.998  0.999


   alpha     21     22     23     24     25     26     27     28     29     30
    beta     21     23     22     24     26     25     27     28     30     31
 overlap   0.999  0.995  0.999  0.999  0.999  1.000  0.998  0.996  0.980  1.000


   alpha     31     32     33     34     35     36     37     38     39     40
    beta     32     29     33     35     34     36     37     38     39     41
 overlap   0.999  1.000  0.984  0.997  0.999  0.996  0.997  0.998  0.998  1.000


   alpha     41     42     43     44     45     46     47     48     49     50
    beta     40     42     43     44     45     46     47     48     49     50
 overlap   0.999  0.999  0.999  0.999  1.000  1.000  0.999  1.000  1.000  1.000


   alpha     51     52     53     54     55     56     57     58     59     60
    beta     51     52     53     54     55     56     57     58     59     60
 overlap   1.000  1.000  1.000  1.000  0.998  0.999  1.000  1.000  0.998  0.999


   alpha     61     62     63     64     65     66     67     68     69     70
    beta     61     62     63     64     65     66     67     68     69     70
 overlap   0.999  0.998  0.997  0.999  1.000  1.000  0.998  1.000  1.000  1.000


   alpha     71     72
    beta     71     72
 overlap   1.000  1.000

     --------------------------
     Expectation value of S2:  
     --------------------------
      <S2> =      0.7548 (Exact =     0.7500)


 center of mass
 --------------
 x =   0.00000000 y =   0.00000000 z =  -0.08330283

 moments of inertia (a.u.)
 ------------------
           7.053913691528           0.000000000000           0.000000000000
           0.000000000000           7.053913691528           0.000000000000
           0.000000000000           0.000000000000           0.000000000000

     Multipole analysis of the density
     ---------------------------------

     L   x y z        total         alpha         beta         nuclear
     -   - - -        -----         -----         ----         -------
     0   0 0 0      1.000000     -8.000000     -7.000000     16.000000

     1   1 0 0      0.000000     -0.000000      0.000000      0.000000
     1   0 1 0     -0.000000     -0.000000     -0.000000      0.000000
     1   0 0 1      0.287155      0.146198      0.140958      0.000000

     2   2 0 0     -8.323456     -5.813911     -2.509545      0.000000
     2   1 1 0     -0.111553     -0.125445      0.013892      0.000000
     2   1 0 1     -0.000000     -0.000000     -0.000000      0.000000
     2   0 2 0     -6.463810     -3.722675     -2.741135      0.000000
     2   0 1 1      0.000000     -0.000000      0.000000      0.000000
     2   0 0 2     -7.299767     -7.494343     -6.580628      6.775204


 Parallel integral file used      30 records with       0 large values


 Task  times  cpu:        2.2s     wall:        2.7s


                                NWChem Input Module
                                -------------------


 Summary of allocated global arrays
-----------------------------------
  No active global arrays



                         GA Statistics for process    0
                         ------------------------------

       create   destroy   get      put      acc     scatter   gather  read&inc
calls:  331      331     2338     1897      375        0        0       49     
number of processes/call 2.02e+00 1.29e+00 4.57e+00 0.00e+00 0.00e+00
bytes total:             2.63e+07 7.70e+06 1.12e+07 0.00e+00 0.00e+00 3.92e+02
bytes remote:            1.11e+07 1.49e+06 6.13e+06 0.00e+00 0.00e+00 0.00e+00
Max memory consumed for GA by this process: 1415736 bytes

MA_summarize_allocated_blocks: starting scan ...
MA_summarize_allocated_blocks: scan completed: 0 heap blocks, 0 stack blocks
MA usage statistics:

	allocation statistics:
					      heap	     stack
					      ----	     -----
	current number of blocks	         0	         0
	maximum number of blocks	        23	        51
	current total bytes		         0	         0
	maximum total bytes		   4515456	  22514408
	maximum total K-bytes		      4516	     22515
	maximum total M-bytes		         5	        23


                                     CITATION
                                     --------
                Please cite the following reference when publishing
                           results obtained with NWChem:

                 M. Valiev, E.J. Bylaska, N. Govind, K. Kowalski,
              T.P. Straatsma, H.J.J. van Dam, D. Wang, J. Nieplocha,
                        E. Apra, T.L. Windus, W.A. de Jong
                 "NWChem: a comprehensive and scalable open-source
                  solution for large scale molecular simulations"
                      Comput. Phys. Commun. 181, 1477 (2010)
                           doi:10.1016/j.cpc.2010.04.018

                                      AUTHORS
                                      -------
          E. Apra, E. J. Bylaska, W. A. de Jong, N. Govind, K. Kowalski,
       T. P. Straatsma, M. Valiev, H. J. J. van Dam, D. Wang, T. L. Windus,
        J. Hammond, J. Autschbach, K. Bhaskaran-Nair, J. Brabec, K. Lopata,
       S. A. Fischer, S. Krishnamoorthy, W. Ma, M. Klemm, O. Villa, Y. Chen,
    V. Anisimov, F. Aquino, S. Hirata, M. T. Hackler, T. Risthaus, M. Malagoli,
       A. Marenich, A. Otero-de-la-Roza, J. Mullin, P. Nichols, R. Peverati,
     J. Pittner, Y. Zhao, P.-D. Fan, A. Fonari, M. Williamson, R. J. Harrison,
       J. R. Rehr, M. Dupuis, D. Silverstein, D. M. A. Smith, J. Nieplocha,
        V. Tipparaju, M. Krishnan, B. E. Van Kuiken, A. Vazquez-Mayagoitia,
        L. Jensen, M. Swart, Q. Wu, T. Van Voorhis, A. A. Auer, M. Nooijen,
      L. D. Crosby, E. Brown, G. Cisneros, G. I. Fann, H. Fruchtl, J. Garza,
        K. Hirao, R. A. Kendall, J. A. Nichols, K. Tsemekhman, K. Wolinski,
     J. Anchell, D. E. Bernholdt, P. Borowski, T. Clark, D. Clerc, H. Dachsel,
   M. J. O. Deegan, K. Dyall, D. Elwood, E. Glendening, M. Gutowski, A. C. Hess,
         J. Jaffe, B. G. Johnson, J. Ju, R. Kobayashi, R. Kutteh, Z. Lin,
   R. Littlefield, X. Long, B. Meng, T. Nakajima, S. Niu, L. Pollack, M. Rosing,
   K. Glaesemann, G. Sandrone, M. Stave, H. Taylor, G. Thomas, J. H. van Lenthe,
                               A. T. Wong, Z. Zhang.

 Total times  cpu:        2.2s     wall:        2.9s
