[1537795814.625749] [r8n4:7387 :0]         sys.c:744  MXM  WARN  Conflicting CPU frequencies detected, using: 1943.68
[1537795814.635715] [r8n4:7391 :0]         sys.c:744  MXM  WARN  Conflicting CPU frequencies detected, using: 1896.51
[1537795814.635754] [r8n4:7393 :0]         sys.c:744  MXM  WARN  Conflicting CPU frequencies detected, using: 1896.51
[1537795814.635754] [r8n4:7390 :0]         sys.c:744  MXM  WARN  Conflicting CPU frequencies detected, using: 1896.51
[1537795814.635845] [r8n4:7392 :0]         sys.c:744  MXM  WARN  Conflicting CPU frequencies detected, using: 1896.51
[1537795814.635846] [r8n4:7389 :0]         sys.c:744  MXM  WARN  Conflicting CPU frequencies detected, using: 1896.51
[1537795814.636129] [r8n4:7388 :0]         sys.c:744  MXM  WARN  Conflicting CPU frequencies detected, using: 1896.51
[1537795814.637203] [r8n4:7395 :0]         sys.c:744  MXM  WARN  Conflicting CPU frequencies detected, using: 1896.51
[1537795814.644101] [r8n4:7397 :0]         sys.c:744  MXM  WARN  Conflicting CPU frequencies detected, using: 1995.61
[1537795814.644495] [r8n4:7399 :0]         sys.c:744  MXM  WARN  Conflicting CPU frequencies detected, using: 1995.61
[1537795814.677145] [r8n4:7401 :0]         sys.c:744  MXM  WARN  Conflicting CPU frequencies detected, using: 2292.81
[1537795814.677556] [r8n4:7403 :0]         sys.c:744  MXM  WARN  Conflicting CPU frequencies detected, using: 2292.81
[1537795814.677670] [r8n4:7405 :0]         sys.c:744  MXM  WARN  Conflicting CPU frequencies detected, using: 2292.81
[1537795814.677710] [r8n4:7407 :0]         sys.c:744  MXM  WARN  Conflicting CPU frequencies detected, using: 2292.81
[1537795814.688024] [r8n4:7409 :0]         sys.c:744  MXM  WARN  Conflicting CPU frequencies detected, using: 2300.00
[1537795814.688693] [r8n4:7411 :0]         sys.c:744  MXM  WARN  Conflicting CPU frequencies detected, using: 2300.00
 argument  1 = /storage/home/bikashp/nwchem_run/rabeet/ip13g2/nwip13g2/PH.nw
                                         
                                         


              Northwest Computational Chemistry Package (NWChem) 6.6
              ------------------------------------------------------


                    Environmental Molecular Sciences Laboratory
                       Pacific Northwest National Laboratory
                                Richland, WA 99352

                              Copyright (c) 1994-2015
                       Pacific Northwest National Laboratory
                            Battelle Memorial Institute

             NWChem is an open-source computational chemistry package
                        distributed under the terms of the
                      Educational Community License (ECL) 2.0
             A copy of the license is included with this distribution
                              in the LICENSE.TXT file

                                  ACKNOWLEDGMENT
                                  --------------

            This software and its documentation were developed at the
            EMSL at Pacific Northwest National Laboratory, a multiprogram
            national laboratory, operated for the U.S. Department of Energy
            by Battelle under Contract Number DE-AC05-76RL01830. Support
            for this work was provided by the Department of Energy Office
            of Biological and Environmental Research, Office of Basic
            Energy Sciences, and the Office of Advanced Scientific Computing.


           Job information
           ---------------

    hostname        = r8n4.niserhpc.org
    program         = /home/bikashp/Code/nwchem-6.6_tpssloc/bin/LINUX64/nwchem
    date            = Mon Sep 24 19:00:17 2018

    compiled        = Tue_Sep_18_16:24:59_2018
    source          = /home/bikashp/Code/nwchem-6.6_tpssloc
    nwchem branch   = 6.6
    nwchem revision = 27746
    ga revision     = 10594
    input           = /storage/home/bikashp/nwchem_run/rabeet/ip13g2/nwip13g2/PH.nw
    prefix          = PH.
    data base       = ./PH.db
    status          = startup
    nproc           =       16
    time left       =     -1s



           Memory information
           ------------------

    heap     =   13107196 doubles =    100.0 Mbytes
    stack    =   13107201 doubles =    100.0 Mbytes
    global   =   26214400 doubles =    200.0 Mbytes (distinct from heap & stack)
    total    =   52428797 doubles =    400.0 Mbytes
    verify   = yes
    hardfail = no 


           Directory information
           ---------------------

  0 permanent = .
  0 scratch   = .




                                NWChem Input Module
                                -------------------



 Scaling coordinates for geometry "geometry" by  1.889725989
 (inverse scale =  0.529177249)


          ------
          auto-z
          ------


                             Geometry "geometry" -> ""
                             -------------------------

 Output coordinates in angstroms (scale by  1.889725989 to convert to a.u.)

  No.       Tag          Charge          X              Y              Z
 ---- ---------------- ---------- -------------- -------------- --------------
    1 P                   15.0000     0.00000000     0.00000000    -0.08887625
    2 H                    1.0000     0.00000000     0.00000000     1.33314375

      Atomic Mass 
      ----------- 

      P                 30.973760
      H                  1.007825


 Effective nuclear repulsion energy (a.u.)       5.5819599830

            Nuclear Dipole moment (a.u.) 
            ----------------------------
        X                 Y               Z
 ---------------- ---------------- ----------------
     0.0000000000     0.0000000000     0.0000000000



                                Z-matrix (autoz)
                                -------- 

 Units are Angstrom for bonds and degrees for angles

      Type          Name      I     J     K     L     M      Value
      ----------- --------  ----- ----- ----- ----- ----- ----------
    1 Stretch                  1     2                       1.42202


            XYZ format geometry
            -------------------
     2
 geometry
 P                     0.00000000     0.00000000    -0.08887625
 H                     0.00000000     0.00000000     1.33314375

 ==============================================================================
                                internuclear distances
 ------------------------------------------------------------------------------
       center one      |      center two      | atomic units |  angstroms
 ------------------------------------------------------------------------------
    2 H                |   1 P                |     2.68723  |     1.42202
 ------------------------------------------------------------------------------
                         number of included internuclear distances:          1
 ==============================================================================





 Summary of "ao basis" -> "" (cartesian)
 ------------------------------------------------------------------------------
       Tag                 Description            Shells   Functions and Types
 ---------------- ------------------------------  ------  ---------------------
 *                     6-311++G(3df,3pd)              on all atoms 



                                 NWChem DFT Module
                                 -----------------


                      Basis "ao basis" -> "ao basis" (cartesian)
                      -----
  P (Phosphorous)
  ---------------
            Exponent  Coefficients 
       -------------- ---------------------------------------------------------
  1 S  7.74924000E+04  0.000781
  1 S  1.16058000E+04  0.006068
  1 S  2.64596000E+03  0.031160
  1 S  7.54976000E+02  0.123431
  1 S  2.48755000E+02  0.378209
  1 S  9.11565000E+01  0.563262

  2 S  9.11565000E+01  0.160255
  2 S  3.62257000E+01  0.627647
  2 S  1.52113000E+01  0.263849

  3 S  4.79417000E+00  1.000000

  4 S  1.80793000E+00  1.000000

  5 S  3.56816000E-01  1.000000

  6 S  1.14783000E-01  1.000000

  7 P  3.84843000E+02  0.009206
  7 P  9.05521000E+01  0.069874
  7 P  2.91339000E+01  0.292470
  7 P  1.08862000E+01  0.728103

  8 P  4.35259000E+00  0.628349
  8 P  1.77706000E+00  0.428044

  9 P  6.97005000E-01  1.000000

 10 P  2.53532000E-01  1.000000

 11 P  6.84930000E-02  1.000000

 12 S  3.48000000E-02  1.000000

 13 P  3.48000000E-02  1.000000

 14 D  2.20000000E+00  1.000000

 15 D  5.50000000E-01  1.000000

 16 D  1.37500000E-01  1.000000

 17 F  4.50000000E-01  1.000000

  H (Hydrogen)
  ------------
            Exponent  Coefficients 
       -------------- ---------------------------------------------------------
  1 S  3.38650000E+01  0.025494
  1 S  5.09479000E+00  0.190373
  1 S  1.15879000E+00  0.852161

  2 S  3.25840000E-01  1.000000

  3 S  1.02741000E-01  1.000000

  4 S  3.60000000E-02  1.000000

  5 P  3.00000000E+00  1.000000

  6 P  7.50000000E-01  1.000000

  7 P  1.87500000E-01  1.000000

  8 D  1.00000000E+00  1.000000



 Summary of "ao basis" -> "ao basis" (cartesian)
 ------------------------------------------------------------------------------
       Tag                 Description            Shells   Functions and Types
 ---------------- ------------------------------  ------  ---------------------
 P                     6-311++G(3df,3pd)            17       53   7s6p3d1f
 H                     6-311++G(3df,3pd)             8       19   4s3p1d




 Summary of "ao basis" -> "ao basis" (cartesian)
 ------------------------------------------------------------------------------
       Tag                 Description            Shells   Functions and Types
 ---------------- ------------------------------  ------  ---------------------
 P                     6-311++G(3df,3pd)            17       53   7s6p3d1f
 H                     6-311++G(3df,3pd)             8       19   4s3p1d


  Caching 1-el integrals 

            General Information
            -------------------
          SCF calculation type: DFT
          Wavefunction type:  spin polarized.
          No. of atoms     :     2
          No. of electrons :    16
           Alpha electrons :     9
            Beta electrons :     7
          Charge           :     0
          Spin multiplicity:     3
          Use of symmetry is: off; symmetry adaption is: off
          Maximum number of iterations: ***
          AO basis - number of functions:    72
                     number of shells:    25
          Convergence on energy requested: 1.00D-06
          Convergence on density requested: 1.00D-05
          Convergence on gradient requested: 5.00D-04

              XC Information
              --------------
                  TPSS metaGGA Exchange Functional  1.000          
             TPSS03 metaGGA Correlation Functional  1.000          

             Grid Information
             ----------------
          Grid used for XC integration:  medium    
          Radial quadrature: Mura-Knowles        
          Angular quadrature: Lebedev. 
          Tag              B.-S. Rad. Rad. Pts. Rad. Cut. Ang. Pts.
          ---              ---------- --------- --------- ---------
          P                   1.00       88          11.0       590
          H                   0.35       45          11.0       434
          Grid pruning is: on 
          Number of quadrature shells:   133
          Spatial weights used:  Erf1

          Convergence Information
          -----------------------
          Convergence aids based upon iterative change in 
          total energy or number of iterations. 
          Levelshifting, if invoked, occurs when the 
          HOMO/LUMO gap drops below (HL_TOL): 1.00D-02
          DIIS, if invoked, will attempt to extrapolate 
          using up to (NFOCK): 10 stored Fock matrices.

                    Damping( 0%)  Levelshifting(0.5)       DIIS
                  --------------- ------------------- ---------------
          dE  on:    start            ASAP                start   
          dE off:    2 iters        *** iters           *** iters 


      Screening Tolerance Information
      -------------------------------
          Density screening/tol_rho: 1.00D-10
          AO Gaussian exp screening on grid/accAOfunc:  14
          CD Gaussian exp screening on grid/accCDfunc:  20
          XC Gaussian exp screening on grid/accXCfunc:  20
          Schwarz screening/accCoul: 1.00D-08


      Superposition of Atomic Density Guess
      -------------------------------------

 Sum of atomic energies:        -341.15029377

      Non-variational initial energy
      ------------------------------

 Total energy =    -341.014341
 1-e energy   =    -482.781894
 2-e energy   =     136.185593
 HOMO         =      -0.183554
 LUMO         =      -0.183554

   Time after variat. SCF:      0.4
   Time prior to 1st pass:      0.4

 #quartets = 5.238D+04 #integrals = 8.429D+05 #direct =  0.0% #cached =100.0%


 Integral file          = ./PH.aoints.00
 Record size in doubles =    65536    No. of integs per rec  =    43688
 Max. records in memory =        8    Max. records in file   = 11667382
 No. of bits per label  =        8    No. of bits per value  =       64


File balance: exchanges=     0  moved=     0  time=   0.0


 Grid_pts file          = ./PH.gridpts.00
 Record size in doubles =  12289        No. of grid_pts per rec  =   3070
 Max. records in memory =      3        Max. recs in file   =  62220979


           Memory utilization after 1st SCF pass: 
           Heap Space remaining (MW):       12.54            12542724
          Stack Space remaining (MW):       13.11            13106492

   convergence    iter        energy       DeltaE   RMS-Dens  Diis-err    time
 ---------------- ----- ----------------- --------- --------- ---------  ------
 d= 0,ls=0.0,diis     1   -341.9266881693 -3.48D+02  1.80D-02  1.67D-01     0.8
                                                     1.46D-02  1.47D-01
 d= 0,ls=0.0,diis     2   -341.9383049712 -1.16D-02  3.08D-03  2.59D-03     0.9
                                                     1.87D-03  2.51D-03
 d= 0,ls=0.0,diis     3   -341.9353738738  2.93D-03  9.09D-04  1.42D-03     1.1
                                                     7.97D-04  9.39D-04
 d= 0,ls=0.0,diis     4   -341.9374116930 -2.04D-03  9.39D-05  3.52D-05     1.2
                                                     1.46D-04  3.98D-05
 d= 0,ls=0.0,diis     5   -341.9371698986  2.42D-04  6.54D-05  2.08D-06     1.3
                                                     5.82D-05  8.76D-07
  Resetting Diis
 d= 0,ls=0.0,diis     6   -341.9371724689 -2.57D-06  2.32D-05  8.62D-07     1.5
                                                     2.51D-05  8.65D-07
 d= 0,ls=0.0,diis     7   -341.9371807845 -8.32D-06  6.84D-06  1.97D-08     1.6
                                                     5.79D-06  1.11D-08
 d= 0,ls=0.0,diis     8   -341.9371760902  4.69D-06  1.88D-06  6.82D-09     1.8
                                                     2.68D-06  9.40D-09
 d= 0,ls=0.0,diis     9   -341.9371785298 -2.44D-06  1.58D-06  1.23D-09     1.9
                                                     5.70D-07  5.17D-10
 d= 0,ls=0.0,diis    10   -341.9371784751  5.47D-08  3.47D-07  1.43D-10     2.1
                                                     4.00D-07  1.35D-10


         Total DFT energy =     -341.937178475063
      One electron energy =     -482.748665722861
           Coulomb energy =      158.779659314801
          Exchange energy =      -22.942122433219
       Correlation energy =       -0.608009616762
 Nuclear repulsion energy =        5.581959982979

 Numeric. integr. density =       15.999997345358

     Total iterative time =      1.7s



                    DFT Final Alpha Molecular Orbital Analysis
                    ------------------------------------------

 Vector    1  Occ=1.000000D+00  E=-7.668889D+01
              MO Center= -2.6D-17, -2.0D-18, -8.9D-02, r^2= 4.1D-03
   Bfn.  Coefficient  Atom+Function         Bfn.  Coefficient  Atom+Function  
  ----- ------------  ---------------      ----- ------------  ---------------
     2      0.645162  1 P  s                  1      0.419467  1 P  s          

 Vector    2  Occ=1.000000D+00  E=-6.476859D+00
              MO Center=  2.1D-15,  3.9D-16, -8.7D-02, r^2= 9.1D-02
   Bfn.  Coefficient  Atom+Function         Bfn.  Coefficient  Atom+Function  
  ----- ------------  ---------------      ----- ------------  ---------------
     4      0.608686  1 P  s                  3      0.492397  1 P  s          
     2     -0.310511  1 P  s          

 Vector    3  Occ=1.000000D+00  E=-4.660572D+00
              MO Center= -7.8D-16,  2.5D-18, -8.9D-02, r^2= 8.3D-02
   Bfn.  Coefficient  Atom+Function         Bfn.  Coefficient  Atom+Function  
  ----- ------------  ---------------      ----- ------------  ---------------
    10      0.678720  1 P  px                 7      0.404851  1 P  px         

 Vector    4  Occ=1.000000D+00  E=-4.660572D+00
              MO Center=  1.7D-16, -2.8D-16, -8.9D-02, r^2= 8.3D-02
   Bfn.  Coefficient  Atom+Function         Bfn.  Coefficient  Atom+Function  
  ----- ------------  ---------------      ----- ------------  ---------------
    11      0.678720  1 P  py                 8      0.404851  1 P  py         

 Vector    5  Occ=1.000000D+00  E=-4.653708D+00
              MO Center= -2.3D-16,  6.7D-16, -9.0D-02, r^2= 8.3D-02
   Bfn.  Coefficient  Atom+Function         Bfn.  Coefficient  Atom+Function  
  ----- ------------  ---------------      ----- ------------  ---------------
    12      0.681200  1 P  pz                 9      0.406284  1 P  pz         

 Vector    6  Occ=1.000000D+00  E=-6.224368D-01
              MO Center= -6.0D-15, -5.4D-15,  2.7D-01, r^2= 1.2D+00
   Bfn.  Coefficient  Atom+Function         Bfn.  Coefficient  Atom+Function  
  ----- ------------  ---------------      ----- ------------  ---------------
     6      0.789101  1 P  s                  5      0.585462  1 P  s          
     4     -0.353772  1 P  s                  3     -0.209200  1 P  s          

 Vector    7  Occ=1.000000D+00  E=-3.621696D-01
              MO Center= -3.9D-15, -5.6D-15,  1.7D-01, r^2= 1.9D+00
   Bfn.  Coefficient  Atom+Function         Bfn.  Coefficient  Atom+Function  
  ----- ------------  ---------------      ----- ------------  ---------------
    18      0.717387  1 P  pz                 6     -0.474525  1 P  s          
    55      0.279917  2 H  s                  5     -0.247551  1 P  s          
    21      0.166615  1 P  pz                46     -0.154841  1 P  fxxz       
    51     -0.154841  1 P  fyyz              53     -0.153609  1 P  fzzz       

 Vector    8  Occ=1.000000D+00  E=-2.828079D-01
              MO Center= -4.4D-15, -5.6D-16, -1.9D-02, r^2= 1.8D+00
   Bfn.  Coefficient  Atom+Function         Bfn.  Coefficient  Atom+Function  
  ----- ------------  ---------------      ----- ------------  ---------------
    17      1.072920  1 P  py                20      0.278743  1 P  py         
    52     -0.226115  1 P  fyzz              45     -0.209172  1 P  fxxy       
    50     -0.209175  1 P  fyyy              11     -0.181972  1 P  py         

 Vector    9  Occ=1.000000D+00  E=-2.828079D-01
              MO Center=  5.8D-15, -5.0D-15, -1.9D-02, r^2= 1.8D+00
   Bfn.  Coefficient  Atom+Function         Bfn.  Coefficient  Atom+Function  
  ----- ------------  ---------------      ----- ------------  ---------------
    16      1.072920  1 P  px                19      0.278743  1 P  px         
    49     -0.226115  1 P  fxzz              44     -0.209175  1 P  fxxx       
    47     -0.209172  1 P  fxyy              10     -0.181972  1 P  px         

 Vector   10  Occ=0.000000D+00  E=-5.018590D-02
              MO Center= -5.9D-15, -3.0D-15,  2.8D-01, r^2= 4.9D+00
   Bfn.  Coefficient  Atom+Function         Bfn.  Coefficient  Atom+Function  
  ----- ------------  ---------------      ----- ------------  ---------------
    57      1.267116  2 H  s                 18     -0.901576  1 P  pz         
    22     -0.723512  1 P  s                  6     -0.570489  1 P  s          
    56      0.526451  2 H  s                 25     -0.478317  1 P  pz         
    21     -0.364019  1 P  pz                55      0.336460  2 H  s          
    43      0.229069  1 P  dzz               53      0.229787  1 P  fzzz       

 Vector   11  Occ=0.000000D+00  E=-2.004526D-03
              MO Center=  8.0D-15,  2.3D-14,  4.6D-01, r^2= 7.9D+00
   Bfn.  Coefficient  Atom+Function         Bfn.  Coefficient  Atom+Function  
  ----- ------------  ---------------      ----- ------------  ---------------
    22      1.673635  1 P  s                 56     -1.166369  2 H  s          
    18      0.817377  1 P  pz                21      0.600981  1 P  pz         
     6      0.417145  1 P  s                  5     -0.276375  1 P  s          
    53     -0.250144  1 P  fzzz              25      0.241963  1 P  pz         
    46     -0.230859  1 P  fxxz              51     -0.230859  1 P  fyyz       

 Vector   12  Occ=0.000000D+00  E= 3.351153D-02
              MO Center= -1.9D-14,  7.3D-14, -4.4D-01, r^2= 1.3D+01
   Bfn.  Coefficient  Atom+Function         Bfn.  Coefficient  Atom+Function  
  ----- ------------  ---------------      ----- ------------  ---------------
    25      1.217888  1 P  pz                22     -1.030399  1 P  s          
    21     -0.872573  1 P  pz                57      0.611820  2 H  s          
    56      0.300587  2 H  s                 15     -0.151690  1 P  pz         

 Vector   13  Occ=0.000000D+00  E= 3.684988D-02
              MO Center=  1.6D-14, -9.6D-14, -7.2D-02, r^2= 1.4D+01
   Bfn.  Coefficient  Atom+Function         Bfn.  Coefficient  Atom+Function  
  ----- ------------  ---------------      ----- ------------  ---------------
    24      1.579367  1 P  py                20     -0.822539  1 P  py         
    23     -0.225369  1 P  px                14     -0.180999  1 P  py         

 Vector   14  Occ=0.000000D+00  E= 3.684988D-02
              MO Center= -5.5D-15, -2.7D-15, -7.2D-02, r^2= 1.4D+01
   Bfn.  Coefficient  Atom+Function         Bfn.  Coefficient  Atom+Function  
  ----- ------------  ---------------      ----- ------------  ---------------
    23      1.579367  1 P  px                19     -0.822539  1 P  px         
    24      0.225369  1 P  py                13     -0.180999  1 P  px         

 Vector   15  Occ=0.000000D+00  E= 7.491472D-02
              MO Center=  3.5D-15, -4.2D-15,  4.9D-02, r^2= 3.1D+00
   Bfn.  Coefficient  Atom+Function         Bfn.  Coefficient  Atom+Function  
  ----- ------------  ---------------      ----- ------------  ---------------
    42      1.177251  1 P  dyz               40     -0.550338  1 P  dxz        
    36      0.281561  1 P  dyz               17     -0.196165  1 P  py         
    65      0.190777  2 H  py         

 Vector   16  Occ=0.000000D+00  E= 7.491472D-02
              MO Center=  2.7D-15,  4.1D-16,  4.9D-02, r^2= 3.1D+00
   Bfn.  Coefficient  Atom+Function         Bfn.  Coefficient  Atom+Function  
  ----- ------------  ---------------      ----- ------------  ---------------
    40      1.177251  1 P  dxz               42      0.550338  1 P  dyz        
    34      0.281561  1 P  dxz               16     -0.196165  1 P  px         
    64      0.190777  2 H  px         

 Vector   17  Occ=0.000000D+00  E= 8.822902D-02
              MO Center= -1.7D-15,  8.6D-15, -7.8D-02, r^2= 3.0D+00
   Bfn.  Coefficient  Atom+Function         Bfn.  Coefficient  Atom+Function  
  ----- ------------  ---------------      ----- ------------  ---------------
    39      1.523941  1 P  dxy               33      0.350201  1 P  dxy        

 Vector   18  Occ=0.000000D+00  E= 8.823265D-02
              MO Center= -1.3D-15,  2.0D-15, -7.8D-02, r^2= 3.0D+00
   Bfn.  Coefficient  Atom+Function         Bfn.  Coefficient  Atom+Function  
  ----- ------------  ---------------      ----- ------------  ---------------
    38      0.761969  1 P  dxx               41     -0.761969  1 P  dyy        
    32      0.175103  1 P  dxx               35     -0.175103  1 P  dyy        

 Vector   19  Occ=0.000000D+00  E= 8.977762D-02
              MO Center=  2.2D-15,  2.4D-15,  5.7D-01, r^2= 1.7D+01
   Bfn.  Coefficient  Atom+Function         Bfn.  Coefficient  Atom+Function  
  ----- ------------  ---------------      ----- ------------  ---------------
    57      8.305023  2 H  s                 22     -7.339447  1 P  s          
    25     -4.245823  1 P  pz                56     -2.360021  2 H  s          
    21      1.689331  1 P  pz                 6      1.293628  1 P  s          
    18      0.845270  1 P  pz                43      0.443749  1 P  dzz        
    66      0.305744  2 H  pz                 5      0.254900  1 P  s          

 Vector   20  Occ=0.000000D+00  E= 2.001044D-01
              MO Center= -2.7D-14, -9.2D-15,  8.7D-01, r^2= 8.0D+00
   Bfn.  Coefficient  Atom+Function         Bfn.  Coefficient  Atom+Function  
  ----- ------------  ---------------      ----- ------------  ---------------
    56      3.325130  2 H  s                 22     -2.540026  1 P  s          
     6     -2.278033  1 P  s                 18     -2.031733  1 P  pz         
    25     -1.265751  1 P  pz                38      1.092893  1 P  dxx        
    41      1.092893  1 P  dyy               57      0.754049  2 H  s          
    46      0.619257  1 P  fxxz              51      0.619257  1 P  fyyz       

 Vector   21  Occ=0.000000D+00  E= 2.322827D-01
              MO Center= -6.0D-14, -2.2D-14, -1.1D+00, r^2= 8.7D+00
   Bfn.  Coefficient  Atom+Function         Bfn.  Coefficient  Atom+Function  
  ----- ------------  ---------------      ----- ------------  ---------------
    21      4.318002  1 P  pz                56     -3.658056  2 H  s          
     6      2.908324  1 P  s                 25     -2.077516  1 P  pz         
    66      0.850219  2 H  pz                38     -0.804533  1 P  dxx        
    41     -0.804533  1 P  dyy               57      0.718709  2 H  s          
    22      0.611419  1 P  s                 18     -0.480798  1 P  pz         

 Vector   22  Occ=0.000000D+00  E= 2.416407D-01
              MO Center= -1.9D-15,  3.4D-14, -8.8D-02, r^2= 9.7D+00
   Bfn.  Coefficient  Atom+Function         Bfn.  Coefficient  Atom+Function  
  ----- ------------  ---------------      ----- ------------  ---------------
    20      2.917974  1 P  py                17     -2.650749  1 P  py         
    24     -1.849282  1 P  py                52      0.761470  1 P  fyzz       
    45      0.747124  1 P  fxxy              50      0.747120  1 P  fyyy       
    14      0.309507  1 P  py                19     -0.197063  1 P  px         
    16      0.179017  1 P  px         

 Vector   23  Occ=0.000000D+00  E= 2.416407D-01
              MO Center=  1.1D-13,  9.7D-15, -8.8D-02, r^2= 9.7D+00
   Bfn.  Coefficient  Atom+Function         Bfn.  Coefficient  Atom+Function  
  ----- ------------  ---------------      ----- ------------  ---------------
    19      2.917974  1 P  px                16     -2.650749  1 P  px         
    23     -1.849282  1 P  px                49      0.761470  1 P  fxzz       
    44      0.747120  1 P  fxxx              47      0.747124  1 P  fxyy       
    13      0.309507  1 P  px                20      0.197063  1 P  py         
    17     -0.179017  1 P  py         

 Vector   24  Occ=0.000000D+00  E= 3.336014D-01
              MO Center= -3.0D-15, -5.7D-15,  3.2D-01, r^2= 7.1D+00
   Bfn.  Coefficient  Atom+Function         Bfn.  Coefficient  Atom+Function  
  ----- ------------  ---------------      ----- ------------  ---------------
    56      5.716878  2 H  s                 57     -4.502762  2 H  s          
    22      4.452122  1 P  s                 21     -4.088619  1 P  pz         
    43     -3.399189  1 P  dzz               25      2.742163  1 P  pz         
    18     -1.327629  1 P  pz                38     -1.129420  1 P  dxx        
    41     -1.129420  1 P  dyy               55      0.656842  2 H  s          

 Vector   25  Occ=0.000000D+00  E= 3.902939D-01
              MO Center=  6.6D-15,  4.5D-14,  9.1D-01, r^2= 3.8D+00
   Bfn.  Coefficient  Atom+Function         Bfn.  Coefficient  Atom+Function  
  ----- ------------  ---------------      ----- ------------  ---------------
    42      2.067218  1 P  dyz               65     -1.810349  2 H  py         
    20      0.953295  1 P  py                17      0.793825  1 P  py         
    40      0.357790  1 P  dxz               64     -0.313331  2 H  px         
    24     -0.292154  1 P  py                52     -0.289930  1 P  fyzz       
    45     -0.219516  1 P  fxxy              50     -0.219526  1 P  fyyy       

 Vector   26  Occ=0.000000D+00  E= 3.902939D-01
              MO Center= -4.2D-14,  7.3D-15,  9.1D-01, r^2= 3.8D+00
   Bfn.  Coefficient  Atom+Function         Bfn.  Coefficient  Atom+Function  
  ----- ------------  ---------------      ----- ------------  ---------------
    40      2.067218  1 P  dxz               64     -1.810349  2 H  px         
    19      0.953295  1 P  px                16      0.793825  1 P  px         
    42     -0.357790  1 P  dyz               65      0.313331  2 H  py         
    23     -0.292154  1 P  px                49     -0.289930  1 P  fxzz       
    44     -0.219526  1 P  fxxx              47     -0.219516  1 P  fxyy       

 Vector   27  Occ=0.000000D+00  E= 4.002653D-01
              MO Center=  2.2D-14, -5.6D-14,  9.4D-01, r^2= 6.2D+00
   Bfn.  Coefficient  Atom+Function         Bfn.  Coefficient  Atom+Function  
  ----- ------------  ---------------      ----- ------------  ---------------
    56      6.083488  2 H  s                 57     -4.461364  2 H  s          
    22      3.615441  1 P  s                  6     -2.398638  1 P  s          
    21     -2.301355  1 P  pz                25      2.052334  1 P  pz         
    55     -1.900270  2 H  s                 66     -1.359786  2 H  pz         
    18     -1.231708  1 P  pz                38     -0.779086  1 P  dxx        

 Vector   28  Occ=0.000000D+00  E= 6.512767D-01
              MO Center=  5.0D-15, -2.7D-14,  3.5D-01, r^2= 5.9D+00
   Bfn.  Coefficient  Atom+Function         Bfn.  Coefficient  Atom+Function  
  ----- ------------  ---------------      ----- ------------  ---------------
    56    -11.009427  2 H  s                  6     10.589697  1 P  s          
    18      8.978212  1 P  pz                21      4.457271  1 P  pz         
    66      4.322766  2 H  pz                43      2.779311  1 P  dzz        
    46     -2.522888  1 P  fxxz              51     -2.522888  1 P  fyyz       
    53     -2.397115  1 P  fzzz              55     -2.241218  2 H  s          


                     DFT Final Beta Molecular Orbital Analysis
                     -----------------------------------------

 Vector    1  Occ=1.000000D+00  E=-7.668056D+01
              MO Center= -5.8D-18,  5.3D-18, -8.9D-02, r^2= 4.1D-03
   Bfn.  Coefficient  Atom+Function         Bfn.  Coefficient  Atom+Function  
  ----- ------------  ---------------      ----- ------------  ---------------
     2      0.645184  1 P  s                  1      0.419492  1 P  s          

 Vector    2  Occ=1.000000D+00  E=-6.469723D+00
              MO Center=  6.8D-16,  7.0D-16, -8.7D-02, r^2= 9.1D-02
   Bfn.  Coefficient  Atom+Function         Bfn.  Coefficient  Atom+Function  
  ----- ------------  ---------------      ----- ------------  ---------------
     4      0.612574  1 P  s                  3      0.491192  1 P  s          
     2     -0.310333  1 P  s          

 Vector    3  Occ=1.000000D+00  E=-4.649506D+00
              MO Center= -6.3D-15,  2.3D-15, -9.0D-02, r^2= 8.3D-02
   Bfn.  Coefficient  Atom+Function         Bfn.  Coefficient  Atom+Function  
  ----- ------------  ---------------      ----- ------------  ---------------
    12      0.682038  1 P  pz                 9      0.406091  1 P  pz         

 Vector    4  Occ=1.000000D+00  E=-4.647162D+00
              MO Center=  9.6D-16,  1.5D-15, -8.9D-02, r^2= 8.3D-02
   Bfn.  Coefficient  Atom+Function         Bfn.  Coefficient  Atom+Function  
  ----- ------------  ---------------      ----- ------------  ---------------
    11      0.538289  1 P  py                10      0.420274  1 P  px         
     8      0.319864  1 P  py                 7      0.249737  1 P  px         

 Vector    5  Occ=1.000000D+00  E=-4.647162D+00
              MO Center=  4.9D-15, -4.1D-15, -8.9D-02, r^2= 8.3D-02
   Bfn.  Coefficient  Atom+Function         Bfn.  Coefficient  Atom+Function  
  ----- ------------  ---------------      ----- ------------  ---------------
    10      0.538289  1 P  px                11     -0.420274  1 P  py         
     7      0.319864  1 P  px                 8     -0.249737  1 P  py         

 Vector    6  Occ=1.000000D+00  E=-5.709467D-01
              MO Center= -2.8D-15, -2.8D-16,  3.9D-01, r^2= 1.3D+00
   Bfn.  Coefficient  Atom+Function         Bfn.  Coefficient  Atom+Function  
  ----- ------------  ---------------      ----- ------------  ---------------
     6      0.818414  1 P  s                  5      0.509227  1 P  s          
     4     -0.352290  1 P  s                  3     -0.187064  1 P  s          
    55      0.169623  2 H  s                 18      0.154590  1 P  pz         

 Vector    7  Occ=1.000000D+00  E=-3.486971D-01
              MO Center= -7.9D-15, -1.2D-15, -9.5D-04, r^2= 2.0D+00
   Bfn.  Coefficient  Atom+Function         Bfn.  Coefficient  Atom+Function  
  ----- ------------  ---------------      ----- ------------  ---------------
    18      0.799309  1 P  pz                 6     -0.574180  1 P  s          
    55      0.267041  2 H  s                  5     -0.237815  1 P  s          
    46     -0.208586  1 P  fxxz              51     -0.208586  1 P  fyyz       
    53     -0.175821  1 P  fzzz               4      0.174487  1 P  s          
    21      0.160049  1 P  pz         

 Vector    8  Occ=0.000000D+00  E=-2.188608D-01
              MO Center= -4.0D-16,  1.5D-15, -2.3D-02, r^2= 2.1D+00
   Bfn.  Coefficient  Atom+Function         Bfn.  Coefficient  Atom+Function  
  ----- ------------  ---------------      ----- ------------  ---------------
    17      1.219590  1 P  py                16     -0.363898  1 P  px         
    45     -0.317404  1 P  fxxy              50     -0.317408  1 P  fyyy       
    52     -0.297939  1 P  fyzz              20      0.295310  1 P  py         
    11     -0.154664  1 P  py         

 Vector    9  Occ=0.000000D+00  E=-2.188608D-01
              MO Center=  7.5D-15,  5.9D-16, -2.3D-02, r^2= 2.1D+00
   Bfn.  Coefficient  Atom+Function         Bfn.  Coefficient  Atom+Function  
  ----- ------------  ---------------      ----- ------------  ---------------
    16      1.219590  1 P  px                17      0.363898  1 P  py         
    44     -0.317408  1 P  fxxx              47     -0.317404  1 P  fxyy       
    49     -0.297939  1 P  fxzz              19      0.295310  1 P  px         
    10     -0.154664  1 P  px         

 Vector   10  Occ=0.000000D+00  E=-3.251488D-02
              MO Center= -1.6D-15, -2.4D-16,  4.1D-01, r^2= 5.3D+00
   Bfn.  Coefficient  Atom+Function         Bfn.  Coefficient  Atom+Function  
  ----- ------------  ---------------      ----- ------------  ---------------
    57      1.738865  2 H  s                 22     -1.185229  1 P  s          
    18     -0.855870  1 P  pz                25     -0.684302  1 P  pz         
     6     -0.609543  1 P  s                 56      0.459424  2 H  s          
    21     -0.317539  1 P  pz                55      0.298120  2 H  s          
    43      0.284149  1 P  dzz               53      0.212129  1 P  fzzz       

 Vector   11  Occ=0.000000D+00  E= 1.247492D-02
              MO Center= -1.7D-14,  2.0D-15,  5.7D-01, r^2= 7.8D+00
   Bfn.  Coefficient  Atom+Function         Bfn.  Coefficient  Atom+Function  
  ----- ------------  ---------------      ----- ------------  ---------------
    22      1.118509  1 P  s                 56     -1.052471  2 H  s          
    18      0.808803  1 P  pz                21      0.532001  1 P  pz         
     6      0.459987  1 P  s                 57      0.384291  2 H  s          
     5     -0.252898  1 P  s                 53     -0.244976  1 P  fzzz       
    46     -0.243263  1 P  fxxz              51     -0.243263  1 P  fyyz       

 Vector   12  Occ=0.000000D+00  E= 4.046178D-02
              MO Center= -1.8D-14, -1.7D-15, -7.4D-01, r^2= 1.3D+01
   Bfn.  Coefficient  Atom+Function         Bfn.  Coefficient  Atom+Function  
  ----- ------------  ---------------      ----- ------------  ---------------
    25      1.410954  1 P  pz                21     -1.014499  1 P  pz         
    22     -0.796446  1 P  s                 56      0.473957  2 H  s          
    57      0.262507  2 H  s          

 Vector   13  Occ=0.000000D+00  E= 5.761254D-02
              MO Center=  1.7D-14, -1.8D-14, -6.1D-02, r^2= 1.4D+01
   Bfn.  Coefficient  Atom+Function         Bfn.  Coefficient  Atom+Function  
  ----- ------------  ---------------      ----- ------------  ---------------
    23      1.259991  1 P  px                24     -1.155818  1 P  py         
    19     -0.761440  1 P  px                20      0.698486  1 P  py         

 Vector   14  Occ=0.000000D+00  E= 5.761254D-02
              MO Center=  1.0D-14,  9.9D-15, -6.1D-02, r^2= 1.4D+01
   Bfn.  Coefficient  Atom+Function         Bfn.  Coefficient  Atom+Function  
  ----- ------------  ---------------      ----- ------------  ---------------
    24      1.259991  1 P  py                23      1.155818  1 P  px         
    20     -0.761440  1 P  py                19     -0.698486  1 P  px         

 Vector   15  Occ=0.000000D+00  E= 8.706916D-02
              MO Center= -2.9D-15,  1.9D-16,  7.3D-02, r^2= 3.3D+00
   Bfn.  Coefficient  Atom+Function         Bfn.  Coefficient  Atom+Function  
  ----- ------------  ---------------      ----- ------------  ---------------
    42      1.181744  1 P  dyz               40     -0.545229  1 P  dxz        
    17     -0.228893  1 P  py                65      0.223342  2 H  py         
    36      0.219255  1 P  dyz        

 Vector   16  Occ=0.000000D+00  E= 8.706916D-02
              MO Center= -2.1D-15, -2.1D-15,  7.3D-02, r^2= 3.3D+00
   Bfn.  Coefficient  Atom+Function         Bfn.  Coefficient  Atom+Function  
  ----- ------------  ---------------      ----- ------------  ---------------
    40      1.181744  1 P  dxz               42      0.545229  1 P  dyz        
    16     -0.228893  1 P  px                64      0.223342  2 H  px         
    34      0.219255  1 P  dxz        

 Vector   17  Occ=0.000000D+00  E= 9.969150D-02
              MO Center=  7.7D-15, -1.7D-15,  6.7D-01, r^2= 1.6D+01
   Bfn.  Coefficient  Atom+Function         Bfn.  Coefficient  Atom+Function  
  ----- ------------  ---------------      ----- ------------  ---------------
    57      8.374300  2 H  s                 22     -7.496773  1 P  s          
    25     -4.257186  1 P  pz                56     -2.593754  2 H  s          
    21      1.791682  1 P  pz                 6      1.440821  1 P  s          
    18      0.931302  1 P  pz                43      0.487476  1 P  dzz        
    66      0.322295  2 H  pz                 5      0.278296  1 P  s          

 Vector   18  Occ=0.000000D+00  E= 1.174790D-01
              MO Center=  6.2D-15,  3.8D-15, -8.2D-02, r^2= 3.2D+00
   Bfn.  Coefficient  Atom+Function         Bfn.  Coefficient  Atom+Function  
  ----- ------------  ---------------      ----- ------------  ---------------
    39      1.597227  1 P  dxy               33      0.233411  1 P  dxy        

 Vector   19  Occ=0.000000D+00  E= 1.174824D-01
              MO Center=  2.4D-16, -1.1D-15, -8.2D-02, r^2= 3.2D+00
   Bfn.  Coefficient  Atom+Function         Bfn.  Coefficient  Atom+Function  
  ----- ------------  ---------------      ----- ------------  ---------------
    38      0.798612  1 P  dxx               41     -0.798612  1 P  dyy        

 Vector   20  Occ=0.000000D+00  E= 2.099320D-01
              MO Center= -1.5D-15, -2.3D-14,  9.1D-01, r^2= 8.3D+00
   Bfn.  Coefficient  Atom+Function         Bfn.  Coefficient  Atom+Function  
  ----- ------------  ---------------      ----- ------------  ---------------
    56      3.436332  2 H  s                 22     -2.627302  1 P  s          
     6     -2.182029  1 P  s                 18     -2.088257  1 P  pz         
    25     -1.274211  1 P  pz                38      1.054568  1 P  dxx        
    41      1.054568  1 P  dyy               57      0.790252  2 H  s          
    46      0.641183  1 P  fxxz              51      0.641183  1 P  fyyz       

 Vector   21  Occ=0.000000D+00  E= 2.399211D-01
              MO Center= -2.3D-14,  4.1D-15, -1.1D+00, r^2= 8.7D+00
   Bfn.  Coefficient  Atom+Function         Bfn.  Coefficient  Atom+Function  
  ----- ------------  ---------------      ----- ------------  ---------------
    21      4.351444  1 P  pz                56     -3.633013  2 H  s          
     6      2.789618  1 P  s                 25     -2.064075  1 P  pz         
    66      0.819910  2 H  pz                38     -0.761043  1 P  dxx        
    41     -0.761043  1 P  dyy               57      0.693929  2 H  s          
    22      0.611318  1 P  s                 18     -0.536108  1 P  pz         

 Vector   22  Occ=0.000000D+00  E= 2.716822D-01
              MO Center=  2.3D-14,  1.1D-14, -1.0D-01, r^2= 9.0D+00
   Bfn.  Coefficient  Atom+Function         Bfn.  Coefficient  Atom+Function  
  ----- ------------  ---------------      ----- ------------  ---------------
    16      2.655552  1 P  px                19     -2.605071  1 P  px         
    23      1.590648  1 P  px                17      1.282195  1 P  py         
    20     -1.257821  1 P  py                44     -0.772531  1 P  fxxx       
    47     -0.772535  1 P  fxyy              24      0.768022  1 P  py         
    49     -0.754689  1 P  fxzz              45     -0.373007  1 P  fxxy       

 Vector   23  Occ=0.000000D+00  E= 2.716822D-01
              MO Center= -2.3D-15,  7.1D-15, -1.0D-01, r^2= 9.0D+00
   Bfn.  Coefficient  Atom+Function         Bfn.  Coefficient  Atom+Function  
  ----- ------------  ---------------      ----- ------------  ---------------
    17      2.655552  1 P  py                20     -2.605071  1 P  py         
    24      1.590648  1 P  py                16     -1.282195  1 P  px         
    19      1.257821  1 P  px                45     -0.772535  1 P  fxxy       
    50     -0.772531  1 P  fyyy              23     -0.768022  1 P  px         
    52     -0.754689  1 P  fyzz              44      0.373006  1 P  fxxx       

 Vector   24  Occ=0.000000D+00  E= 3.458753D-01
              MO Center=  7.0D-15, -4.1D-15,  3.0D-01, r^2= 6.6D+00
   Bfn.  Coefficient  Atom+Function         Bfn.  Coefficient  Atom+Function  
  ----- ------------  ---------------      ----- ------------  ---------------
    56      5.186386  2 H  s                 22      4.093269  1 P  s          
    57     -4.040649  2 H  s                 21     -3.762702  1 P  pz         
    43     -3.401187  1 P  dzz               25      2.462106  1 P  pz         
    18     -1.428734  1 P  pz                38     -1.088835  1 P  dxx        
    41     -1.088835  1 P  dyy               55      0.778840  2 H  s          

 Vector   25  Occ=0.000000D+00  E= 3.913237D-01
              MO Center= -2.3D-14,  8.4D-15,  8.8D-01, r^2= 3.9D+00
   Bfn.  Coefficient  Atom+Function         Bfn.  Coefficient  Atom+Function  
  ----- ------------  ---------------      ----- ------------  ---------------
    40      2.004941  1 P  dxz               64     -1.721237  2 H  px         
    16      0.904852  1 P  px                19      0.881273  1 P  px         
    42     -0.752184  1 P  dyz               65      0.645748  2 H  py         
    17     -0.339469  1 P  py                49     -0.334898  1 P  fxzz       
    20     -0.330623  1 P  py                44     -0.272982  1 P  fxxx       

 Vector   26  Occ=0.000000D+00  E= 3.913237D-01
              MO Center= -1.3D-14, -3.3D-14,  8.8D-01, r^2= 3.9D+00
   Bfn.  Coefficient  Atom+Function         Bfn.  Coefficient  Atom+Function  
  ----- ------------  ---------------      ----- ------------  ---------------
    42      2.004941  1 P  dyz               65     -1.721237  2 H  py         
    17      0.904852  1 P  py                20      0.881273  1 P  py         
    40      0.752184  1 P  dxz               64     -0.645748  2 H  px         
    16      0.339469  1 P  px                52     -0.334898  1 P  fyzz       
    19      0.330623  1 P  px                45     -0.272972  1 P  fxxy       

 Vector   27  Occ=0.000000D+00  E= 4.121707D-01
              MO Center=  2.8D-14,  2.5D-14,  9.0D-01, r^2= 6.4D+00
   Bfn.  Coefficient  Atom+Function         Bfn.  Coefficient  Atom+Function  
  ----- ------------  ---------------      ----- ------------  ---------------
    56      6.714999  2 H  s                 57     -4.693269  2 H  s          
    22      3.827533  1 P  s                 21     -2.779639  1 P  pz         
     6     -2.636290  1 P  s                 25      2.267279  1 P  pz         
    55     -1.799923  2 H  s                 66     -1.497109  2 H  pz         
    18     -1.270414  1 P  pz                38     -0.836924  1 P  dxx        

 Vector   28  Occ=0.000000D+00  E= 6.629225D-01
              MO Center= -7.4D-15, -1.8D-14,  3.8D-01, r^2= 5.9D+00
   Bfn.  Coefficient  Atom+Function         Bfn.  Coefficient  Atom+Function  
  ----- ------------  ---------------      ----- ------------  ---------------
    56    -10.970777  2 H  s                  6     10.884946  1 P  s          
    18      9.069205  1 P  pz                21      4.442698  1 P  pz         
    66      4.398993  2 H  pz                43      2.690176  1 P  dzz        
    46     -2.544956  1 P  fxxz              51     -2.544956  1 P  fyyz       
    53     -2.385464  1 P  fzzz              55     -2.359515  2 H  s          


   alpha - beta orbital overlaps 
   ----------------------------- 


   alpha      1      2      3      4      5      6      7      8      9     10
    beta      1      2      5      4      3      6      7      8      9     10
 overlap   1.000  1.000  0.731  0.731  1.000  0.994  0.996  0.911  0.911  0.993


   alpha     11     12     13     14     15     16     17     18     19     20
    beta     11     12     13     14     15     16     18     19     17     20
 overlap   0.996  0.998  0.770  0.770  0.999  0.999  0.998  0.998  0.994  0.999


   alpha     21     22     23     24     25     26     27     28     29     30
    beta     21     23     22     24     26     25     27     28     30     31
 overlap   0.999  0.924  0.924  0.995  0.982  0.982  0.995  0.998  0.952  0.952


   alpha     31     32     33     34     35     36     37     38     39     40
    beta     32     33     29     35     34     36     37     38     39     40
 overlap   0.998  0.998  0.994  0.987  0.987  0.988  0.991  1.000  1.000  0.709


   alpha     41     42     43     44     45     46     47     48     49     50
    beta     41     43     42     44     45     46     47     48     49     50
 overlap   0.709  0.822  0.822  0.999  0.999  0.931  0.931  0.999  1.000  1.000


   alpha     51     52     53     54     55     56     57     58     59     60
    beta     51     52     53     54     56     55     57     58     59     61
 overlap   1.000  1.000  1.000  1.000  0.854  0.854  1.000  1.000  0.996  0.905


   alpha     61     62     63     64     65     66     67     68     69     70
    beta     60     62     63     64     65     66     67     68     69     70
 overlap   0.905  0.996  0.997  0.998  0.862  0.862  0.997  0.962  0.962  1.000


   alpha     71     72
    beta     71     72
 overlap   1.000  1.000

     --------------------------
     Expectation value of S2:  
     --------------------------
      <S2> =      2.0085 (Exact =     2.0000)


 center of mass
 --------------
 x =   0.00000000 y =   0.00000000 z =  -0.08327004

 moments of inertia (a.u.)
 ------------------
           7.048361224646           0.000000000000           0.000000000000
           0.000000000000           7.048361224646           0.000000000000
           0.000000000000           0.000000000000           0.000000000000

     Multipole analysis of the density
     ---------------------------------

     L   x y z        total         alpha         beta         nuclear
     -   - - -        -----         -----         ----         -------
     0   0 0 0     -0.000000     -9.000000     -7.000000     16.000000

     1   1 0 0      0.000000      0.000000      0.000000      0.000000
     1   0 1 0      0.000000      0.000000      0.000000      0.000000
     1   0 0 1      0.184250      0.075816      0.108433      0.000000

     2   2 0 0    -10.892357     -8.003905     -2.888452      0.000000
     2   1 1 0      0.000000      0.000000      0.000000      0.000000
     2   1 0 1     -0.000000      0.000000     -0.000000      0.000000
     2   0 2 0    -10.892357     -8.003905     -2.888452      0.000000
     2   0 1 1     -0.000000     -0.000000     -0.000000      0.000000
     2   0 0 2    -10.591035     -9.778468     -7.582437      6.769870


 Parallel integral file used      31 records with       0 large values


 Task  times  cpu:        1.8s     wall:        2.4s


                                NWChem Input Module
                                -------------------


 Summary of allocated global arrays
-----------------------------------
  No active global arrays



                         GA Statistics for process    0
                         ------------------------------

       create   destroy   get      put      acc     scatter   gather  read&inc
calls:  309      309     2019     1703      273        0        0       58     
number of processes/call 2.10e+00 1.31e+00 5.53e+00 0.00e+00 0.00e+00
bytes total:             2.31e+07 6.83e+06 9.50e+06 0.00e+00 0.00e+00 4.64e+02
bytes remote:            9.90e+06 1.30e+06 5.40e+06 0.00e+00 0.00e+00 0.00e+00
Max memory consumed for GA by this process: 1415736 bytes

MA_summarize_allocated_blocks: starting scan ...
MA_summarize_allocated_blocks: scan completed: 0 heap blocks, 0 stack blocks
MA usage statistics:

	allocation statistics:
					      heap	     stack
					      ----	     -----
	current number of blocks	         0	         0
	maximum number of blocks	        23	        51
	current total bytes		         0	         0
	maximum total bytes		   4515408	  22514408
	maximum total K-bytes		      4516	     22515
	maximum total M-bytes		         5	        23


                                     CITATION
                                     --------
                Please cite the following reference when publishing
                           results obtained with NWChem:

                 M. Valiev, E.J. Bylaska, N. Govind, K. Kowalski,
              T.P. Straatsma, H.J.J. van Dam, D. Wang, J. Nieplocha,
                        E. Apra, T.L. Windus, W.A. de Jong
                 "NWChem: a comprehensive and scalable open-source
                  solution for large scale molecular simulations"
                      Comput. Phys. Commun. 181, 1477 (2010)
                           doi:10.1016/j.cpc.2010.04.018

                                      AUTHORS
                                      -------
          E. Apra, E. J. Bylaska, W. A. de Jong, N. Govind, K. Kowalski,
       T. P. Straatsma, M. Valiev, H. J. J. van Dam, D. Wang, T. L. Windus,
        J. Hammond, J. Autschbach, K. Bhaskaran-Nair, J. Brabec, K. Lopata,
       S. A. Fischer, S. Krishnamoorthy, W. Ma, M. Klemm, O. Villa, Y. Chen,
    V. Anisimov, F. Aquino, S. Hirata, M. T. Hackler, T. Risthaus, M. Malagoli,
       A. Marenich, A. Otero-de-la-Roza, J. Mullin, P. Nichols, R. Peverati,
     J. Pittner, Y. Zhao, P.-D. Fan, A. Fonari, M. Williamson, R. J. Harrison,
       J. R. Rehr, M. Dupuis, D. Silverstein, D. M. A. Smith, J. Nieplocha,
        V. Tipparaju, M. Krishnan, B. E. Van Kuiken, A. Vazquez-Mayagoitia,
        L. Jensen, M. Swart, Q. Wu, T. Van Voorhis, A. A. Auer, M. Nooijen,
      L. D. Crosby, E. Brown, G. Cisneros, G. I. Fann, H. Fruchtl, J. Garza,
        K. Hirao, R. A. Kendall, J. A. Nichols, K. Tsemekhman, K. Wolinski,
     J. Anchell, D. E. Bernholdt, P. Borowski, T. Clark, D. Clerc, H. Dachsel,
   M. J. O. Deegan, K. Dyall, D. Elwood, E. Glendening, M. Gutowski, A. C. Hess,
         J. Jaffe, B. G. Johnson, J. Ju, R. Kobayashi, R. Kutteh, Z. Lin,
   R. Littlefield, X. Long, B. Meng, T. Nakajima, S. Niu, L. Pollack, M. Rosing,
   K. Glaesemann, G. Sandrone, M. Stave, H. Taylor, G. Thomas, J. H. van Lenthe,
                               A. T. Wong, Z. Zhang.

 Total times  cpu:        1.8s     wall:        2.6s
