[1537795836.731417] [r8n4:7905 :0]         sys.c:744  MXM  WARN  Conflicting CPU frequencies detected, using: 1798.22
[1537795836.740659] [r8n4:7909 :0]         sys.c:744  MXM  WARN  Conflicting CPU frequencies detected, using: 1798.22
[1537795836.740707] [r8n4:7906 :0]         sys.c:744  MXM  WARN  Conflicting CPU frequencies detected, using: 1798.22
[1537795836.740953] [r8n4:7911 :0]         sys.c:744  MXM  WARN  Conflicting CPU frequencies detected, using: 1896.60
[1537795836.741065] [r8n4:7908 :0]         sys.c:744  MXM  WARN  Conflicting CPU frequencies detected, using: 1896.60
[1537795836.742396] [r8n4:7910 :0]         sys.c:744  MXM  WARN  Conflicting CPU frequencies detected, using: 1896.60
[1537795836.742809] [r8n4:7907 :0]         sys.c:744  MXM  WARN  Conflicting CPU frequencies detected, using: 1896.60
[1537795836.761484] [r8n4:7917 :0]         sys.c:744  MXM  WARN  Conflicting CPU frequencies detected, using: 2098.66
[1537795836.761520] [r8n4:7913 :0]         sys.c:744  MXM  WARN  Conflicting CPU frequencies detected, using: 2098.66
[1537795836.761903] [r8n4:7915 :0]         sys.c:744  MXM  WARN  Conflicting CPU frequencies detected, using: 2098.66
[1537795836.783642] [r8n4:7929 :0]         sys.c:744  MXM  WARN  Conflicting CPU frequencies detected, using: 2296.95
[1537795836.783807] [r8n4:7921 :0]         sys.c:744  MXM  WARN  Conflicting CPU frequencies detected, using: 2296.95
[1537795836.783858] [r8n4:7923 :0]         sys.c:744  MXM  WARN  Conflicting CPU frequencies detected, using: 2296.95
[1537795836.783952] [r8n4:7919 :0]         sys.c:744  MXM  WARN  Conflicting CPU frequencies detected, using: 2296.95
[1537795836.784899] [r8n4:7925 :0]         sys.c:744  MXM  WARN  Conflicting CPU frequencies detected, using: 2296.95
[1537795836.785017] [r8n4:7927 :0]         sys.c:744  MXM  WARN  Conflicting CPU frequencies detected, using: 2296.95
 argument  1 = /storage/home/bikashp/nwchem_run/rabeet/ip13g2/nwip13g2/PH2+.nw
                                         
                                         


              Northwest Computational Chemistry Package (NWChem) 6.6
              ------------------------------------------------------


                    Environmental Molecular Sciences Laboratory
                       Pacific Northwest National Laboratory
                                Richland, WA 99352

                              Copyright (c) 1994-2015
                       Pacific Northwest National Laboratory
                            Battelle Memorial Institute

             NWChem is an open-source computational chemistry package
                        distributed under the terms of the
                      Educational Community License (ECL) 2.0
             A copy of the license is included with this distribution
                              in the LICENSE.TXT file

                                  ACKNOWLEDGMENT
                                  --------------

            This software and its documentation were developed at the
            EMSL at Pacific Northwest National Laboratory, a multiprogram
            national laboratory, operated for the U.S. Department of Energy
            by Battelle under Contract Number DE-AC05-76RL01830. Support
            for this work was provided by the Department of Energy Office
            of Biological and Environmental Research, Office of Basic
            Energy Sciences, and the Office of Advanced Scientific Computing.


           Job information
           ---------------

    hostname        = r8n4.niserhpc.org
    program         = /home/bikashp/Code/nwchem-6.6_tpssloc/bin/LINUX64/nwchem
    date            = Mon Sep 24 19:00:39 2018

    compiled        = Tue_Sep_18_16:24:59_2018
    source          = /home/bikashp/Code/nwchem-6.6_tpssloc
    nwchem branch   = 6.6
    nwchem revision = 27746
    ga revision     = 10594
    input           = /storage/home/bikashp/nwchem_run/rabeet/ip13g2/nwip13g2/PH2+.nw
    prefix          = PH2+.
    data base       = ./PH2+.db
    status          = startup
    nproc           =       16
    time left       =     -1s



           Memory information
           ------------------

    heap     =   13107196 doubles =    100.0 Mbytes
    stack    =   13107201 doubles =    100.0 Mbytes
    global   =   26214400 doubles =    200.0 Mbytes (distinct from heap & stack)
    total    =   52428797 doubles =    400.0 Mbytes
    verify   = yes
    hardfail = no 


           Directory information
           ---------------------

  0 permanent = .
  0 scratch   = .




                                NWChem Input Module
                                -------------------



 Scaling coordinates for geometry "geometry" by  1.889725989
 (inverse scale =  0.529177249)


          ------
          auto-z
          ------


                             Geometry "geometry" -> ""
                             -------------------------

 Output coordinates in angstroms (scale by  1.889725989 to convert to a.u.)

  No.       Tag          Charge          X              Y              Z
 ---- ---------------- ---------- -------------- -------------- --------------
    1 P                   15.0000    -0.08328059     0.00000000    -0.07934294
    2 H                    1.0000    -0.08328059     0.00000000     1.33808706
    3 H                    1.0000     1.33248941     0.00000000    -0.14794294

      Atomic Mass 
      ----------- 

      P                 30.973760
      H                  1.007825


 Effective nuclear repulsion energy (a.u.)      11.4578904777

            Nuclear Dipole moment (a.u.) 
            ----------------------------
        X                 Y               Z
 ---------------- ---------------- ----------------
     0.0000000000     0.0000000000     0.0000000000



                                Z-matrix (autoz)
                                -------- 

 Units are Angstrom for bonds and degrees for angles

      Type          Name      I     J     K     L     M      Value
      ----------- --------  ----- ----- ----- ----- ----- ----------
    1 Stretch                  1     2                       1.41743
    2 Stretch                  1     3                       1.41743
    3 Bend                     2     1     3                92.77405


            XYZ format geometry
            -------------------
     3
 geometry
 P                    -0.08328059     0.00000000    -0.07934294
 H                    -0.08328059     0.00000000     1.33808706
 H                     1.33248941     0.00000000    -0.14794294

 ==============================================================================
                                internuclear distances
 ------------------------------------------------------------------------------
       center one      |      center two      | atomic units |  angstroms
 ------------------------------------------------------------------------------
    2 H                |   1 P                |     2.67855  |     1.41743
    3 H                |   1 P                |     2.67856  |     1.41743
 ------------------------------------------------------------------------------
                         number of included internuclear distances:          2
 ==============================================================================



 ==============================================================================
                                 internuclear angles
 ------------------------------------------------------------------------------
        center 1       |       center 2       |       center 3       |  degrees
 ------------------------------------------------------------------------------
    2 H                |   1 P                |   3 H                |    92.77
 ------------------------------------------------------------------------------
                            number of included internuclear angles:          1
 ==============================================================================





 Summary of "ao basis" -> "" (cartesian)
 ------------------------------------------------------------------------------
       Tag                 Description            Shells   Functions and Types
 ---------------- ------------------------------  ------  ---------------------
 *                     6-311++G(3df,3pd)              on all atoms 



                                 NWChem DFT Module
                                 -----------------


                      Basis "ao basis" -> "ao basis" (cartesian)
                      -----
  P (Phosphorous)
  ---------------
            Exponent  Coefficients 
       -------------- ---------------------------------------------------------
  1 S  7.74924000E+04  0.000781
  1 S  1.16058000E+04  0.006068
  1 S  2.64596000E+03  0.031160
  1 S  7.54976000E+02  0.123431
  1 S  2.48755000E+02  0.378209
  1 S  9.11565000E+01  0.563262

  2 S  9.11565000E+01  0.160255
  2 S  3.62257000E+01  0.627647
  2 S  1.52113000E+01  0.263849

  3 S  4.79417000E+00  1.000000

  4 S  1.80793000E+00  1.000000

  5 S  3.56816000E-01  1.000000

  6 S  1.14783000E-01  1.000000

  7 P  3.84843000E+02  0.009206
  7 P  9.05521000E+01  0.069874
  7 P  2.91339000E+01  0.292470
  7 P  1.08862000E+01  0.728103

  8 P  4.35259000E+00  0.628349
  8 P  1.77706000E+00  0.428044

  9 P  6.97005000E-01  1.000000

 10 P  2.53532000E-01  1.000000

 11 P  6.84930000E-02  1.000000

 12 S  3.48000000E-02  1.000000

 13 P  3.48000000E-02  1.000000

 14 D  2.20000000E+00  1.000000

 15 D  5.50000000E-01  1.000000

 16 D  1.37500000E-01  1.000000

 17 F  4.50000000E-01  1.000000

  H (Hydrogen)
  ------------
            Exponent  Coefficients 
       -------------- ---------------------------------------------------------
  1 S  3.38650000E+01  0.025494
  1 S  5.09479000E+00  0.190373
  1 S  1.15879000E+00  0.852161

  2 S  3.25840000E-01  1.000000

  3 S  1.02741000E-01  1.000000

  4 S  3.60000000E-02  1.000000

  5 P  3.00000000E+00  1.000000

  6 P  7.50000000E-01  1.000000

  7 P  1.87500000E-01  1.000000

  8 D  1.00000000E+00  1.000000



 Summary of "ao basis" -> "ao basis" (cartesian)
 ------------------------------------------------------------------------------
       Tag                 Description            Shells   Functions and Types
 ---------------- ------------------------------  ------  ---------------------
 P                     6-311++G(3df,3pd)            17       53   7s6p3d1f
 H                     6-311++G(3df,3pd)             8       19   4s3p1d




 Summary of "ao basis" -> "ao basis" (cartesian)
 ------------------------------------------------------------------------------
       Tag                 Description            Shells   Functions and Types
 ---------------- ------------------------------  ------  ---------------------
 P                     6-311++G(3df,3pd)            17       53   7s6p3d1f
 H                     6-311++G(3df,3pd)             8       19   4s3p1d


  Caching 1-el integrals 

            General Information
            -------------------
          SCF calculation type: DFT
          Wavefunction type:  closed shell.
          No. of atoms     :     3
          No. of electrons :    16
           Alpha electrons :     8
            Beta electrons :     8
          Charge           :     1
          Spin multiplicity:     1
          Use of symmetry is: off; symmetry adaption is: off
          Maximum number of iterations: ***
          AO basis - number of functions:    91
                     number of shells:    33
          Convergence on energy requested: 1.00D-06
          Convergence on density requested: 1.00D-05
          Convergence on gradient requested: 5.00D-04

              XC Information
              --------------
                  TPSS metaGGA Exchange Functional  1.000          
             TPSS03 metaGGA Correlation Functional  1.000          

             Grid Information
             ----------------
          Grid used for XC integration:  medium    
          Radial quadrature: Mura-Knowles        
          Angular quadrature: Lebedev. 
          Tag              B.-S. Rad. Rad. Pts. Rad. Cut. Ang. Pts.
          ---              ---------- --------- --------- ---------
          P                   1.00       88          11.0       590
          H                   0.35       45          11.0       434
          Grid pruning is: on 
          Number of quadrature shells:   178
          Spatial weights used:  Erf1

          Convergence Information
          -----------------------
          Convergence aids based upon iterative change in 
          total energy or number of iterations. 
          Levelshifting, if invoked, occurs when the 
          HOMO/LUMO gap drops below (HL_TOL): 1.00D-02
          DIIS, if invoked, will attempt to extrapolate 
          using up to (NFOCK): 10 stored Fock matrices.

                    Damping( 0%)  Levelshifting(0.5)       DIIS
                  --------------- ------------------- ---------------
          dE  on:    start            ASAP                start   
          dE off:    2 iters        *** iters           *** iters 


      Screening Tolerance Information
      -------------------------------
          Density screening/tol_rho: 1.00D-10
          AO Gaussian exp screening on grid/accAOfunc:  14
          CD Gaussian exp screening on grid/accCDfunc:  20
          XC Gaussian exp screening on grid/accXCfunc:  20
          Schwarz screening/accCoul: 1.00D-08


      Superposition of Atomic Density Guess
      -------------------------------------

 Sum of atomic energies:        -341.65011194

 Renormalizing density from      17.00 to     16

      Non-variational initial energy
      ------------------------------

 Total energy =    -328.754419
 1-e energy   =    -465.726296
 2-e energy   =     125.513987
 HOMO         =      -0.791636
 LUMO         =      -0.659012

   Time after variat. SCF:      0.2
   Time prior to 1st pass:      0.2

 Integral file          = ./PH2+.aoints.00
 Record size in doubles =    65536    No. of integs per rec  =    43688
 Max. records in memory =       19    Max. records in file   = 11667439
 No. of bits per label  =        8    No. of bits per value  =       64


 #quartets = 1.563D+05 #integrals = 3.651D+06 #direct =  0.0% #cached =100.0%


File balance: exchanges=     0  moved=     0  time=   0.0


 Grid_pts file          = ./PH2+.gridpts.00
 Record size in doubles =  12289        No. of grid_pts per rec  =   3070
 Max. records in memory =      4        Max. recs in file   =  62221283


           Memory utilization after 1st SCF pass: 
           Heap Space remaining (MW):       11.81            11809236
          Stack Space remaining (MW):       13.11            13106604

   convergence    iter        energy       DeltaE   RMS-Dens  Diis-err    time
 ---------------- ----- ----------------- --------- --------- ---------  ------
 d= 0,ls=0.0,diis     1   -342.0524501254 -3.54D+02  2.96D-02  7.31D+00     0.6
 d= 0,ls=0.0,diis     2   -342.0990434029 -4.66D-02  1.40D-02  2.38D+00     0.8
 d= 0,ls=0.0,diis     3   -342.1934858574 -9.44D-02  3.41D-03  2.83D-02     0.9
 d= 0,ls=0.0,diis     4   -342.1978153429 -4.33D-03  1.48D-03  4.74D-03     1.0
 d= 0,ls=0.0,diis     5   -342.1975840786  2.31D-04  2.78D-04  9.11D-05     1.1
  Resetting Diis
 d= 0,ls=0.0,diis     6   -342.1975921254 -8.05D-06  4.06D-05  8.18D-06     1.2
 d= 0,ls=0.0,diis     7   -342.1975456372  4.65D-05  6.96D-06  3.83D-08     1.4
 d= 0,ls=0.0,diis     8   -342.1975493259 -3.69D-06  1.36D-06  1.14D-08     1.5
 d= 0,ls=0.0,diis     9   -342.1975473594  1.97D-06  5.75D-07  4.31D-10     1.6
 d= 0,ls=0.0,diis    10   -342.1975471312  2.28D-07  1.11D-07  5.38D-11     1.7


         Total DFT energy =     -342.197547131168
      One electron energy =     -489.286263610213
           Coulomb energy =      159.259606843732
          Exchange energy =      -23.013925299607
       Correlation energy =       -0.614855542757
 Nuclear repulsion energy =       11.457890477677

 Numeric. integr. density =       16.000007013946

     Total iterative time =      1.5s



                       DFT Final Molecular Orbital Analysis
                       ------------------------------------

 Vector    1  Occ=2.000000D+00  E=-7.704396D+01
              MO Center= -8.3D-02, -4.5D-16, -7.9D-02, r^2= 4.1D-03
   Bfn.  Coefficient  Atom+Function         Bfn.  Coefficient  Atom+Function  
  ----- ------------  ---------------      ----- ------------  ---------------
     2      0.645177  1 P  s                  1      0.419480  1 P  s          

 Vector    2  Occ=2.000000D+00  E=-6.828473D+00
              MO Center= -8.2D-02, -3.0D-13, -7.8D-02, r^2= 9.1D-02
   Bfn.  Coefficient  Atom+Function         Bfn.  Coefficient  Atom+Function  
  ----- ------------  ---------------      ----- ------------  ---------------
     4      0.610903  1 P  s                  3      0.492487  1 P  s          
     2     -0.310466  1 P  s          

 Vector    3  Occ=2.000000D+00  E=-5.019411D+00
              MO Center= -8.3D-02,  2.0D-13, -7.9D-02, r^2= 8.3D-02
   Bfn.  Coefficient  Atom+Function         Bfn.  Coefficient  Atom+Function  
  ----- ------------  ---------------      ----- ------------  ---------------
    11      0.682700  1 P  py                 8      0.405753  1 P  py         

 Vector    4  Occ=2.000000D+00  E=-5.004580D+00
              MO Center= -8.3D-02, -3.9D-14, -7.9D-02, r^2= 8.3D-02
   Bfn.  Coefficient  Atom+Function         Bfn.  Coefficient  Atom+Function  
  ----- ------------  ---------------      ----- ------------  ---------------
    12     -0.493571  1 P  pz                10      0.470235  1 P  px         
     9     -0.294294  1 P  pz                 7      0.280380  1 P  px         

 Vector    5  Occ=2.000000D+00  E=-5.001693D+00
              MO Center= -8.5D-02, -6.5D-15, -8.1D-02, r^2= 8.3D-02
   Bfn.  Coefficient  Atom+Function         Bfn.  Coefficient  Atom+Function  
  ----- ------------  ---------------      ----- ------------  ---------------
    10      0.493491  1 P  px                12      0.470159  1 P  pz         
     7      0.294380  1 P  px                 9      0.280462  1 P  pz         

 Vector    6  Occ=2.000000D+00  E=-9.577511D-01
              MO Center=  1.7D-01, -4.7D-12,  1.7D-01, r^2= 1.2D+00
   Bfn.  Coefficient  Atom+Function         Bfn.  Coefficient  Atom+Function  
  ----- ------------  ---------------      ----- ------------  ---------------
     6      0.738757  1 P  s                  5      0.482288  1 P  s          
     4     -0.347501  1 P  s                  3     -0.195476  1 P  s          

 Vector    7  Occ=2.000000D+00  E=-7.065970D-01
              MO Center=  2.9D-01, -1.6D-12,  2.8D-01, r^2= 1.6D+00
   Bfn.  Coefficient  Atom+Function         Bfn.  Coefficient  Atom+Function  
  ----- ------------  ---------------      ----- ------------  ---------------
    18     -0.409665  1 P  pz                16      0.390295  1 P  px         
    55     -0.226205  2 H  s                 74      0.226205  3 H  s          

 Vector    8  Occ=2.000000D+00  E=-6.323888D-01
              MO Center= -1.2D-01, -1.5D-11, -1.1D-01, r^2= 1.7D+00
   Bfn.  Coefficient  Atom+Function         Bfn.  Coefficient  Atom+Function  
  ----- ------------  ---------------      ----- ------------  ---------------
     6      0.570870  1 P  s                 16     -0.560011  1 P  px         
    18     -0.533533  1 P  pz                 5      0.214046  1 P  s          
     4     -0.165753  1 P  s                 55     -0.166060  2 H  s          
    74     -0.166061  3 H  s          

 Vector    9  Occ=0.000000D+00  E=-5.865609D-01
              MO Center= -2.6D-02,  1.3D-11, -2.5D-02, r^2= 1.5D+00
   Bfn.  Coefficient  Atom+Function         Bfn.  Coefficient  Atom+Function  
  ----- ------------  ---------------      ----- ------------  ---------------
    17      0.827460  1 P  py                11     -0.190580  1 P  py         
    20      0.186373  1 P  py                14      0.175378  1 P  py         

 Vector   10  Occ=0.000000D+00  E=-3.302244D-01
              MO Center= -1.7D-02, -4.1D-12, -1.6D-02, r^2= 2.6D+00
   Bfn.  Coefficient  Atom+Function         Bfn.  Coefficient  Atom+Function  
  ----- ------------  ---------------      ----- ------------  ---------------
    18     -0.837538  1 P  pz                16      0.797941  1 P  px         
    56      0.398264  2 H  s                 75     -0.398266  3 H  s          
    55      0.324693  2 H  s                 74     -0.324694  3 H  s          
    21     -0.259266  1 P  pz                19      0.247009  1 P  px         
    38     -0.191418  1 P  dxx               43      0.191417  1 P  dzz        

 Vector   11  Occ=0.000000D+00  E=-2.892867D-01
              MO Center=  2.3D-01, -9.5D-13,  2.2D-01, r^2= 3.2D+00
   Bfn.  Coefficient  Atom+Function         Bfn.  Coefficient  Atom+Function  
  ----- ------------  ---------------      ----- ------------  ---------------
     6      0.942152  1 P  s                 16      0.660823  1 P  px         
    18      0.629582  1 P  pz                56     -0.487566  2 H  s          
    75     -0.487564  3 H  s                 22      0.365873  1 P  s          
    55     -0.316624  2 H  s                 74     -0.316622  3 H  s          
    57     -0.251812  2 H  s                 76     -0.251811  3 H  s          

 Vector   12  Occ=0.000000D+00  E=-1.991195D-01
              MO Center=  3.5D-01, -2.0D-12,  3.3D-01, r^2= 3.8D+00
   Bfn.  Coefficient  Atom+Function         Bfn.  Coefficient  Atom+Function  
  ----- ------------  ---------------      ----- ------------  ---------------
    40      0.908770  1 P  dxz               22      0.707685  1 P  s          
    34      0.325600  1 P  dxz                5     -0.172909  1 P  s          

 Vector   13  Occ=0.000000D+00  E=-1.875277D-01
              MO Center=  3.1D-02,  1.6D-12,  2.9D-02, r^2= 2.8D+00
   Bfn.  Coefficient  Atom+Function         Bfn.  Coefficient  Atom+Function  
  ----- ------------  ---------------      ----- ------------  ---------------
    42     -0.876122  1 P  dyz               39      0.834700  1 P  dxy        
    36     -0.336217  1 P  dyz               33      0.320321  1 P  dxy        

 Vector   14  Occ=0.000000D+00  E=-1.805871D-01
              MO Center= -1.0D-02, -5.0D-11, -9.9D-03, r^2= 2.9D+00
   Bfn.  Coefficient  Atom+Function         Bfn.  Coefficient  Atom+Function  
  ----- ------------  ---------------      ----- ------------  ---------------
    39      0.904046  1 P  dxy               42      0.861303  1 P  dyz        
    33      0.325226  1 P  dxy               36      0.309849  1 P  dyz        
    17     -0.268778  1 P  py         

 Vector   15  Occ=0.000000D+00  E=-1.791553D-01
              MO Center=  6.8D-02,  3.7D-11,  6.5D-02, r^2= 5.1D+00
   Bfn.  Coefficient  Atom+Function         Bfn.  Coefficient  Atom+Function  
  ----- ------------  ---------------      ----- ------------  ---------------
    22      1.550095  1 P  s                 40     -0.525288  1 P  dxz        
     5     -0.374844  1 P  s                 41      0.349730  1 P  dyy        
    16      0.340449  1 P  px                18      0.324352  1 P  pz         
    57     -0.323085  2 H  s                 76     -0.323084  3 H  s          
    56     -0.286356  2 H  s                 75     -0.286355  3 H  s          

 Vector   16  Occ=0.000000D+00  E=-1.315983D-01
              MO Center=  2.1D-01, -4.3D-13,  2.0D-01, r^2= 9.8D+00
   Bfn.  Coefficient  Atom+Function         Bfn.  Coefficient  Atom+Function  
  ----- ------------  ---------------      ----- ------------  ---------------
    57      0.493855  2 H  s                 76     -0.493854  3 H  s          
    25      0.465880  1 P  pz                23     -0.443854  1 P  px         

 Vector   17  Occ=0.000000D+00  E=-1.181651D-01
              MO Center= -7.5D-01, -1.1D-10, -7.2D-01, r^2= 9.6D+00
   Bfn.  Coefficient  Atom+Function         Bfn.  Coefficient  Atom+Function  
  ----- ------------  ---------------      ----- ------------  ---------------
    22      0.870693  1 P  s                 23     -0.695597  1 P  px         
    25     -0.662709  1 P  pz                56     -0.270297  2 H  s          
    75     -0.270297  3 H  s                 19      0.251312  1 P  px         
    21      0.239430  1 P  pz                16      0.222772  1 P  px         
    18      0.212240  1 P  pz                57     -0.165394  2 H  s          

 Vector   18  Occ=0.000000D+00  E=-1.149136D-01
              MO Center= -1.1D-01,  1.1D-10, -1.1D-01, r^2= 1.1D+01
   Bfn.  Coefficient  Atom+Function         Bfn.  Coefficient  Atom+Function  
  ----- ------------  ---------------      ----- ------------  ---------------
    24      1.132889  1 P  py                17     -0.282166  1 P  py         
    20     -0.171951  1 P  py         

 Vector   19  Occ=0.000000D+00  E=-5.267601D-02
              MO Center=  7.2D-01, -3.0D-12,  6.9D-01, r^2= 1.6D+01
   Bfn.  Coefficient  Atom+Function         Bfn.  Coefficient  Atom+Function  
  ----- ------------  ---------------      ----- ------------  ---------------
    22      9.174400  1 P  s                 57     -5.348820  2 H  s          
    76     -5.348835  3 H  s                 23      2.389374  1 P  px         
    25      2.276393  1 P  pz                 6     -1.227776  1 P  s          
    56      0.981992  2 H  s                 75      0.981995  3 H  s          
    19     -0.537625  1 P  px                21     -0.512203  1 P  pz         

 Vector   20  Occ=0.000000D+00  E=-4.542974D-02
              MO Center=  1.4D-01, -1.1D-13,  1.3D-01, r^2= 1.6D+01
   Bfn.  Coefficient  Atom+Function         Bfn.  Coefficient  Atom+Function  
  ----- ------------  ---------------      ----- ------------  ---------------
    57      5.066762  2 H  s                 76     -5.066731  3 H  s          
    25     -2.726252  1 P  pz                23      2.597340  1 P  px         
    56     -0.976371  2 H  s                 75      0.976365  3 H  s          
    21      0.776755  1 P  pz                19     -0.740027  1 P  px         
    18      0.566175  1 P  pz                16     -0.539403  1 P  px         

 Vector   21  Occ=0.000000D+00  E= 5.207425D-03
              MO Center=  3.9D-01,  1.1D-11,  3.7D-01, r^2= 8.7D+00
   Bfn.  Coefficient  Atom+Function         Bfn.  Coefficient  Atom+Function  
  ----- ------------  ---------------      ----- ------------  ---------------
    22      7.615640  1 P  s                 57     -2.904590  2 H  s          
    76     -2.904585  3 H  s                 56     -2.501171  2 H  s          
    75     -2.501171  3 H  s                 23      1.720763  1 P  px         
     6      1.697400  1 P  s                 25      1.639402  1 P  pz         
    41     -1.019214  1 P  dyy               16      0.928132  1 P  px         

 Vector   22  Occ=0.000000D+00  E= 3.499275D-02
              MO Center=  9.7D-02, -6.8D-13,  9.2D-02, r^2= 1.2D+01
   Bfn.  Coefficient  Atom+Function         Bfn.  Coefficient  Atom+Function  
  ----- ------------  ---------------      ----- ------------  ---------------
    21     -1.363148  1 P  pz                19      1.298702  1 P  px         
    25      1.141647  1 P  pz                23     -1.087667  1 P  px         
    18      0.965064  1 P  pz                16     -0.919430  1 P  px         
    56     -0.608256  2 H  s                 75      0.608245  3 H  s          
    57      0.540110  2 H  s                 76     -0.540114  3 H  s          

 Vector   23  Occ=0.000000D+00  E= 5.351775D-02
              MO Center= -9.6D-01, -5.2D-11, -9.2D-01, r^2= 1.1D+01
   Bfn.  Coefficient  Atom+Function         Bfn.  Coefficient  Atom+Function  
  ----- ------------  ---------------      ----- ------------  ---------------
    19      3.178583  1 P  px                21      3.028302  1 P  pz         
     6      2.702176  1 P  s                 56     -2.309642  2 H  s          
    75     -2.309634  3 H  s                 23     -1.923809  1 P  px         
    25     -1.832852  1 P  pz                57      0.809855  2 H  s          
    76      0.809852  3 H  s                 66      0.472585  2 H  pz         

 Vector   24  Occ=0.000000D+00  E= 5.997169D-02
              MO Center= -7.5D-02,  3.7D-11, -7.2D-02, r^2= 1.2D+01
   Bfn.  Coefficient  Atom+Function         Bfn.  Coefficient  Atom+Function  
  ----- ------------  ---------------      ----- ------------  ---------------
    20      2.824456  1 P  py                24     -2.092028  1 P  py         
    17     -2.067822  1 P  py                45      0.571349  1 P  fxxy       
    52      0.571565  1 P  fyzz              50      0.522515  1 P  fyyy       
    14      0.185407  1 P  py         

 Vector   25  Occ=0.000000D+00  E= 9.174537D-02
              MO Center=  1.1D-01,  6.6D-14,  1.1D-01, r^2= 7.3D+00
   Bfn.  Coefficient  Atom+Function         Bfn.  Coefficient  Atom+Function  
  ----- ------------  ---------------      ----- ------------  ---------------
    56      4.013343  2 H  s                 75     -4.013335  3 H  s          
    21     -3.317888  1 P  pz                19      3.161017  1 P  px         
    57     -2.942432  2 H  s                 76      2.942436  3 H  s          
    25      2.245671  1 P  pz                23     -2.139499  1 P  px         
    38      1.620954  1 P  dxx               43     -1.620951  1 P  dzz        

 Vector   26  Occ=0.000000D+00  E= 1.075234D-01
              MO Center=  3.4D-01,  8.1D-12,  3.3D-01, r^2= 5.4D+00
   Bfn.  Coefficient  Atom+Function         Bfn.  Coefficient  Atom+Function  
  ----- ------------  ---------------      ----- ------------  ---------------
    22      3.552599  1 P  s                  6      2.487160  1 P  s          
    56     -1.498274  2 H  s                 75     -1.498280  3 H  s          
    40      1.437298  1 P  dxz               57     -1.062332  2 H  s          
    76     -1.062327  3 H  s                 43     -1.032119  1 P  dzz        
    38     -0.962472  1 P  dxx               16      0.923652  1 P  px         

 Vector   27  Occ=0.000000D+00  E= 1.535676D-01
              MO Center=  4.0D-01, -1.1D-11,  3.8D-01, r^2= 4.1D+00
   Bfn.  Coefficient  Atom+Function         Bfn.  Coefficient  Atom+Function  
  ----- ------------  ---------------      ----- ------------  ---------------
    42     -1.376913  1 P  dyz               39      1.311814  1 P  dxy        
    65      1.173470  2 H  py                84     -1.173473  3 H  py         

 Vector   28  Occ=0.000000D+00  E= 1.666144D-01
              MO Center=  4.7D-02,  9.8D-12,  4.5D-02, r^2= 8.8D+00
   Bfn.  Coefficient  Atom+Function         Bfn.  Coefficient  Atom+Function  
  ----- ------------  ---------------      ----- ------------  ---------------
    56      4.862726  2 H  s                 75     -4.862728  3 H  s          
    57     -4.066140  2 H  s                 76      4.066140  3 H  s          
    21     -3.491386  1 P  pz                19      3.326309  1 P  px         
    25      2.534131  1 P  pz                23     -2.414314  1 P  px         
    18     -1.263828  1 P  pz                16      1.204075  1 P  px         

 Vector   29  Occ=0.000000D+00  E= 1.949548D-01
              MO Center=  4.0D-01, -9.6D-12,  3.8D-01, r^2= 1.1D+01
   Bfn.  Coefficient  Atom+Function         Bfn.  Coefficient  Atom+Function  
  ----- ------------  ---------------      ----- ------------  ---------------
    22      8.688595  1 P  s                 56      5.323874  2 H  s          
    75      5.323862  3 H  s                 57     -4.942229  2 H  s          
    76     -4.942218  3 H  s                  6     -3.185865  1 P  s          
    19     -2.963461  1 P  px                21     -2.823354  1 P  pz         
    23      2.526011  1 P  px                25      2.406584  1 P  pz         

 Vector   30  Occ=0.000000D+00  E= 1.995925D-01
              MO Center=  4.3D-01,  1.1D-11,  4.1D-01, r^2= 4.5D+00
   Bfn.  Coefficient  Atom+Function         Bfn.  Coefficient  Atom+Function  
  ----- ------------  ---------------      ----- ------------  ---------------
    20      1.681512  1 P  py                39      1.450791  1 P  dxy        
    42      1.382202  1 P  dyz               65     -1.353120  2 H  py         
    84     -1.353115  3 H  py                17      0.830661  1 P  py         
    24     -0.583386  1 P  py                52     -0.335387  1 P  fyzz       
    45     -0.332098  1 P  fxxy              14     -0.158804  1 P  py         

 Vector   31  Occ=0.000000D+00  E= 2.400547D-01
              MO Center=  6.4D-01,  2.3D-12,  6.1D-01, r^2= 4.9D+00
   Bfn.  Coefficient  Atom+Function         Bfn.  Coefficient  Atom+Function  
  ----- ------------  ---------------      ----- ------------  ---------------
    57     -1.999167  2 H  s                 76      1.999164  3 H  s          
    56      1.905098  2 H  s                 75     -1.905091  3 H  s          
    55     -1.474535  2 H  s                 74      1.474522  3 H  s          
    38     -0.861801  1 P  dxx               43      0.861814  1 P  dzz        
    85     -0.816609  3 H  pz                64      0.788772  2 H  px         

 Vector   32  Occ=0.000000D+00  E= 2.422989D-01
              MO Center=  2.2D-01,  1.7D-12,  2.1D-01, r^2= 4.9D+00
   Bfn.  Coefficient  Atom+Function         Bfn.  Coefficient  Atom+Function  
  ----- ------------  ---------------      ----- ------------  ---------------
    40      2.899399  1 P  dxz               19      1.455433  1 P  px         
    64     -1.424912  2 H  px                85     -1.405921  3 H  pz         
    21      1.386614  1 P  pz                38      0.928044  1 P  dxx        
    55     -0.864308  2 H  s                 74     -0.864331  3 H  s          
     6     -0.845181  1 P  s                 43      0.787544  1 P  dzz        

 Vector   33  Occ=0.000000D+00  E= 4.291339D-01
              MO Center=  4.6D-02,  2.8D-12,  4.4D-02, r^2= 5.8D+00
   Bfn.  Coefficient  Atom+Function         Bfn.  Coefficient  Atom+Function  
  ----- ------------  ---------------      ----- ------------  ---------------
     6     13.500619  1 P  s                 56     -6.838361  2 H  s          
    75     -6.838368  3 H  s                 16      5.572670  1 P  px         
    18      5.309184  1 P  pz                19      2.873140  1 P  px         
    21      2.737289  1 P  pz                66      2.698567  2 H  pz         
    83      2.688713  3 H  px                41     -2.371629  1 P  dyy        

 Vector   34  Occ=0.000000D+00  E= 4.736210D-01
              MO Center=  1.8D-01,  1.0D-11,  1.7D-01, r^2= 6.6D+00
   Bfn.  Coefficient  Atom+Function         Bfn.  Coefficient  Atom+Function  
  ----- ------------  ---------------      ----- ------------  ---------------
    56      9.562914  2 H  s                 75     -9.562896  3 H  s          
    18     -7.009904  1 P  pz                16      6.678458  1 P  px         
    21     -4.377258  1 P  pz                19      4.170293  1 P  px         
    38      3.204514  1 P  dxx               43     -3.204510  1 P  dzz        
    57     -3.142159  2 H  s                 76      3.142158  3 H  s          

 Vector   35  Occ=0.000000D+00  E= 4.748583D-01
              MO Center= -1.0D-01, -1.1D-11, -9.5D-02, r^2= 2.0D+00
   Bfn.  Coefficient  Atom+Function         Bfn.  Coefficient  Atom+Function  
  ----- ------------  ---------------      ----- ------------  ---------------
    36     -1.194238  1 P  dyz               33      1.137758  1 P  dxy        
    42      1.047158  1 P  dyz               39     -0.997634  1 P  dxy        
    30     -0.192263  1 P  dyz               27      0.183170  1 P  dxy        

 Vector   36  Occ=0.000000D+00  E= 4.791960D-01
              MO Center= -1.2D-01,  2.5D-12, -1.1D-01, r^2= 2.0D+00
   Bfn.  Coefficient  Atom+Function         Bfn.  Coefficient  Atom+Function  
  ----- ------------  ---------------      ----- ------------  ---------------
    33      1.196139  1 P  dxy               36      1.139569  1 P  dyz        
    39     -1.115690  1 P  dxy               42     -1.062925  1 P  dyz        
    17     -0.617516  1 P  py                45      0.285374  1 P  fxxy       
    52      0.279561  1 P  fyzz              27      0.192820  1 P  dxy        
    30      0.183701  1 P  dyz               50      0.173282  1 P  fyyy       

 Vector   37  Occ=0.000000D+00  E= 4.833063D-01
              MO Center= -1.8D-01, -3.7D-12, -1.7D-01, r^2= 2.1D+00
   Bfn.  Coefficient  Atom+Function         Bfn.  Coefficient  Atom+Function  
  ----- ------------  ---------------      ----- ------------  ---------------
    40      1.865456  1 P  dxz                6      1.698396  1 P  s          
    34     -1.573003  1 P  dxz               16      1.023141  1 P  px         
    18      0.974773  1 P  pz                56     -0.826772  2 H  s          
    75     -0.826759  3 H  s                 19      0.511648  1 P  px         
    21      0.487463  1 P  pz                41     -0.453376  1 P  dyy        

 Vector   38  Occ=0.000000D+00  E= 5.516662D-01
              MO Center=  5.7D-02,  9.2D-13,  5.4D-02, r^2= 4.8D+00
   Bfn.  Coefficient  Atom+Function         Bfn.  Coefficient  Atom+Function  
  ----- ------------  ---------------      ----- ------------  ---------------
     6      3.163819  1 P  s                 16     -2.984909  1 P  px         
    18     -2.843551  1 P  pz                22     -2.378785  1 P  s          
    19      2.125724  1 P  px                56     -2.104481  2 H  s          
    75     -2.104649  3 H  s                 21      2.025056  1 P  pz         
    49      1.595677  1 P  fxzz              46      1.532317  1 P  fxxz       


 center of mass
 --------------
 x =  -0.07564361 y =   0.00000000 z =  -0.07206705

 moments of inertia (a.u.)
 ------------------
           7.047695790676           0.000000000000           0.559505460045
           0.000000000000          14.041180741426           0.000000000000
           0.559505460045           0.000000000000           6.993484950751

     Multipole analysis of the density
     ---------------------------------

     L   x y z        total         alpha         beta         nuclear
     -   - - -        -----         -----         ----         -------
     0   0 0 0      1.000000     -8.000000     -8.000000     17.000000

     1   1 0 0      0.272259      0.136130      0.136130      0.000000
     1   0 1 0      0.000000      0.000000      0.000000      0.000000
     1   0 0 1      0.259386      0.129693      0.129693      0.000000

     2   2 0 0     -8.060283     -7.398545     -7.398545      6.736808
     2   1 1 0     -0.000000     -0.000000     -0.000000      0.000000
     2   1 0 1     -0.541562      0.103205      0.103205     -0.747971
     2   0 2 0     -7.174366     -3.587183     -3.587183      0.000000
     2   0 1 1     -0.000000     -0.000000     -0.000000      0.000000
     2   0 0 2     -8.007804     -7.408543     -7.408543      6.809283


 Parallel integral file used      91 records with       0 large values


 Task  times  cpu:        1.6s     wall:        2.2s


                                NWChem Input Module
                                -------------------


 Summary of allocated global arrays
-----------------------------------
  No active global arrays



                         GA Statistics for process    0
                         ------------------------------

       create   destroy   get      put      acc     scatter   gather  read&inc
calls:  165      165     1069     1085      166        0        0       56     
number of processes/call 3.08e+00 1.47e+00 6.91e+00 0.00e+00 0.00e+00
bytes total:             1.74e+07 4.01e+06 7.49e+06 0.00e+00 0.00e+00 4.48e+02
bytes remote:            1.08e+07 1.26e+06 5.43e+06 0.00e+00 0.00e+00 0.00e+00
Max memory consumed for GA by this process: 808992 bytes

MA_summarize_allocated_blocks: starting scan ...
MA_summarize_allocated_blocks: scan completed: 0 heap blocks, 0 stack blocks
MA usage statistics:

	allocation statistics:
					      heap	     stack
					      ----	     -----
	current number of blocks	         0	         0
	maximum number of blocks	        23	        51
	current total bytes		         0	         0
	maximum total bytes		  10383216	  23559848
	maximum total K-bytes		     10384	     23560
	maximum total M-bytes		        11	        24


                                     CITATION
                                     --------
                Please cite the following reference when publishing
                           results obtained with NWChem:

                 M. Valiev, E.J. Bylaska, N. Govind, K. Kowalski,
              T.P. Straatsma, H.J.J. van Dam, D. Wang, J. Nieplocha,
                        E. Apra, T.L. Windus, W.A. de Jong
                 "NWChem: a comprehensive and scalable open-source
                  solution for large scale molecular simulations"
                      Comput. Phys. Commun. 181, 1477 (2010)
                           doi:10.1016/j.cpc.2010.04.018

                                      AUTHORS
                                      -------
          E. Apra, E. J. Bylaska, W. A. de Jong, N. Govind, K. Kowalski,
       T. P. Straatsma, M. Valiev, H. J. J. van Dam, D. Wang, T. L. Windus,
        J. Hammond, J. Autschbach, K. Bhaskaran-Nair, J. Brabec, K. Lopata,
       S. A. Fischer, S. Krishnamoorthy, W. Ma, M. Klemm, O. Villa, Y. Chen,
    V. Anisimov, F. Aquino, S. Hirata, M. T. Hackler, T. Risthaus, M. Malagoli,
       A. Marenich, A. Otero-de-la-Roza, J. Mullin, P. Nichols, R. Peverati,
     J. Pittner, Y. Zhao, P.-D. Fan, A. Fonari, M. Williamson, R. J. Harrison,
       J. R. Rehr, M. Dupuis, D. Silverstein, D. M. A. Smith, J. Nieplocha,
        V. Tipparaju, M. Krishnan, B. E. Van Kuiken, A. Vazquez-Mayagoitia,
        L. Jensen, M. Swart, Q. Wu, T. Van Voorhis, A. A. Auer, M. Nooijen,
      L. D. Crosby, E. Brown, G. Cisneros, G. I. Fann, H. Fruchtl, J. Garza,
        K. Hirao, R. A. Kendall, J. A. Nichols, K. Tsemekhman, K. Wolinski,
     J. Anchell, D. E. Bernholdt, P. Borowski, T. Clark, D. Clerc, H. Dachsel,
   M. J. O. Deegan, K. Dyall, D. Elwood, E. Glendening, M. Gutowski, A. C. Hess,
         J. Jaffe, B. G. Johnson, J. Ju, R. Kobayashi, R. Kutteh, Z. Lin,
   R. Littlefield, X. Long, B. Meng, T. Nakajima, S. Niu, L. Pollack, M. Rosing,
   K. Glaesemann, G. Sandrone, M. Stave, H. Taylor, G. Thomas, J. H. van Lenthe,
                               A. T. Wong, Z. Zhang.

 Total times  cpu:        1.7s     wall:        2.4s
