[1537795828.721326] [r8n4:7732 :0]         sys.c:744  MXM  WARN  Conflicting CPU frequencies detected, using: 2300.00
[1537795828.722303] [r8n4:7733 :0]         sys.c:744  MXM  WARN  Conflicting CPU frequencies detected, using: 2300.00
[1537795828.732408] [r8n4:7734 :0]         sys.c:744  MXM  WARN  Conflicting CPU frequencies detected, using: 2300.00
[1537795828.732462] [r8n4:7736 :0]         sys.c:744  MXM  WARN  Conflicting CPU frequencies detected, using: 2300.00
[1537795828.732520] [r8n4:7735 :0]         sys.c:744  MXM  WARN  Conflicting CPU frequencies detected, using: 2300.00
[1537795828.742689] [r8n4:7738 :0]         sys.c:744  MXM  WARN  Conflicting CPU frequencies detected, using: 2300.00
[1537795828.744414] [r8n4:7737 :0]         sys.c:744  MXM  WARN  Conflicting CPU frequencies detected, using: 2300.00
[1537795828.756038] [r8n4:7740 :0]         sys.c:744  MXM  WARN  Conflicting CPU frequencies detected, using: 2300.00
[1537795828.756422] [r8n4:7742 :0]         sys.c:744  MXM  WARN  Conflicting CPU frequencies detected, using: 2300.00
[1537795828.757377] [r8n4:7744 :0]         sys.c:744  MXM  WARN  Conflicting CPU frequencies detected, using: 2300.00
[1537795828.800892] [r8n4:7746 :0]         sys.c:744  MXM  WARN  Conflicting CPU frequencies detected, using: 2300.00
[1537795828.801317] [r8n4:7748 :0]         sys.c:744  MXM  WARN  Conflicting CPU frequencies detected, using: 2300.00
[1537795828.808417] [r8n4:7752 :0]         sys.c:744  MXM  WARN  Conflicting CPU frequencies detected, using: 2300.00
[1537795828.808633] [r8n4:7756 :0]         sys.c:744  MXM  WARN  Conflicting CPU frequencies detected, using: 2300.00
[1537795828.809998] [r8n4:7750 :0]         sys.c:744  MXM  WARN  Conflicting CPU frequencies detected, using: 2300.00
[1537795828.810759] [r8n4:7754 :0]         sys.c:744  MXM  WARN  Conflicting CPU frequencies detected, using: 2300.00
 argument  1 = /storage/home/bikashp/nwchem_run/rabeet/ip13g2/nwip13g2/PH2.nw
                                         
                                         


              Northwest Computational Chemistry Package (NWChem) 6.6
              ------------------------------------------------------


                    Environmental Molecular Sciences Laboratory
                       Pacific Northwest National Laboratory
                                Richland, WA 99352

                              Copyright (c) 1994-2015
                       Pacific Northwest National Laboratory
                            Battelle Memorial Institute

             NWChem is an open-source computational chemistry package
                        distributed under the terms of the
                      Educational Community License (ECL) 2.0
             A copy of the license is included with this distribution
                              in the LICENSE.TXT file

                                  ACKNOWLEDGMENT
                                  --------------

            This software and its documentation were developed at the
            EMSL at Pacific Northwest National Laboratory, a multiprogram
            national laboratory, operated for the U.S. Department of Energy
            by Battelle under Contract Number DE-AC05-76RL01830. Support
            for this work was provided by the Department of Energy Office
            of Biological and Environmental Research, Office of Basic
            Energy Sciences, and the Office of Advanced Scientific Computing.


           Job information
           ---------------

    hostname        = r8n4.niserhpc.org
    program         = /home/bikashp/Code/nwchem-6.6_tpssloc/bin/LINUX64/nwchem
    date            = Mon Sep 24 19:00:31 2018

    compiled        = Tue_Sep_18_16:24:59_2018
    source          = /home/bikashp/Code/nwchem-6.6_tpssloc
    nwchem branch   = 6.6
    nwchem revision = 27746
    ga revision     = 10594
    input           = /storage/home/bikashp/nwchem_run/rabeet/ip13g2/nwip13g2/PH2.nw
    prefix          = PH2.
    data base       = ./PH2.db
    status          = startup
    nproc           =       16
    time left       =     -1s



           Memory information
           ------------------

    heap     =   13107196 doubles =    100.0 Mbytes
    stack    =   13107201 doubles =    100.0 Mbytes
    global   =   26214400 doubles =    200.0 Mbytes (distinct from heap & stack)
    total    =   52428797 doubles =    400.0 Mbytes
    verify   = yes
    hardfail = no 


           Directory information
           ---------------------

  0 permanent = .
  0 scratch   = .




                                NWChem Input Module
                                -------------------



 Scaling coordinates for geometry "geometry" by  1.889725989
 (inverse scale =  0.529177249)


          ------
          auto-z
          ------


                             Geometry "geometry" -> ""
                             -------------------------

 Output coordinates in angstroms (scale by  1.889725989 to convert to a.u.)

  No.       Tag          Charge          X              Y              Z
 ---- ---------------- ---------- -------------- -------------- --------------
    1 P                   15.0000     0.00000000     0.00000000    -0.11565765
    2 H                    1.0000     1.02013000     0.00000000     0.86743235
    3 H                    1.0000    -1.02013000     0.00000000     0.86743235

      Atomic Mass 
      ----------- 

      P                 30.973760
      H                  1.007825


 Effective nuclear repulsion energy (a.u.)      11.4649527488

            Nuclear Dipole moment (a.u.) 
            ----------------------------
        X                 Y               Z
 ---------------- ---------------- ----------------
     0.0000000000     0.0000000000     0.0000000000



                                Z-matrix (autoz)
                                -------- 

 Units are Angstrom for bonds and degrees for angles

      Type          Name      I     J     K     L     M      Value
      ----------- --------  ----- ----- ----- ----- ----- ----------
    1 Stretch                  1     2                       1.41673
    2 Stretch                  1     3                       1.41673
    3 Bend                     2     1     3                92.11858


            XYZ format geometry
            -------------------
     3
 geometry
 P                     0.00000000     0.00000000    -0.11565765
 H                     1.02013000     0.00000000     0.86743235
 H                    -1.02013000     0.00000000     0.86743235

 ==============================================================================
                                internuclear distances
 ------------------------------------------------------------------------------
       center one      |      center two      | atomic units |  angstroms
 ------------------------------------------------------------------------------
    2 H                |   1 P                |     2.67724  |     1.41673
    3 H                |   1 P                |     2.67724  |     1.41673
 ------------------------------------------------------------------------------
                         number of included internuclear distances:          2
 ==============================================================================



 ==============================================================================
                                 internuclear angles
 ------------------------------------------------------------------------------
        center 1       |       center 2       |       center 3       |  degrees
 ------------------------------------------------------------------------------
    2 H                |   1 P                |   3 H                |    92.12
 ------------------------------------------------------------------------------
                            number of included internuclear angles:          1
 ==============================================================================





 Summary of "ao basis" -> "" (cartesian)
 ------------------------------------------------------------------------------
       Tag                 Description            Shells   Functions and Types
 ---------------- ------------------------------  ------  ---------------------
 *                     6-311++G(3df,3pd)              on all atoms 



                                 NWChem DFT Module
                                 -----------------


                      Basis "ao basis" -> "ao basis" (cartesian)
                      -----
  P (Phosphorous)
  ---------------
            Exponent  Coefficients 
       -------------- ---------------------------------------------------------
  1 S  7.74924000E+04  0.000781
  1 S  1.16058000E+04  0.006068
  1 S  2.64596000E+03  0.031160
  1 S  7.54976000E+02  0.123431
  1 S  2.48755000E+02  0.378209
  1 S  9.11565000E+01  0.563262

  2 S  9.11565000E+01  0.160255
  2 S  3.62257000E+01  0.627647
  2 S  1.52113000E+01  0.263849

  3 S  4.79417000E+00  1.000000

  4 S  1.80793000E+00  1.000000

  5 S  3.56816000E-01  1.000000

  6 S  1.14783000E-01  1.000000

  7 P  3.84843000E+02  0.009206
  7 P  9.05521000E+01  0.069874
  7 P  2.91339000E+01  0.292470
  7 P  1.08862000E+01  0.728103

  8 P  4.35259000E+00  0.628349
  8 P  1.77706000E+00  0.428044

  9 P  6.97005000E-01  1.000000

 10 P  2.53532000E-01  1.000000

 11 P  6.84930000E-02  1.000000

 12 S  3.48000000E-02  1.000000

 13 P  3.48000000E-02  1.000000

 14 D  2.20000000E+00  1.000000

 15 D  5.50000000E-01  1.000000

 16 D  1.37500000E-01  1.000000

 17 F  4.50000000E-01  1.000000

  H (Hydrogen)
  ------------
            Exponent  Coefficients 
       -------------- ---------------------------------------------------------
  1 S  3.38650000E+01  0.025494
  1 S  5.09479000E+00  0.190373
  1 S  1.15879000E+00  0.852161

  2 S  3.25840000E-01  1.000000

  3 S  1.02741000E-01  1.000000

  4 S  3.60000000E-02  1.000000

  5 P  3.00000000E+00  1.000000

  6 P  7.50000000E-01  1.000000

  7 P  1.87500000E-01  1.000000

  8 D  1.00000000E+00  1.000000



 Summary of "ao basis" -> "ao basis" (cartesian)
 ------------------------------------------------------------------------------
       Tag                 Description            Shells   Functions and Types
 ---------------- ------------------------------  ------  ---------------------
 P                     6-311++G(3df,3pd)            17       53   7s6p3d1f
 H                     6-311++G(3df,3pd)             8       19   4s3p1d




 Summary of "ao basis" -> "ao basis" (cartesian)
 ------------------------------------------------------------------------------
       Tag                 Description            Shells   Functions and Types
 ---------------- ------------------------------  ------  ---------------------
 P                     6-311++G(3df,3pd)            17       53   7s6p3d1f
 H                     6-311++G(3df,3pd)             8       19   4s3p1d


  Caching 1-el integrals 

            General Information
            -------------------
          SCF calculation type: DFT
          Wavefunction type:  spin polarized.
          No. of atoms     :     3
          No. of electrons :    17
           Alpha electrons :     9
            Beta electrons :     8
          Charge           :     0
          Spin multiplicity:     2
          Use of symmetry is: off; symmetry adaption is: off
          Maximum number of iterations: ***
          AO basis - number of functions:    91
                     number of shells:    33
          Convergence on energy requested: 1.00D-06
          Convergence on density requested: 1.00D-05
          Convergence on gradient requested: 5.00D-04

              XC Information
              --------------
                  TPSS metaGGA Exchange Functional  1.000          
             TPSS03 metaGGA Correlation Functional  1.000          

             Grid Information
             ----------------
          Grid used for XC integration:  medium    
          Radial quadrature: Mura-Knowles        
          Angular quadrature: Lebedev. 
          Tag              B.-S. Rad. Rad. Pts. Rad. Cut. Ang. Pts.
          ---              ---------- --------- --------- ---------
          P                   1.00       88          11.0       590
          H                   0.35       45          11.0       434
          Grid pruning is: on 
          Number of quadrature shells:   178
          Spatial weights used:  Erf1

          Convergence Information
          -----------------------
          Convergence aids based upon iterative change in 
          total energy or number of iterations. 
          Levelshifting, if invoked, occurs when the 
          HOMO/LUMO gap drops below (HL_TOL): 1.00D-02
          DIIS, if invoked, will attempt to extrapolate 
          using up to (NFOCK): 10 stored Fock matrices.

                    Damping( 0%)  Levelshifting(0.5)       DIIS
                  --------------- ------------------- ---------------
          dE  on:    start            ASAP                start   
          dE off:    2 iters        *** iters           *** iters 


      Screening Tolerance Information
      -------------------------------
          Density screening/tol_rho: 1.00D-10
          AO Gaussian exp screening on grid/accAOfunc:  14
          CD Gaussian exp screening on grid/accCDfunc:  20
          XC Gaussian exp screening on grid/accXCfunc:  20
          Schwarz screening/accCoul: 1.00D-08


      Superposition of Atomic Density Guess
      -------------------------------------

 Sum of atomic energies:        -341.65011194

      Non-variational initial energy
      ------------------------------

 Total energy =    -341.683907
 1-e energy   =    -494.847257
 2-e energy   =     141.698398
 HOMO         =      -0.198355
 LUMO         =       0.038294

   Time after variat. SCF:      0.6
   Time prior to 1st pass:      0.6

 Integral file          = ./PH2.aoints.00
 Record size in doubles =    65536    No. of integs per rec  =    43688
 Max. records in memory =       19    Max. records in file   = 11667435
 No. of bits per label  =        8    No. of bits per value  =       64


 #quartets = 1.549D+05 #integrals = 4.198D+06 #direct =  0.0% #cached =100.0%


File balance: exchanges=     0  moved=     0  time=   0.0


 Grid_pts file          = ./PH2.gridpts.00
 Record size in doubles =  12289        No. of grid_pts per rec  =   3070
 Max. records in memory =      4        Max. recs in file   =  62221263


           Memory utilization after 1st SCF pass: 
           Heap Space remaining (MW):       11.81            11809236
          Stack Space remaining (MW):       13.11            13106308

   convergence    iter        energy       DeltaE   RMS-Dens  Diis-err    time
 ---------------- ----- ----------------- --------- --------- ---------  ------
 d= 0,ls=0.0,diis     1   -342.5615312025 -3.54D+02  1.43D-02  1.69D-01     1.1
                                                     1.29D-02  1.60D-01
 d= 0,ls=0.0,diis     2   -342.5641501785 -2.62D-03  1.63D-03  2.69D-03     1.4
                                                     1.40D-03  2.77D-03
 d= 0,ls=0.0,diis     3   -342.5635838249  5.66D-04  6.42D-04  1.13D-03     1.7
                                                     4.95D-04  9.32D-04
 d= 0,ls=0.0,diis     4   -342.5643988655 -8.15D-04  1.68D-04  7.57D-05     1.9
                                                     1.60D-04  6.99D-05
 d= 0,ls=0.0,diis     5   -342.5643293857  6.95D-05  4.09D-05  4.69D-06     2.1
                                                     4.89D-05  4.43D-06
  Resetting Diis
 d= 0,ls=0.0,diis     6   -342.5642447003  8.47D-05  1.67D-05  9.06D-07     2.4
                                                     1.55D-05  7.11D-07
 d= 0,ls=0.0,diis     7   -342.5642850036 -4.03D-05  2.88D-06  4.92D-09     2.6
                                                     2.51D-06  6.49D-09
 d= 0,ls=0.0,diis     8   -342.5642816663  3.34D-06  1.21D-06  2.43D-09     2.8
                                                     9.95D-07  1.69D-09
 d= 0,ls=0.0,diis     9   -342.5642835261 -1.86D-06  4.00D-07  3.70D-10     3.1
                                                     3.18D-07  4.15D-10
 d= 0,ls=0.0,diis    10   -342.5642834337  9.24D-08  1.55D-07  6.75D-11     3.3
                                                     1.78D-07  6.58D-11


         Total DFT energy =     -342.564283433668
      One electron energy =     -495.132705342941
           Coulomb energy =      165.021894109075
          Exchange energy =      -23.271010018049
       Correlation energy =       -0.647414930574
 Nuclear repulsion energy =       11.464952748821

 Numeric. integr. density =       17.000006633722

     Total iterative time =      2.7s



                    DFT Final Alpha Molecular Orbital Analysis
                    ------------------------------------------

 Vector    1  Occ=1.000000D+00  E=-7.667132D+01
              MO Center= -7.5D-15, -8.5D-19, -1.2D-01, r^2= 4.1D-03
   Bfn.  Coefficient  Atom+Function         Bfn.  Coefficient  Atom+Function  
  ----- ------------  ---------------      ----- ------------  ---------------
     2      0.645163  1 P  s                  1      0.419473  1 P  s          

 Vector    2  Occ=1.000000D+00  E=-6.462876D+00
              MO Center= -4.7D-12,  1.7D-15, -1.1D-01, r^2= 9.1D-02
   Bfn.  Coefficient  Atom+Function         Bfn.  Coefficient  Atom+Function  
  ----- ------------  ---------------      ----- ------------  ---------------
     4      0.608515  1 P  s                  3      0.492221  1 P  s          
     2     -0.310410  1 P  s          

 Vector    3  Occ=1.000000D+00  E=-4.648049D+00
              MO Center= -1.7D-13, -3.9D-15, -1.2D-01, r^2= 8.3D-02
   Bfn.  Coefficient  Atom+Function         Bfn.  Coefficient  Atom+Function  
  ----- ------------  ---------------      ----- ------------  ---------------
    11      0.681362  1 P  py                 8      0.406170  1 P  py         

 Vector    4  Occ=1.000000D+00  E=-4.642281D+00
              MO Center=  4.6D-12, -2.9D-16, -1.2D-01, r^2= 8.3D-02
   Bfn.  Coefficient  Atom+Function         Bfn.  Coefficient  Atom+Function  
  ----- ------------  ---------------      ----- ------------  ---------------
    10      0.681219  1 P  px                 7      0.406014  1 P  px         

 Vector    5  Occ=1.000000D+00  E=-4.639625D+00
              MO Center= -9.7D-13,  1.2D-15, -1.2D-01, r^2= 8.3D-02
   Bfn.  Coefficient  Atom+Function         Bfn.  Coefficient  Atom+Function  
  ----- ------------  ---------------      ----- ------------  ---------------
    12      0.681144  1 P  pz                 9      0.406117  1 P  pz         

 Vector    6  Occ=1.000000D+00  E=-6.398215D-01
              MO Center= -1.1D-10, -8.7D-15,  2.6D-01, r^2= 1.3D+00
   Bfn.  Coefficient  Atom+Function         Bfn.  Coefficient  Atom+Function  
  ----- ------------  ---------------      ----- ------------  ---------------
     6      0.716186  1 P  s                  5      0.562516  1 P  s          
     4     -0.340298  1 P  s                  3     -0.198680  1 P  s          
    18      0.150150  1 P  pz         

 Vector    7  Occ=1.000000D+00  E=-4.045357D-01
              MO Center= -3.0D-11,  1.4D-15,  4.4D-01, r^2= 1.8D+00
   Bfn.  Coefficient  Atom+Function         Bfn.  Coefficient  Atom+Function  
  ----- ------------  ---------------      ----- ------------  ---------------
    16      0.677097  1 P  px                55      0.221037  2 H  s          
    74     -0.221037  3 H  s          

 Vector    8  Occ=1.000000D+00  E=-3.311105D-01
              MO Center= -6.6D-11,  9.5D-15, -1.6D-01, r^2= 1.9D+00
   Bfn.  Coefficient  Atom+Function         Bfn.  Coefficient  Atom+Function  
  ----- ------------  ---------------      ----- ------------  ---------------
    18      0.803010  1 P  pz                 6     -0.550488  1 P  s          
     5     -0.269474  1 P  s                 21      0.200242  1 P  pz         
    53     -0.190385  1 P  fzzz              51     -0.177961  1 P  fyyz       
    46     -0.172331  1 P  fxxz              55      0.167263  2 H  s          
    74      0.167263  3 H  s                  4      0.165457  1 P  s          

 Vector    9  Occ=1.000000D+00  E=-2.843685D-01
              MO Center=  3.7D-11,  6.2D-15, -2.8D-02, r^2= 1.8D+00
   Bfn.  Coefficient  Atom+Function         Bfn.  Coefficient  Atom+Function  
  ----- ------------  ---------------      ----- ------------  ---------------
    17      1.081580  1 P  py                20      0.276340  1 P  py         
    52     -0.235214  1 P  fyzz              45     -0.226242  1 P  fxxy       
    50     -0.212597  1 P  fyyy              11     -0.180777  1 P  py         

 Vector   10  Occ=0.000000D+00  E=-6.082359D-02
              MO Center= -2.7D-10, -3.6D-15, -6.0D-02, r^2= 3.5D+00
   Bfn.  Coefficient  Atom+Function         Bfn.  Coefficient  Atom+Function  
  ----- ------------  ---------------      ----- ------------  ---------------
    16      1.122823  1 P  px                57     -0.649251  2 H  s          
    76      0.649251  3 H  s                 56     -0.487528  2 H  s          
    75      0.487528  3 H  s                 19      0.481213  1 P  px         
    23      0.396355  1 P  px                40     -0.359122  1 P  dxz        
    49     -0.329736  1 P  fxzz              44     -0.277359  1 P  fxxx       

 Vector   11  Occ=0.000000D+00  E=-4.476747D-02
              MO Center=  8.8D-10, -1.1D-14,  4.3D-01, r^2= 6.5D+00
   Bfn.  Coefficient  Atom+Function         Bfn.  Coefficient  Atom+Function  
  ----- ------------  ---------------      ----- ------------  ---------------
    22      1.266098  1 P  s                 57     -1.077968  2 H  s          
    76     -1.077968  3 H  s                  6      0.615323  1 P  s          
    18      0.567373  1 P  pz                25      0.549388  1 P  pz         
     5      0.278427  1 P  s                 56     -0.215200  2 H  s          
    75     -0.215200  3 H  s                 38     -0.189204  1 P  dxx        

 Vector   12  Occ=0.000000D+00  E= 1.205507D-02
              MO Center= -4.2D-10, -2.1D-14,  5.3D-01, r^2= 6.2D+00
   Bfn.  Coefficient  Atom+Function         Bfn.  Coefficient  Atom+Function  
  ----- ------------  ---------------      ----- ------------  ---------------
    22      2.858109  1 P  s                 56     -1.197039  2 H  s          
    75     -1.197039  3 H  s                  6      1.083234  1 P  s          
    18      1.000808  1 P  pz                21      0.810709  1 P  pz         
    57     -0.715538  2 H  s                 76     -0.715538  3 H  s          
    25      0.668936  1 P  pz                46     -0.318507  1 P  fxxz       

 Vector   13  Occ=0.000000D+00  E= 2.965129D-02
              MO Center= -3.1D-10, -3.0D-15,  4.1D-01, r^2= 1.3D+01
   Bfn.  Coefficient  Atom+Function         Bfn.  Coefficient  Atom+Function  
  ----- ------------  ---------------      ----- ------------  ---------------
    23      0.925788  1 P  px                57      0.789983  2 H  s          
    76     -0.789983  3 H  s                 19     -0.597774  1 P  px         
    13     -0.178876  1 P  px                16      0.177366  1 P  px         
    49     -0.155916  1 P  fxzz       

 Vector   14  Occ=0.000000D+00  E= 3.671984D-02
              MO Center=  3.8D-10, -3.3D-13, -8.8D-01, r^2= 1.3D+01
   Bfn.  Coefficient  Atom+Function         Bfn.  Coefficient  Atom+Function  
  ----- ------------  ---------------      ----- ------------  ---------------
    25      1.406539  1 P  pz                21     -1.192195  1 P  pz         
    22     -1.104134  1 P  s                 56      0.527738  2 H  s          
    75      0.527738  3 H  s                  6     -0.344509  1 P  s          
    18     -0.229455  1 P  pz                57      0.220553  2 H  s          
    76      0.220553  3 H  s          

 Vector   15  Occ=0.000000D+00  E= 3.728799D-02
              MO Center=  3.9D-11,  3.5D-13, -8.7D-02, r^2= 1.4D+01
   Bfn.  Coefficient  Atom+Function         Bfn.  Coefficient  Atom+Function  
  ----- ------------  ---------------      ----- ------------  ---------------
    24      1.596768  1 P  py                20     -0.847447  1 P  py         
    14     -0.175961  1 P  py         

 Vector   16  Occ=0.000000D+00  E= 6.330830D-02
              MO Center= -6.8D-11,  7.4D-15, -4.3D-02, r^2= 3.8D+00
   Bfn.  Coefficient  Atom+Function         Bfn.  Coefficient  Atom+Function  
  ----- ------------  ---------------      ----- ------------  ---------------
    22      2.390041  1 P  s                 57     -1.136533  2 H  s          
    76     -1.136533  3 H  s                 25      0.903030  1 P  pz         
    43     -0.684952  1 P  dzz               18      0.468517  1 P  pz         
    38      0.342068  1 P  dxx                6      0.215232  1 P  s          
    56     -0.188167  2 H  s                 75     -0.188167  3 H  s          

 Vector   17  Occ=0.000000D+00  E= 6.798372D-02
              MO Center= -1.7D-10,  5.1D-15,  5.5D-02, r^2= 3.1D+00
   Bfn.  Coefficient  Atom+Function         Bfn.  Coefficient  Atom+Function  
  ----- ------------  ---------------      ----- ------------  ---------------
    39      1.297391  1 P  dxy               33      0.310505  1 P  dxy        

 Vector   18  Occ=0.000000D+00  E= 7.593380D-02
              MO Center=  1.2D-10, -9.3D-15, -9.1D-02, r^2= 3.2D+00
   Bfn.  Coefficient  Atom+Function         Bfn.  Coefficient  Atom+Function  
  ----- ------------  ---------------      ----- ------------  ---------------
    42      1.336477  1 P  dyz               36      0.300510  1 P  dyz        
    17     -0.278320  1 P  py         

 Vector   19  Occ=0.000000D+00  E= 8.872621D-02
              MO Center=  2.4D-09,  3.3D-15,  6.7D-01, r^2= 1.6D+01
   Bfn.  Coefficient  Atom+Function         Bfn.  Coefficient  Atom+Function  
  ----- ------------  ---------------      ----- ------------  ---------------
    22     10.856284  1 P  s                 57     -6.113621  2 H  s          
    76     -6.113621  3 H  s                 25      4.096470  1 P  pz         
     6     -1.687164  1 P  s                 56      1.489690  2 H  s          
    75      1.489690  3 H  s                 21     -1.399123  1 P  pz         
    18     -0.873358  1 P  pz                38     -0.452099  1 P  dxx        

 Vector   20  Occ=0.000000D+00  E= 9.065368D-02
              MO Center= -2.5D-09,  2.2D-15,  1.1D-02, r^2= 1.8D+01
   Bfn.  Coefficient  Atom+Function         Bfn.  Coefficient  Atom+Function  
  ----- ------------  ---------------      ----- ------------  ---------------
    57      5.781311  2 H  s                 76     -5.781311  3 H  s          
    23     -4.504307  1 P  px                19      2.170597  1 P  px         
    56     -2.001840  2 H  s                 75      2.001840  3 H  s          
    16      1.058317  1 P  px                40      0.521670  1 P  dxz        
    49     -0.267080  1 P  fxzz              47     -0.263200  1 P  fxyy       

 Vector   21  Occ=0.000000D+00  E= 1.950412D-01
              MO Center=  6.7D-11, -7.5D-14,  5.2D-01, r^2= 8.2D+00
   Bfn.  Coefficient  Atom+Function         Bfn.  Coefficient  Atom+Function  
  ----- ------------  ---------------      ----- ------------  ---------------
    22      6.881686  1 P  s                  6      3.142470  1 P  s          
    56     -3.034401  2 H  s                 75     -3.034401  3 H  s          
    57     -2.365140  2 H  s                 76     -2.365140  3 H  s          
    25      2.005770  1 P  pz                18      1.950978  1 P  pz         
    41     -1.503269  1 P  dyy               21      1.322127  1 P  pz         

 Vector   22  Occ=0.000000D+00  E= 2.163190D-01
              MO Center=  4.0D-10,  1.7D-15,  8.6D-02, r^2= 1.0D+01
   Bfn.  Coefficient  Atom+Function         Bfn.  Coefficient  Atom+Function  
  ----- ------------  ---------------      ----- ------------  ---------------
    19      2.671625  1 P  px                16     -1.734013  1 P  px         
    23     -1.720286  1 P  px                49      0.524083  1 P  fxzz       
    44      0.500771  1 P  fxxx              47      0.463841  1 P  fxyy       
    55     -0.264963  2 H  s                 74      0.264963  3 H  s          
    57     -0.217146  2 H  s                 76      0.217146  3 H  s          

 Vector   23  Occ=0.000000D+00  E= 2.281161D-01
              MO Center= -5.5D-10,  2.0D-14, -1.0D+00, r^2= 9.4D+00
   Bfn.  Coefficient  Atom+Function         Bfn.  Coefficient  Atom+Function  
  ----- ------------  ---------------      ----- ------------  ---------------
    21      4.590771  1 P  pz                 6      3.190858  1 P  s          
    56     -2.471371  2 H  s                 75     -2.471371  3 H  s          
    25     -2.356874  1 P  pz                57      0.625963  2 H  s          
    76      0.625963  3 H  s                 18     -0.591821  1 P  pz         
    43      0.495009  1 P  dzz               41     -0.489537  1 P  dyy        

 Vector   24  Occ=0.000000D+00  E= 2.400746D-01
              MO Center=  1.2D-12,  5.4D-15, -1.2D-01, r^2= 9.7D+00
   Bfn.  Coefficient  Atom+Function         Bfn.  Coefficient  Atom+Function  
  ----- ------------  ---------------      ----- ------------  ---------------
    20      2.936133  1 P  py                17     -2.613052  1 P  py         
    24     -1.859184  1 P  py                45      0.741490  1 P  fxxy       
    52      0.741957  1 P  fyzz              50      0.725178  1 P  fyyy       
    14      0.299487  1 P  py         

 Vector   25  Occ=0.000000D+00  E= 2.950656D-01
              MO Center=  1.8D-10,  4.3D-15,  3.0D-01, r^2= 8.1D+00
   Bfn.  Coefficient  Atom+Function         Bfn.  Coefficient  Atom+Function  
  ----- ------------  ---------------      ----- ------------  ---------------
    56     -5.890128  2 H  s                 75      5.890128  3 H  s          
    19      5.586096  1 P  px                40      4.027053  1 P  dxz        
    57      3.585047  2 H  s                 76     -3.585047  3 H  s          
    23     -3.312248  1 P  px                16      1.899585  1 P  px         
    47     -0.632969  1 P  fxyy              64      0.615481  2 H  px         

 Vector   26  Occ=0.000000D+00  E= 3.231196D-01
              MO Center= -1.8D-11,  2.1D-14,  3.2D-01, r^2= 4.8D+00
   Bfn.  Coefficient  Atom+Function         Bfn.  Coefficient  Atom+Function  
  ----- ------------  ---------------      ----- ------------  ---------------
    22      3.336601  1 P  s                  6      2.325964  1 P  s          
    38     -2.236404  1 P  dxx               57     -1.262311  2 H  s          
    76     -1.262311  3 H  s                 25      1.063149  1 P  pz         
    18      1.028399  1 P  pz                64      0.823915  2 H  px         
    83     -0.823915  3 H  px                41     -0.768923  1 P  dyy        

 Vector   27  Occ=0.000000D+00  E= 3.669656D-01
              MO Center= -1.8D-10, -1.1D-14,  1.8D-01, r^2= 6.6D+00
   Bfn.  Coefficient  Atom+Function         Bfn.  Coefficient  Atom+Function  
  ----- ------------  ---------------      ----- ------------  ---------------
    56      4.044335  2 H  s                 75     -4.044335  3 H  s          
    19     -3.645261  1 P  px                57     -2.914804  2 H  s          
    76      2.914804  3 H  s                 23      2.432629  1 P  px         
    16     -1.745652  1 P  px                66     -1.164116  2 H  pz         
    85      1.164116  3 H  pz                40     -0.715621  1 P  dxz        

 Vector   28  Occ=0.000000D+00  E= 3.724784D-01
              MO Center= -3.6D-10,  3.1D-15,  5.4D-01, r^2= 4.2D+00
   Bfn.  Coefficient  Atom+Function         Bfn.  Coefficient  Atom+Function  
  ----- ------------  ---------------      ----- ------------  ---------------
    39      2.028810  1 P  dxy               65     -1.217185  2 H  py         
    84      1.217185  3 H  py         

 Vector   29  Occ=0.000000D+00  E= 3.789774D-01
              MO Center=  9.6D-10,  2.1D-14,  4.6D-01, r^2= 9.3D+00
   Bfn.  Coefficient  Atom+Function         Bfn.  Coefficient  Atom+Function  
  ----- ------------  ---------------      ----- ------------  ---------------
    22      7.132124  1 P  s                 56      5.911994  2 H  s          
    75      5.911994  3 H  s                 21     -4.430824  1 P  pz         
    57     -4.191920  2 H  s                 76     -4.191920  3 H  s          
     6     -3.720586  1 P  s                 25      3.049495  1 P  pz         
    43     -2.947501  1 P  dzz               18     -2.753361  1 P  pz         

 Vector   30  Occ=0.000000D+00  E= 4.112364D-01
              MO Center=  3.5D-10, -2.8D-14,  6.1D-01, r^2= 4.4D+00
   Bfn.  Coefficient  Atom+Function         Bfn.  Coefficient  Atom+Function  
  ----- ------------  ---------------      ----- ------------  ---------------
    42      2.199527  1 P  dyz               20      1.437997  1 P  py         
    65     -1.417697  2 H  py                84     -1.417697  3 H  py         
    17      1.319449  1 P  py                45     -0.461153  1 P  fxxy       
    24     -0.429624  1 P  py                52     -0.413832  1 P  fyzz       
    50     -0.356368  1 P  fyyy              14     -0.266858  1 P  py         

 Vector   31  Occ=0.000000D+00  E= 4.576113D-01
              MO Center= -1.1D-10, -3.6D-15,  3.2D-01, r^2= 4.9D+00
   Bfn.  Coefficient  Atom+Function         Bfn.  Coefficient  Atom+Function  
  ----- ------------  ---------------      ----- ------------  ---------------
    43      2.284391  1 P  dzz               21      1.562098  1 P  pz         
     6     -1.469142  1 P  s                 66     -1.388708  2 H  pz         
    85     -1.388708  3 H  pz                55     -0.962175  2 H  s          
    74     -0.962175  3 H  s                 38     -0.749636  1 P  dxx        
    18      0.707801  1 P  pz                56      0.618020  2 H  s          

 Vector   32  Occ=0.000000D+00  E= 4.587546D-01
              MO Center= -4.5D-10,  7.8D-17,  8.0D-01, r^2= 4.5D+00
   Bfn.  Coefficient  Atom+Function         Bfn.  Coefficient  Atom+Function  
  ----- ------------  ---------------      ----- ------------  ---------------
    40      1.948364  1 P  dxz               56      1.634257  2 H  s          
    75     -1.634257  3 H  s                 55     -1.550712  2 H  s          
    74      1.550712  3 H  s                 57     -1.473497  2 H  s          
    76      1.473497  3 H  s                 64     -1.074729  2 H  px         
    83     -1.074729  3 H  px                16      0.647373  1 P  px         

 Vector   33  Occ=0.000000D+00  E= 6.569992D-01
              MO Center= -3.0D-10, -2.2D-15,  1.7D-01, r^2= 5.7D+00
   Bfn.  Coefficient  Atom+Function         Bfn.  Coefficient  Atom+Function  
  ----- ------------  ---------------      ----- ------------  ---------------
     6     14.284196  1 P  s                 18      8.209429  1 P  pz         
    56     -6.992091  2 H  s                 75     -6.992091  3 H  s          
    21      4.134467  1 P  pz                64      2.290294  2 H  px         
    83     -2.290294  3 H  px                41     -2.242001  1 P  dyy        
    51     -2.120666  1 P  fyyz              53     -2.125428  1 P  fzzz       


                     DFT Final Beta Molecular Orbital Analysis
                     -----------------------------------------

 Vector    1  Occ=1.000000D+00  E=-7.666716D+01
              MO Center= -7.7D-15,  8.9D-18, -1.2D-01, r^2= 4.1D-03
   Bfn.  Coefficient  Atom+Function         Bfn.  Coefficient  Atom+Function  
  ----- ------------  ---------------      ----- ------------  ---------------
     2      0.645174  1 P  s                  1      0.419485  1 P  s          

 Vector    2  Occ=1.000000D+00  E=-6.459262D+00
              MO Center= -5.9D-12,  6.3D-16, -1.1D-01, r^2= 9.1D-02
   Bfn.  Coefficient  Atom+Function         Bfn.  Coefficient  Atom+Function  
  ----- ------------  ---------------      ----- ------------  ---------------
     4      0.610557  1 P  s                  3      0.491665  1 P  s          
     2     -0.310324  1 P  s          

 Vector    3  Occ=1.000000D+00  E=-4.640046D+00
              MO Center=  4.9D-12,  1.2D-16, -1.2D-01, r^2= 8.3D-02
   Bfn.  Coefficient  Atom+Function         Bfn.  Coefficient  Atom+Function  
  ----- ------------  ---------------      ----- ------------  ---------------
    10      0.681623  1 P  px                 7      0.405908  1 P  px         

 Vector    4  Occ=1.000000D+00  E=-4.637518D+00
              MO Center= -6.9D-13,  7.0D-16, -1.2D-01, r^2= 8.3D-02
   Bfn.  Coefficient  Atom+Function         Bfn.  Coefficient  Atom+Function  
  ----- ------------  ---------------      ----- ------------  ---------------
    12      0.681558  1 P  pz                 9      0.406021  1 P  pz         

 Vector    5  Occ=1.000000D+00  E=-4.636739D+00
              MO Center= -1.8D-13, -8.9D-16, -1.2D-01, r^2= 8.3D-02
   Bfn.  Coefficient  Atom+Function         Bfn.  Coefficient  Atom+Function  
  ----- ------------  ---------------      ----- ------------  ---------------
    11      0.682664  1 P  py                 8      0.405682  1 P  py         

 Vector    6  Occ=1.000000D+00  E=-6.154160D-01
              MO Center= -1.2D-10, -7.8D-15,  3.0D-01, r^2= 1.3D+00
   Bfn.  Coefficient  Atom+Function         Bfn.  Coefficient  Atom+Function  
  ----- ------------  ---------------      ----- ------------  ---------------
     6      0.702107  1 P  s                  5      0.536812  1 P  s          
     4     -0.339691  1 P  s                  3     -0.188482  1 P  s          
    18      0.150048  1 P  pz         

 Vector    7  Occ=1.000000D+00  E=-4.009568D-01
              MO Center= -5.6D-11, -5.8D-16,  4.5D-01, r^2= 1.8D+00
   Bfn.  Coefficient  Atom+Function         Bfn.  Coefficient  Atom+Function  
  ----- ------------  ---------------      ----- ------------  ---------------
    16      0.698390  1 P  px                55      0.229925  2 H  s          
    74     -0.229925  3 H  s                 47     -0.185721  1 P  fxyy       
    44     -0.153702  1 P  fxxx       

 Vector    8  Occ=1.000000D+00  E=-3.232950D-01
              MO Center= -1.3D-10,  1.5D-14, -2.4D-01, r^2= 1.9D+00
   Bfn.  Coefficient  Atom+Function         Bfn.  Coefficient  Atom+Function  
  ----- ------------  ---------------      ----- ------------  ---------------
    18      0.853438  1 P  pz                 6     -0.576117  1 P  s          
     5     -0.259367  1 P  s                 51     -0.226265  1 P  fyyz       
    53     -0.204048  1 P  fzzz              21      0.195130  1 P  pz         
    46     -0.183189  1 P  fxxz               4      0.175970  1 P  s          
    55      0.159630  2 H  s                 74      0.159630  3 H  s          

 Vector    9  Occ=0.000000D+00  E=-2.242357D-01
              MO Center= -4.9D-12,  7.3D-15, -2.2D-02, r^2= 2.1D+00
   Bfn.  Coefficient  Atom+Function         Bfn.  Coefficient  Atom+Function  
  ----- ------------  ---------------      ----- ------------  ---------------
    17      1.203090  1 P  py                50     -0.312660  1 P  fyyy       
    20      0.300366  1 P  py                52     -0.293663  1 P  fyzz       
    45     -0.284068  1 P  fxxy              11     -0.162581  1 P  py         

 Vector   10  Occ=0.000000D+00  E=-5.893746D-02
              MO Center= -3.1D-10,  4.2D-15, -9.4D-02, r^2= 3.6D+00
   Bfn.  Coefficient  Atom+Function         Bfn.  Coefficient  Atom+Function  
  ----- ------------  ---------------      ----- ------------  ---------------
    16      1.107293  1 P  px                57     -0.680647  2 H  s          
    76      0.680647  3 H  s                 19      0.442916  1 P  px         
    56     -0.441784  2 H  s                 75      0.441784  3 H  s          
    23      0.428396  1 P  px                40     -0.403541  1 P  dxz        
    49     -0.313605  1 P  fxzz              47     -0.287842  1 P  fxyy       

 Vector   11  Occ=0.000000D+00  E=-3.252755D-02
              MO Center=  1.0D-09, -7.4D-15,  5.7D-01, r^2= 7.4D+00
   Bfn.  Coefficient  Atom+Function         Bfn.  Coefficient  Atom+Function  
  ----- ------------  ---------------      ----- ------------  ---------------
    22      1.624598  1 P  s                 57     -1.334999  2 H  s          
    76     -1.334999  3 H  s                 25      0.690181  1 P  pz         
     6      0.518227  1 P  s                 18      0.425392  1 P  pz         
     5      0.272455  1 P  s                  4     -0.180887  1 P  s          
    38     -0.161919  1 P  dxx        

 Vector   12  Occ=0.000000D+00  E= 2.871683D-02
              MO Center= -1.8D-09, -2.7D-14,  6.2D-01, r^2= 5.6D+00
   Bfn.  Coefficient  Atom+Function         Bfn.  Coefficient  Atom+Function  
  ----- ------------  ---------------      ----- ------------  ---------------
    22      2.780983  1 P  s                 56     -1.081745  2 H  s          
    75     -1.081745  3 H  s                  6      1.071043  1 P  s          
    18      0.903423  1 P  pz                25      0.860868  1 P  pz         
    57     -0.801273  2 H  s                 76     -0.801273  3 H  s          
    21      0.630063  1 P  pz                38     -0.379887  1 P  dxx        

 Vector   13  Occ=0.000000D+00  E= 3.291170D-02
              MO Center=  8.9D-10, -4.6D-15,  4.6D-01, r^2= 1.3D+01
   Bfn.  Coefficient  Atom+Function         Bfn.  Coefficient  Atom+Function  
  ----- ------------  ---------------      ----- ------------  ---------------
    23      0.906362  1 P  px                57      0.834929  2 H  s          
    76     -0.834929  3 H  s                 19     -0.646109  1 P  px         
    13     -0.168993  1 P  px                40     -0.154368  1 P  dxz        

 Vector   14  Occ=0.000000D+00  E= 3.968956D-02
              MO Center=  1.6D-10,  4.6D-14, -1.1D+00, r^2= 1.2D+01
   Bfn.  Coefficient  Atom+Function         Bfn.  Coefficient  Atom+Function  
  ----- ------------  ---------------      ----- ------------  ---------------
    25     -1.422080  1 P  pz                21      1.323995  1 P  pz         
    22      1.172503  1 P  s                 56     -0.688619  2 H  s          
    75     -0.688619  3 H  s                  6      0.518738  1 P  s          
    18      0.371739  1 P  pz                57     -0.170156  2 H  s          
    76     -0.170156  3 H  s          

 Vector   15  Occ=0.000000D+00  E= 5.326058D-02
              MO Center=  4.5D-11, -3.7D-14, -9.1D-02, r^2= 1.4D+01
   Bfn.  Coefficient  Atom+Function         Bfn.  Coefficient  Atom+Function  
  ----- ------------  ---------------      ----- ------------  ---------------
    24      1.695250  1 P  py                20     -1.020494  1 P  py         
    14     -0.169888  1 P  py         

 Vector   16  Occ=0.000000D+00  E= 6.430771D-02
              MO Center= -1.9D-10,  2.2D-14, -8.9D-02, r^2= 4.1D+00
   Bfn.  Coefficient  Atom+Function         Bfn.  Coefficient  Atom+Function  
  ----- ------------  ---------------      ----- ------------  ---------------
    22      2.592822  1 P  s                 57     -1.145563  2 H  s          
    76     -1.145563  3 H  s                 25      0.990988  1 P  pz         
    43     -0.687016  1 P  dzz               18      0.613553  1 P  pz         
     6      0.412702  1 P  s                 56     -0.358598  2 H  s          
    75     -0.358598  3 H  s                 38      0.297442  1 P  dxx        

 Vector   17  Occ=0.000000D+00  E= 8.370998D-02
              MO Center= -2.1D-10,  8.5D-16,  8.5D-02, r^2= 3.2D+00
   Bfn.  Coefficient  Atom+Function         Bfn.  Coefficient  Atom+Function  
  ----- ------------  ---------------      ----- ------------  ---------------
    39      1.287066  1 P  dxy               33      0.246894  1 P  dxy        
    65      0.177326  2 H  py                84     -0.177326  3 H  py         

 Vector   18  Occ=0.000000D+00  E= 9.058917D-02
              MO Center=  1.4D-10,  2.5D-14, -8.4D-02, r^2= 3.3D+00
   Bfn.  Coefficient  Atom+Function         Bfn.  Coefficient  Atom+Function  
  ----- ------------  ---------------      ----- ------------  ---------------
    42      1.337456  1 P  dyz               17     -0.325196  1 P  py         
    36      0.238836  1 P  dyz               65      0.155904  2 H  py         
    84      0.155904  3 H  py         

 Vector   19  Occ=0.000000D+00  E= 9.225361D-02
              MO Center=  1.0D-09, -1.7D-15, -4.3D-02, r^2= 1.8D+01
   Bfn.  Coefficient  Atom+Function         Bfn.  Coefficient  Atom+Function  
  ----- ------------  ---------------      ----- ------------  ---------------
    57      5.783013  2 H  s                 76     -5.783013  3 H  s          
    23     -4.537081  1 P  px                19      2.210670  1 P  px         
    56     -2.028448  2 H  s                 75      2.028448  3 H  s          
    16      1.077709  1 P  px                40      0.522581  1 P  dxz        
    47     -0.281305  1 P  fxyy              49     -0.265050  1 P  fxzz       

 Vector   20  Occ=0.000000D+00  E= 9.542255D-02
              MO Center= -6.5D-10, -3.4D-14,  7.3D-01, r^2= 1.6D+01
   Bfn.  Coefficient  Atom+Function         Bfn.  Coefficient  Atom+Function  
  ----- ------------  ---------------      ----- ------------  ---------------
    22     10.582058  1 P  s                 57     -6.016724  2 H  s          
    76     -6.016724  3 H  s                 25      4.001988  1 P  pz         
     6     -1.918917  1 P  s                 56      1.735168  2 H  s          
    75      1.735168  3 H  s                 21     -1.536901  1 P  pz         
    18     -0.994792  1 P  pz                38     -0.466316  1 P  dxx        

 Vector   21  Occ=0.000000D+00  E= 2.096393D-01
              MO Center=  1.2D-10, -2.2D-14,  4.6D-01, r^2= 8.4D+00
   Bfn.  Coefficient  Atom+Function         Bfn.  Coefficient  Atom+Function  
  ----- ------------  ---------------      ----- ------------  ---------------
    22      7.476826  1 P  s                  6      2.965416  1 P  s          
    56     -2.910767  2 H  s                 75     -2.910767  3 H  s          
    57     -2.685502  2 H  s                 76     -2.685502  3 H  s          
    25      2.203047  1 P  pz                18      1.905195  1 P  pz         
    41     -1.555865  1 P  dyy               21      1.221193  1 P  pz         

 Vector   22  Occ=0.000000D+00  E= 2.204372D-01
              MO Center=  1.4D-10,  1.0D-15,  1.4D-01, r^2= 1.0D+01
   Bfn.  Coefficient  Atom+Function         Bfn.  Coefficient  Atom+Function  
  ----- ------------  ---------------      ----- ------------  ---------------
    19      2.564042  1 P  px                16     -1.820315  1 P  px         
    23     -1.623792  1 P  px                49      0.551120  1 P  fxzz       
    44      0.524289  1 P  fxxx              47      0.515619  1 P  fxyy       
    57     -0.330197  2 H  s                 76      0.330197  3 H  s          
    55     -0.274608  2 H  s                 74      0.274608  3 H  s          

 Vector   23  Occ=0.000000D+00  E= 2.317282D-01
              MO Center= -4.6D-10, -1.4D-15, -9.9D-01, r^2= 9.4D+00
   Bfn.  Coefficient  Atom+Function         Bfn.  Coefficient  Atom+Function  
  ----- ------------  ---------------      ----- ------------  ---------------
    21      4.549652  1 P  pz                 6      3.060494  1 P  s          
    56     -2.387916  2 H  s                 75     -2.387916  3 H  s          
    25     -2.328854  1 P  pz                18     -0.677480  1 P  pz         
    57      0.588384  2 H  s                 76      0.588384  3 H  s          
    43      0.483414  1 P  dzz               64      0.472530  2 H  px         

 Vector   24  Occ=0.000000D+00  E= 2.649338D-01
              MO Center= -2.1D-11,  1.7D-14, -1.3D-01, r^2= 9.1D+00
   Bfn.  Coefficient  Atom+Function         Bfn.  Coefficient  Atom+Function  
  ----- ------------  ---------------      ----- ------------  ---------------
    20     -2.919092  1 P  py                17      2.894252  1 P  py         
    24      1.789576  1 P  py                50     -0.841933  1 P  fyyy       
    45     -0.820559  1 P  fxxy              52     -0.823660  1 P  fyzz       
    14     -0.361548  1 P  py         

 Vector   25  Occ=0.000000D+00  E= 2.959445D-01
              MO Center=  2.7D-10, -7.1D-16,  3.1D-01, r^2= 7.8D+00
   Bfn.  Coefficient  Atom+Function         Bfn.  Coefficient  Atom+Function  
  ----- ------------  ---------------      ----- ------------  ---------------
    56     -5.714016  2 H  s                 75      5.714016  3 H  s          
    19      5.436020  1 P  px                40      3.957252  1 P  dxz        
    57      3.470562  2 H  s                 76     -3.470562  3 H  s          
    23     -3.219036  1 P  px                16      1.806023  1 P  px         
    64      0.624353  2 H  px                83      0.624353  3 H  px         

 Vector   26  Occ=0.000000D+00  E= 3.250237D-01
              MO Center=  1.2D-10, -1.6D-14,  3.1D-01, r^2= 4.7D+00
   Bfn.  Coefficient  Atom+Function         Bfn.  Coefficient  Atom+Function  
  ----- ------------  ---------------      ----- ------------  ---------------
    22      3.077859  1 P  s                  6      2.483095  1 P  s          
    38     -2.175931  1 P  dxx               57     -1.099644  2 H  s          
    76     -1.099644  3 H  s                 18      1.080129  1 P  pz         
    25      0.899606  1 P  pz                64      0.875847  2 H  px         
    83     -0.875847  3 H  px                41     -0.699028  1 P  dyy        

 Vector   27  Occ=0.000000D+00  E= 3.669263D-01
              MO Center= -4.1D-10,  1.3D-14,  1.6D-01, r^2= 6.8D+00
   Bfn.  Coefficient  Atom+Function         Bfn.  Coefficient  Atom+Function  
  ----- ------------  ---------------      ----- ------------  ---------------
    56     -4.234097  2 H  s                 75      4.234097  3 H  s          
    19      3.884854  1 P  px                57      3.017409  2 H  s          
    76     -3.017409  3 H  s                 23     -2.553891  1 P  px         
    16      1.770420  1 P  px                66      1.177913  2 H  pz         
    85     -1.177913  3 H  pz                40      0.889655  1 P  dxz        

 Vector   28  Occ=0.000000D+00  E= 3.731453D-01
              MO Center= -3.4D-10, -2.6D-15,  5.1D-01, r^2= 4.3D+00
   Bfn.  Coefficient  Atom+Function         Bfn.  Coefficient  Atom+Function  
  ----- ------------  ---------------      ----- ------------  ---------------
    39      2.075394  1 P  dxy               65     -1.216286  2 H  py         
    84      1.216286  3 H  py         

 Vector   29  Occ=0.000000D+00  E= 3.885569D-01
              MO Center=  1.1D-09,  2.0D-14,  4.2D-01, r^2= 9.2D+00
   Bfn.  Coefficient  Atom+Function         Bfn.  Coefficient  Atom+Function  
  ----- ------------  ---------------      ----- ------------  ---------------
    22      6.919559  1 P  s                 56      6.089685  2 H  s          
    75      6.089685  3 H  s                 21     -4.575049  1 P  pz         
    57     -4.101395  2 H  s                 76     -4.101395  3 H  s          
     6     -3.908257  1 P  s                 43     -3.037239  1 P  dzz        
    25      3.011901  1 P  pz                18     -2.909609  1 P  pz         

 Vector   30  Occ=0.000000D+00  E= 4.170950D-01
              MO Center=  3.7D-10, -2.6D-14,  6.0D-01, r^2= 4.4D+00
   Bfn.  Coefficient  Atom+Function         Bfn.  Coefficient  Atom+Function  
  ----- ------------  ---------------      ----- ------------  ---------------
    42      2.249533  1 P  dyz               17      1.514026  1 P  py         
    65     -1.421868  2 H  py                84     -1.421868  3 H  py         
    20      1.391674  1 P  py                45     -0.524195  1 P  fxxy       
    52     -0.485282  1 P  fyzz              50     -0.439141  1 P  fyyy       
    24     -0.399093  1 P  py                14     -0.321309  1 P  py         

 Vector   31  Occ=0.000000D+00  E= 4.621853D-01
              MO Center=  1.9D-10, -6.2D-15,  3.5D-01, r^2= 4.8D+00
   Bfn.  Coefficient  Atom+Function         Bfn.  Coefficient  Atom+Function  
  ----- ------------  ---------------      ----- ------------  ---------------
    43      2.278676  1 P  dzz                6     -1.786420  1 P  s          
    21      1.443526  1 P  pz                66     -1.432683  2 H  pz         
    85     -1.432683  3 H  pz                55     -0.942227  2 H  s          
    74     -0.942227  3 H  s                 56      0.766173  2 H  s          
    75      0.766173  3 H  s                 38     -0.731000  1 P  dxx        

 Vector   32  Occ=0.000000D+00  E= 4.638972D-01
              MO Center= -7.0D-10, -7.4D-15,  7.8D-01, r^2= 4.5D+00
   Bfn.  Coefficient  Atom+Function         Bfn.  Coefficient  Atom+Function  
  ----- ------------  ---------------      ----- ------------  ---------------
    40      1.954034  1 P  dxz               56      1.697372  2 H  s          
    75     -1.697372  3 H  s                 55     -1.548750  2 H  s          
    74      1.548750  3 H  s                 57     -1.476859  2 H  s          
    76      1.476859  3 H  s                 64     -1.099337  2 H  px         
    83     -1.099337  3 H  px                16      0.744936  1 P  px         

 Vector   33  Occ=0.000000D+00  E= 6.730483D-01
              MO Center= -2.1D-10, -5.3D-15,  2.4D-01, r^2= 5.8D+00
   Bfn.  Coefficient  Atom+Function         Bfn.  Coefficient  Atom+Function  
  ----- ------------  ---------------      ----- ------------  ---------------
     6     14.566396  1 P  s                 18      8.108229  1 P  pz         
    56     -6.933433  2 H  s                 75     -6.933433  3 H  s          
    21      4.167508  1 P  pz                64      2.352114  2 H  px         
    83     -2.352114  3 H  px                41     -2.257773  1 P  dyy        
    51     -2.067482  1 P  fyyz              55     -2.069553  2 H  s          


   alpha - beta orbital overlaps 
   ----------------------------- 


   alpha      1      2      3      4      5      6      7      8      9     10
    beta      1      2      5      3      4      6      7      8      9     10
 overlap   1.000  1.000  1.000  1.000  1.000  0.998  1.000  0.998  0.996  1.000


   alpha     11     12     13     14     15     16     17     18     19     20
    beta     11     12     13     14     15     16     17     18     20     19
 overlap   0.990  0.976  1.000  0.993  0.997  0.989  0.999  0.999  0.996  1.000


   alpha     21     22     23     24     25     26     27     28     29     30
    beta     21     22     23     24     25     26     27     28     29     30
 overlap   0.997  1.000  1.000  0.997  0.999  0.998  0.999  1.000  0.998  0.999


   alpha     31     32     33     34     35     36     37     38     39     40
    beta     31     32     33     34     37     35     38     36     39     40
 overlap   0.999  0.999  0.995  1.000  0.999  0.995  0.999  0.999  0.985  0.998


   alpha     41     42     43     44     45     46     47     48     49     50
    beta     41     42     43     44     45     46     48     47     49     50
 overlap   0.990  0.999  0.998  1.000  0.999  1.000  0.999  0.999  0.999  0.999


   alpha     51     52     53     54     55     56     57     58     59     60
    beta     52     51     53     54     55     56     57     58     59     60
 overlap   1.000  1.000  1.000  1.000  1.000  1.000  1.000  1.000  1.000  1.000


   alpha     61     62     63     64     65     66     67     68     69     70
    beta     61     62     63     64     65     66     67     68     69     70
 overlap   1.000  1.000  1.000  1.000  1.000  1.000  1.000  1.000  1.000  1.000


   alpha     71     72     73     74     75     76     77     78     79     80
    beta     71     72     73     74     75     76     77     78     79     80
 overlap   0.999  0.999  1.000  1.000  1.000  0.999  0.983  0.983  1.000  0.999


   alpha     81     82     83     84     85     86     87     88     89     90
    beta     81     82     83     84     85     86     87     88     89     90
 overlap   1.000  1.000  1.000  1.000  1.000  0.999  1.000  1.000  1.000  1.000


   alpha     91
    beta     91
 overlap   1.000

     --------------------------
     Expectation value of S2:  
     --------------------------
      <S2> =      0.7556 (Exact =     0.7500)


 center of mass
 --------------
 x =   0.00000000 y =   0.00000000 z =  -0.10505164

 moments of inertia (a.u.)
 ------------------
           6.531587238255           0.000000000000           0.000000000000
           0.000000000000          14.022311891522           0.000000000000
           0.000000000000           0.000000000000           7.490724653267

     Multipole analysis of the density
     ---------------------------------

     L   x y z        total         alpha         beta         nuclear
     -   - - -        -----         -----         ----         -------
     0   0 0 0     -0.000000     -9.000000     -8.000000     17.000000

     1   1 0 0      0.000000      0.000000      0.000000      0.000000
     1   0 1 0     -0.000000     -0.000000     -0.000000      0.000000
     1   0 0 1      0.238514      0.119547      0.118967      0.000000

     2   2 0 0    -10.722473     -9.637431     -8.517606      7.432565
     2   1 1 0     -0.000000      0.000000     -0.000000      0.000000
     2   1 0 1     -0.000000     -0.000000     -0.000000      0.000000
     2   0 2 0    -11.590135     -7.804954     -3.785181      0.000000
     2   0 1 1      0.000000     -0.000000      0.000000      0.000000
     2   0 0 2    -11.803040     -9.463031     -8.430560      6.090551


 Parallel integral file used     107 records with       0 large values


 Task  times  cpu:        2.9s     wall:        3.7s


                                NWChem Input Module
                                -------------------


 Summary of allocated global arrays
-----------------------------------
  No active global arrays



                         GA Statistics for process    0
                         ------------------------------

       create   destroy   get      put      acc     scatter   gather  read&inc
calls:  309      309     3754     1672     1405        0        0       66     
number of processes/call 2.19e+00 1.48e+00 2.41e+00 0.00e+00 0.00e+00
bytes total:             4.77e+07 7.98e+06 2.37e+07 0.00e+00 0.00e+00 5.28e+02
bytes remote:            2.82e+07 2.41e+06 1.54e+07 0.00e+00 0.00e+00 0.00e+00
Max memory consumed for GA by this process: 1415736 bytes

MA_summarize_allocated_blocks: starting scan ...
MA_summarize_allocated_blocks: scan completed: 0 heap blocks, 0 stack blocks
MA usage statistics:

	allocation statistics:
					      heap	     stack
					      ----	     -----
	current number of blocks	         0	         0
	maximum number of blocks	        23	        51
	current total bytes		         0	         0
	maximum total bytes		  10383432	  23827176
	maximum total K-bytes		     10384	     23828
	maximum total M-bytes		        11	        24


                                     CITATION
                                     --------
                Please cite the following reference when publishing
                           results obtained with NWChem:

                 M. Valiev, E.J. Bylaska, N. Govind, K. Kowalski,
              T.P. Straatsma, H.J.J. van Dam, D. Wang, J. Nieplocha,
                        E. Apra, T.L. Windus, W.A. de Jong
                 "NWChem: a comprehensive and scalable open-source
                  solution for large scale molecular simulations"
                      Comput. Phys. Commun. 181, 1477 (2010)
                           doi:10.1016/j.cpc.2010.04.018

                                      AUTHORS
                                      -------
          E. Apra, E. J. Bylaska, W. A. de Jong, N. Govind, K. Kowalski,
       T. P. Straatsma, M. Valiev, H. J. J. van Dam, D. Wang, T. L. Windus,
        J. Hammond, J. Autschbach, K. Bhaskaran-Nair, J. Brabec, K. Lopata,
       S. A. Fischer, S. Krishnamoorthy, W. Ma, M. Klemm, O. Villa, Y. Chen,
    V. Anisimov, F. Aquino, S. Hirata, M. T. Hackler, T. Risthaus, M. Malagoli,
       A. Marenich, A. Otero-de-la-Roza, J. Mullin, P. Nichols, R. Peverati,
     J. Pittner, Y. Zhao, P.-D. Fan, A. Fonari, M. Williamson, R. J. Harrison,
       J. R. Rehr, M. Dupuis, D. Silverstein, D. M. A. Smith, J. Nieplocha,
        V. Tipparaju, M. Krishnan, B. E. Van Kuiken, A. Vazquez-Mayagoitia,
        L. Jensen, M. Swart, Q. Wu, T. Van Voorhis, A. A. Auer, M. Nooijen,
      L. D. Crosby, E. Brown, G. Cisneros, G. I. Fann, H. Fruchtl, J. Garza,
        K. Hirao, R. A. Kendall, J. A. Nichols, K. Tsemekhman, K. Wolinski,
     J. Anchell, D. E. Bernholdt, P. Borowski, T. Clark, D. Clerc, H. Dachsel,
   M. J. O. Deegan, K. Dyall, D. Elwood, E. Glendening, M. Gutowski, A. C. Hess,
         J. Jaffe, B. G. Johnson, J. Ju, R. Kobayashi, R. Kutteh, Z. Lin,
   R. Littlefield, X. Long, B. Meng, T. Nakajima, S. Niu, L. Pollack, M. Rosing,
   K. Glaesemann, G. Sandrone, M. Stave, H. Taylor, G. Thomas, J. H. van Lenthe,
                               A. T. Wong, Z. Zhang.

 Total times  cpu:        3.0s     wall:        3.9s
