[1537795850.249355] [r8n4:8258 :0]         sys.c:744  MXM  WARN  Conflicting CPU frequencies detected, using: 2071.17
[1537795850.259865] [r8n4:8263 :0]         sys.c:744  MXM  WARN  Conflicting CPU frequencies detected, using: 2071.17
[1537795850.260353] [r8n4:8261 :0]         sys.c:744  MXM  WARN  Conflicting CPU frequencies detected, using: 2071.17
[1537795850.260559] [r8n4:8259 :0]         sys.c:744  MXM  WARN  Conflicting CPU frequencies detected, using: 2071.17
[1537795850.260688] [r8n4:8260 :0]         sys.c:744  MXM  WARN  Conflicting CPU frequencies detected, using: 2071.17
[1537795850.260927] [r8n4:8264 :0]         sys.c:744  MXM  WARN  Conflicting CPU frequencies detected, using: 2071.17
[1537795850.260988] [r8n4:8262 :0]         sys.c:744  MXM  WARN  Conflicting CPU frequencies detected, using: 2071.17
[1537795850.280214] [r8n4:8266 :0]         sys.c:744  MXM  WARN  Conflicting CPU frequencies detected, using: 2071.17
[1537795850.280266] [r8n4:8270 :0]         sys.c:744  MXM  WARN  Conflicting CPU frequencies detected, using: 2071.17
[1537795850.280462] [r8n4:8268 :0]         sys.c:744  MXM  WARN  Conflicting CPU frequencies detected, using: 2071.17
[1537795850.313027] [r8n4:8280 :0]         sys.c:744  MXM  WARN  Conflicting CPU frequencies detected, using: 2296.86
[1537795850.313048] [r8n4:8276 :0]         sys.c:744  MXM  WARN  Conflicting CPU frequencies detected, using: 2296.86
[1537795850.313271] [r8n4:8282 :0]         sys.c:744  MXM  WARN  Conflicting CPU frequencies detected, using: 2296.86
[1537795850.313349] [r8n4:8274 :0]         sys.c:744  MXM  WARN  Conflicting CPU frequencies detected, using: 2296.86
[1537795850.313385] [r8n4:8272 :0]         sys.c:744  MXM  WARN  Conflicting CPU frequencies detected, using: 2296.86
[1537795850.313432] [r8n4:8278 :0]         sys.c:744  MXM  WARN  Conflicting CPU frequencies detected, using: 2296.86
 argument  1 = /storage/home/bikashp/nwchem_run/rabeet/ip13g2/nwip13g2/S+.nw
                                         
                                         


              Northwest Computational Chemistry Package (NWChem) 6.6
              ------------------------------------------------------


                    Environmental Molecular Sciences Laboratory
                       Pacific Northwest National Laboratory
                                Richland, WA 99352

                              Copyright (c) 1994-2015
                       Pacific Northwest National Laboratory
                            Battelle Memorial Institute

             NWChem is an open-source computational chemistry package
                        distributed under the terms of the
                      Educational Community License (ECL) 2.0
             A copy of the license is included with this distribution
                              in the LICENSE.TXT file

                                  ACKNOWLEDGMENT
                                  --------------

            This software and its documentation were developed at the
            EMSL at Pacific Northwest National Laboratory, a multiprogram
            national laboratory, operated for the U.S. Department of Energy
            by Battelle under Contract Number DE-AC05-76RL01830. Support
            for this work was provided by the Department of Energy Office
            of Biological and Environmental Research, Office of Basic
            Energy Sciences, and the Office of Advanced Scientific Computing.


           Job information
           ---------------

    hostname        = r8n4.niserhpc.org
    program         = /home/bikashp/Code/nwchem-6.6_tpssloc/bin/LINUX64/nwchem
    date            = Mon Sep 24 19:00:53 2018

    compiled        = Tue_Sep_18_16:24:59_2018
    source          = /home/bikashp/Code/nwchem-6.6_tpssloc
    nwchem branch   = 6.6
    nwchem revision = 27746
    ga revision     = 10594
    input           = /storage/home/bikashp/nwchem_run/rabeet/ip13g2/nwip13g2/S+.nw
    prefix          = S+.
    data base       = ./S+.db
    status          = startup
    nproc           =       16
    time left       =     -1s



           Memory information
           ------------------

    heap     =   13107196 doubles =    100.0 Mbytes
    stack    =   13107201 doubles =    100.0 Mbytes
    global   =   26214400 doubles =    200.0 Mbytes (distinct from heap & stack)
    total    =   52428797 doubles =    400.0 Mbytes
    verify   = yes
    hardfail = no 


           Directory information
           ---------------------

  0 permanent = .
  0 scratch   = .




                                NWChem Input Module
                                -------------------



 Scaling coordinates for geometry "geometry" by  1.889725989
 (inverse scale =  0.529177249)



                             Geometry "geometry" -> ""
                             -------------------------

 Output coordinates in angstroms (scale by  1.889725989 to convert to a.u.)

  No.       Tag          Charge          X              Y              Z
 ---- ---------------- ---------- -------------- -------------- --------------
    1 S                   16.0000     0.00000000     0.00000000     0.00000000

      Atomic Mass 
      ----------- 

      S                 31.972070


 Effective nuclear repulsion energy (a.u.)       0.0000000000

            Nuclear Dipole moment (a.u.) 
            ----------------------------
        X                 Y               Z
 ---------------- ---------------- ----------------
     0.0000000000     0.0000000000     0.0000000000


            XYZ format geometry
            -------------------
     1
 geometry
 S                     0.00000000     0.00000000     0.00000000



 Summary of "ao basis" -> "" (cartesian)
 ------------------------------------------------------------------------------
       Tag                 Description            Shells   Functions and Types
 ---------------- ------------------------------  ------  ---------------------
 *                     6-311++G(3df,3pd)              on all atoms 



                                 NWChem DFT Module
                                 -----------------


                      Basis "ao basis" -> "ao basis" (cartesian)
                      -----
  S (Sulphur)
  -----------
            Exponent  Coefficients 
       -------------- ---------------------------------------------------------
  1 S  9.34134000E+04  0.000743
  1 S  1.39617000E+04  0.005793
  1 S  3.16991000E+03  0.029954
  1 S  9.02456000E+02  0.119028
  1 S  2.97158000E+02  0.368432
  1 S  1.08702000E+02  0.577299

  2 S  1.08702000E+02  0.143186
  2 S  4.31553000E+01  0.624465
  2 S  1.81079000E+01  0.283366

  3 S  5.56009000E+00  1.000000

  4 S  2.13183000E+00  1.000000

  5 S  4.20403000E-01  1.000000

  6 S  1.36045000E-01  1.000000

  7 P  4.95040000E+02  0.008309
  7 P  1.17221000E+02  0.064024
  7 P  3.77749000E+01  0.277614
  7 P  1.40584000E+01  0.745076

  8 P  5.56574000E+00  0.613712
  8 P  2.26297000E+00  0.443818

  9 P  8.07994000E-01  1.000000

 10 P  2.77460000E-01  1.000000

 11 P  7.71410000E-02  1.000000

 12 S  4.05000000E-02  1.000000

 13 P  4.05000000E-02  1.000000

 14 D  2.60000000E+00  1.000000

 15 D  6.50000000E-01  1.000000

 16 D  1.62500000E-01  1.000000

 17 F  5.50000000E-01  1.000000



 Summary of "ao basis" -> "ao basis" (cartesian)
 ------------------------------------------------------------------------------
       Tag                 Description            Shells   Functions and Types
 ---------------- ------------------------------  ------  ---------------------
 S                     6-311++G(3df,3pd)            17       53   7s6p3d1f




 Summary of "ao basis" -> "ao basis" (cartesian)
 ------------------------------------------------------------------------------
       Tag                 Description            Shells   Functions and Types
 ---------------- ------------------------------  ------  ---------------------
 S                     6-311++G(3df,3pd)            17       53   7s6p3d1f


  Caching 1-el integrals 

            General Information
            -------------------
          SCF calculation type: DFT
          Wavefunction type:  spin polarized.
          No. of atoms     :     1
          No. of electrons :    15
           Alpha electrons :     9
            Beta electrons :     6
          Charge           :     1
          Spin multiplicity:     4
          Use of symmetry is: off; symmetry adaption is: off
          Maximum number of iterations: ***
          AO basis - number of functions:    53
                     number of shells:    17
          Convergence on energy requested: 1.00D-06
          Convergence on density requested: 1.00D-05
          Convergence on gradient requested: 5.00D-04

              XC Information
              --------------
                  TPSS metaGGA Exchange Functional  1.000          
             TPSS03 metaGGA Correlation Functional  1.000          

             Grid Information
             ----------------
          Grid used for XC integration:  medium    
          Radial quadrature: Mura-Knowles        
          Angular quadrature: Lebedev. 
          Tag              B.-S. Rad. Rad. Pts. Rad. Cut. Ang. Pts.
          ---              ---------- --------- --------- ---------
          S                   1.00       88           8.0       590
          Grid pruning is: on 
          Number of quadrature shells:    88
          Spatial weights used:  Erf1

          Convergence Information
          -----------------------
          Convergence aids based upon iterative change in 
          total energy or number of iterations. 
          Levelshifting, if invoked, occurs when the 
          HOMO/LUMO gap drops below (HL_TOL): 1.00D-02
          DIIS, if invoked, will attempt to extrapolate 
          using up to (NFOCK): 10 stored Fock matrices.

                    Damping( 0%)  Levelshifting(0.5)       DIIS
                  --------------- ------------------- ---------------
          dE  on:    start            ASAP                start   
          dE off:    2 iters        *** iters           *** iters 


      Screening Tolerance Information
      -------------------------------
          Density screening/tol_rho: 1.00D-10
          AO Gaussian exp screening on grid/accAOfunc:  14
          CD Gaussian exp screening on grid/accCDfunc:  20
          XC Gaussian exp screening on grid/accXCfunc:  20
          Schwarz screening/accCoul: 1.00D-08


      Superposition of Atomic Density Guess
      -------------------------------------

 Sum of atomic energies:        -397.48025101

 Renormalizing density from      16.00 to     15

      Non-variational initial energy
      ------------------------------

 Total energy =    -381.277192
 1-e energy   =    -514.991343
 2-e energy   =     133.714151
 HOMO         =      -0.828271
 LUMO         =      -0.828271

   Time after variat. SCF:      0.4
   Time prior to 1st pass:      0.4

 #quartets = 1.178D+04 #integrals = 1.645D+05 #direct =  0.0% #cached =100.0%


 Integral file          = ./S+.aoints.00
 Record size in doubles =    65536    No. of integs per rec  =    43688
 Max. records in memory =        4    Max. records in file   = 11667430
 No. of bits per label  =        8    No. of bits per value  =       64


File balance: exchanges=     0  moved=     0  time=   0.0


 Grid_pts file          = ./S+.gridpts.00
 Record size in doubles =  12289        No. of grid_pts per rec  =   3070
 Max. records in memory =      3        Max. recs in file   =  62221233


           Memory utilization after 1st SCF pass: 
           Heap Space remaining (MW):       12.81            12805276
          Stack Space remaining (MW):       13.11            13106660

   convergence    iter        energy       DeltaE   RMS-Dens  Diis-err    time
 ---------------- ----- ----------------- --------- --------- ---------  ------
 d= 0,ls=0.0,diis     1   -397.6597345913 -3.98D+02  2.20D-02  2.13D+00     0.7
                                                     2.93D-02  2.26D+00
 d= 0,ls=0.0,diis     2   -397.7395925538 -7.99D-02  8.75D-03  4.98D-01     0.7
                                                     1.12D-02  4.70D-01
 d= 0,ls=0.0,diis     3   -397.7917828959 -5.22D-02  1.07D-03  2.80D-04     0.8
                                                     1.64D-03  4.21D-04
 d= 0,ls=0.0,diis     4   -397.7902038772  1.58D-03  3.85D-04  6.59D-05     0.9
                                                     4.58D-04  5.49D-05
 d= 0,ls=0.0,diis     5   -397.7903550029 -1.51D-04  8.57D-05  1.18D-06     1.0
                                                     6.19D-05  5.59D-07
  Resetting Diis
 d= 0,ls=0.0,diis     6   -397.7903342241  2.08D-05  7.78D-06  2.20D-08     1.1
                                                     7.22D-06  1.64D-08
 d= 0,ls=0.0,diis     7   -397.7903366526 -2.43D-06  8.46D-08  4.70D-12     1.2
                                                     1.28D-07  5.02D-12
 d= 0,ls=0.0,diis     8   -397.7903365584  9.41D-08  2.40D-08  1.17D-12     1.3
                                                     2.84D-08  1.06D-12


         Total DFT energy =     -397.790336558444
      One electron energy =     -542.442109695406
           Coulomb energy =      170.005823395350
          Exchange energy =      -24.765869269891
       Correlation energy =       -0.588180988496
 Nuclear repulsion energy =        0.000000000000

 Numeric. integr. density =       14.999999999638

     Total iterative time =      0.9s



                    DFT Final Alpha Molecular Orbital Analysis
                    ------------------------------------------

 Vector    1  Occ=1.000000D+00  E=-8.892170D+01
              MO Center= -5.3D-17,  7.6D-17,  2.1D-17, r^2= 3.6D-03
   Bfn.  Coefficient  Atom+Function         Bfn.  Coefficient  Atom+Function  
  ----- ------------  ---------------      ----- ------------  ---------------
     2      0.653602  1 S  s                  1      0.411296  1 S  s          

 Vector    2  Occ=1.000000D+00  E=-8.302227D+00
              MO Center=  2.5D-15,  2.7D-15,  1.2D-15, r^2= 7.7D-02
   Bfn.  Coefficient  Atom+Function         Bfn.  Coefficient  Atom+Function  
  ----- ------------  ---------------      ----- ------------  ---------------
     4      0.597379  1 S  s                  3      0.504049  1 S  s          
     2     -0.319110  1 S  s          

 Vector    3  Occ=1.000000D+00  E=-6.285987D+00
              MO Center= -1.7D-15, -1.9D-15, -1.9D-15, r^2= 6.9D-02
   Bfn.  Coefficient  Atom+Function         Bfn.  Coefficient  Atom+Function  
  ----- ------------  ---------------      ----- ------------  ---------------
    11      0.431697  1 S  py                10      0.412215  1 S  px         
    12      0.377458  1 S  pz                 8      0.230748  1 S  py         
     7      0.220335  1 S  px                 9      0.201757  1 S  pz         

 Vector    4  Occ=1.000000D+00  E=-6.285987D+00
              MO Center= -1.1D-16,  4.1D-16,  4.1D-16, r^2= 6.9D-02
   Bfn.  Coefficient  Atom+Function         Bfn.  Coefficient  Atom+Function  
  ----- ------------  ---------------      ----- ------------  ---------------
    10      0.529521  1 S  px                12     -0.454613  1 S  pz         
     7      0.283037  1 S  px                 9     -0.242997  1 S  pz         

 Vector    5  Occ=1.000000D+00  E=-6.285987D+00
              MO Center=  2.2D-16,  1.1D-16,  4.5D-16, r^2= 6.9D-02
   Bfn.  Coefficient  Atom+Function         Bfn.  Coefficient  Atom+Function  
  ----- ------------  ---------------      ----- ------------  ---------------
    11      0.548364  1 S  py                12     -0.386795  1 S  pz         
     8      0.293109  1 S  py                10     -0.220100  1 S  px         
     9     -0.206747  1 S  pz         

 Vector    6  Occ=1.000000D+00  E=-1.118112D+00
              MO Center=  4.6D-14,  4.5D-14,  4.7D-14, r^2= 8.8D-01
   Bfn.  Coefficient  Atom+Function         Bfn.  Coefficient  Atom+Function  
  ----- ------------  ---------------      ----- ------------  ---------------
     6      0.795219  1 S  s                  5      0.706103  1 S  s          
     4     -0.438058  1 S  s                  3     -0.229709  1 S  s          

 Vector    7  Occ=1.000000D+00  E=-7.160050D-01
              MO Center=  1.8D-14,  1.5D-14,  2.4D-14, r^2= 1.2D+00
   Bfn.  Coefficient  Atom+Function         Bfn.  Coefficient  Atom+Function  
  ----- ------------  ---------------      ----- ------------  ---------------
    17      0.639485  1 S  py                18     -0.322182  1 S  pz         
    14      0.274652  1 S  py                11     -0.191725  1 S  py         
    16     -0.150752  1 S  px         

 Vector    8  Occ=1.000000D+00  E=-7.160050D-01
              MO Center=  2.4D-14,  2.0D-14,  8.6D-15, r^2= 1.2D+00
   Bfn.  Coefficient  Atom+Function         Bfn.  Coefficient  Atom+Function  
  ----- ------------  ---------------      ----- ------------  ---------------
    18     -0.515074  1 S  pz                16      0.500115  1 S  px         
    15     -0.221219  1 S  pz                13      0.214794  1 S  px         
    12      0.154425  1 S  pz         

 Vector    9  Occ=1.000000D+00  E=-7.160050D-01
              MO Center= -3.2D-14, -1.3D-14, -1.7D-14, r^2= 1.2D+00
   Bfn.  Coefficient  Atom+Function         Bfn.  Coefficient  Atom+Function  
  ----- ------------  ---------------      ----- ------------  ---------------
    16      0.512472  1 S  px                18      0.407879  1 S  pz         
    17      0.326306  1 S  py                13      0.220102  1 S  px         
    15      0.175180  1 S  pz                10     -0.153645  1 S  px         

 Vector   10  Occ=0.000000D+00  E=-2.061981D-01
              MO Center=  1.8D-13,  2.0D-13,  2.0D-13, r^2= 6.4D+00
   Bfn.  Coefficient  Atom+Function         Bfn.  Coefficient  Atom+Function  
  ----- ------------  ---------------      ----- ------------  ---------------
    22      1.174584  1 S  s                  5     -0.514175  1 S  s          
     6     -0.410231  1 S  s                  4      0.195521  1 S  s          

 Vector   11  Occ=0.000000D+00  E=-1.900791D-01
              MO Center= -3.8D-14, -8.1D-15, -4.0D-15, r^2= 2.2D+00
   Bfn.  Coefficient  Atom+Function         Bfn.  Coefficient  Atom+Function  
  ----- ------------  ---------------      ----- ------------  ---------------
    38      0.705259  1 S  dxx               39      0.442041  1 S  dxy        
    41     -0.386098  1 S  dyy               32      0.319855  1 S  dxx        
    43     -0.319160  1 S  dzz               42     -0.233591  1 S  dyz        
    33      0.200479  1 S  dxy               35     -0.175107  1 S  dyy        

 Vector   12  Occ=0.000000D+00  E=-1.900791D-01
              MO Center=  4.0D-15,  1.3D-16, -1.3D-14, r^2= 2.2D+00
   Bfn.  Coefficient  Atom+Function         Bfn.  Coefficient  Atom+Function  
  ----- ------------  ---------------      ----- ------------  ---------------
    43      0.695094  1 S  dzz               41     -0.572632  1 S  dyy        
    37      0.315245  1 S  dzz               39      0.303519  1 S  dxy        
    35     -0.259705  1 S  dyy        

 Vector   13  Occ=0.000000D+00  E=-1.900791D-01
              MO Center= -9.5D-15, -3.7D-15,  1.3D-14, r^2= 2.2D+00
   Bfn.  Coefficient  Atom+Function         Bfn.  Coefficient  Atom+Function  
  ----- ------------  ---------------      ----- ------------  ---------------
    39      0.960136  1 S  dxy               42     -0.637516  1 S  dyz        
    33      0.435450  1 S  dxy               41      0.330125  1 S  dyy        
    36     -0.289132  1 S  dyz               38     -0.275655  1 S  dxx        
    40      0.250407  1 S  dxz        

 Vector   14  Occ=0.000000D+00  E=-1.900791D-01
              MO Center= -2.2D-14,  3.6D-16, -1.5D-15, r^2= 2.2D+00
   Bfn.  Coefficient  Atom+Function         Bfn.  Coefficient  Atom+Function  
  ----- ------------  ---------------      ----- ------------  ---------------
    40      1.289871  1 S  dxz               34      0.584994  1 S  dxz        
    42      0.240465  1 S  dyz               39     -0.206891  1 S  dxy        

 Vector   15  Occ=0.000000D+00  E=-1.900791D-01
              MO Center= -1.3D-14, -6.9D-15, -2.5D-14, r^2= 2.2D+00
   Bfn.  Coefficient  Atom+Function         Bfn.  Coefficient  Atom+Function  
  ----- ------------  ---------------      ----- ------------  ---------------
    42      1.111975  1 S  dyz               39      0.717407  1 S  dxy        
    36      0.504313  1 S  dyz               33      0.325365  1 S  dxy        

 Vector   16  Occ=0.000000D+00  E=-1.282210D-01
              MO Center= -1.5D-13, -2.3D-13, -1.7D-13, r^2= 9.1D+00
   Bfn.  Coefficient  Atom+Function         Bfn.  Coefficient  Atom+Function  
  ----- ------------  ---------------      ----- ------------  ---------------
    24      0.753053  1 S  py                25      0.544270  1 S  pz         
    23      0.535750  1 S  px         

 Vector   17  Occ=0.000000D+00  E=-1.282210D-01
              MO Center=  3.9D-15,  1.0D-14,  9.5D-15, r^2= 9.1D+00
   Bfn.  Coefficient  Atom+Function         Bfn.  Coefficient  Atom+Function  
  ----- ------------  ---------------      ----- ------------  ---------------
    23      0.918358  1 S  px                24     -0.524645  1 S  py         
    25     -0.178081  1 S  pz                16     -0.165648  1 S  px         
    13     -0.159234  1 S  px         

 Vector   18  Occ=0.000000D+00  E=-1.282210D-01
              MO Center=  2.3D-14,  2.5D-14, -2.7D-14, r^2= 9.1D+00
   Bfn.  Coefficient  Atom+Function         Bfn.  Coefficient  Atom+Function  
  ----- ------------  ---------------      ----- ------------  ---------------
    25      0.906865  1 S  pz                24     -0.554982  1 S  py         
    18     -0.163575  1 S  pz                15     -0.157241  1 S  pz         

 Vector   19  Occ=0.000000D+00  E= 6.953610D-02
              MO Center=  1.6D-12,  5.0D-14, -2.5D-13, r^2= 1.1D+01
   Bfn.  Coefficient  Atom+Function         Bfn.  Coefficient  Atom+Function  
  ----- ------------  ---------------      ----- ------------  ---------------
    19      2.871196  1 S  px                23     -2.188061  1 S  px         
    16     -1.287079  1 S  px                21     -0.480500  1 S  pz         
    25      0.366176  1 S  pz                44      0.253064  1 S  fxxx       
    47      0.253064  1 S  fxyy              49      0.253064  1 S  fxzz       
    18      0.215395  1 S  pz         

 Vector   20  Occ=0.000000D+00  E= 6.953610D-02
              MO Center=  4.8D-13,  5.8D-14,  2.8D-12, r^2= 1.1D+01
   Bfn.  Coefficient  Atom+Function         Bfn.  Coefficient  Atom+Function  
  ----- ------------  ---------------      ----- ------------  ---------------
    21      2.871990  1 S  pz                25     -2.188666  1 S  pz         
    18     -1.287434  1 S  pz                19      0.479328  1 S  px         
    23     -0.365283  1 S  px                46      0.253134  1 S  fxxz       
    51      0.253134  1 S  fyyz              53      0.253134  1 S  fzzz       
    16     -0.214870  1 S  px         

 Vector   21  Occ=0.000000D+00  E= 6.953610D-02
              MO Center= -5.0D-14,  2.2D-12, -1.7D-14, r^2= 1.1D+01
   Bfn.  Coefficient  Atom+Function         Bfn.  Coefficient  Atom+Function  
  ----- ------------  ---------------      ----- ------------  ---------------
    20      2.910712  1 S  py                24     -2.218175  1 S  py         
    17     -1.304793  1 S  py                45      0.256546  1 S  fxxy       
    50      0.256546  1 S  fyyy              52      0.256546  1 S  fyzz       

 Vector   22  Occ=0.000000D+00  E= 7.529217D-02
              MO Center= -1.9D-12, -2.3D-12, -2.5D-12, r^2= 8.0D+00
   Bfn.  Coefficient  Atom+Function         Bfn.  Coefficient  Atom+Function  
  ----- ------------  ---------------      ----- ------------  ---------------
    22      1.995329  1 S  s                 38     -1.351753  1 S  dxx        
    41     -1.351753  1 S  dyy               43     -1.351753  1 S  dzz        
     6      1.225617  1 S  s                  4     -0.300170  1 S  s          
    32     -0.256877  1 S  dxx               35     -0.256877  1 S  dyy        
    37     -0.256877  1 S  dzz                5      0.247396  1 S  s          

 Vector   23  Occ=0.000000D+00  E= 5.086899D-01
              MO Center= -7.6D-15,  5.3D-15, -4.3D-15, r^2= 1.8D+00
   Bfn.  Coefficient  Atom+Function         Bfn.  Coefficient  Atom+Function  
  ----- ------------  ---------------      ----- ------------  ---------------
    32      0.800440  1 S  dxx               38     -0.683849  1 S  dxx        
    37     -0.678068  1 S  dzz               43      0.579302  1 S  dzz        
    36      0.511608  1 S  dyz               42     -0.437088  1 S  dyz        
    33     -0.324051  1 S  dxy               39      0.276850  1 S  dxy        
    34      0.213668  1 S  dxz               40     -0.182545  1 S  dxz        


                     DFT Final Beta Molecular Orbital Analysis
                     -----------------------------------------

 Vector    1  Occ=1.000000D+00  E=-8.890344D+01
              MO Center= -2.1D-17, -4.9D-19, -2.0D-17, r^2= 3.6D-03
   Bfn.  Coefficient  Atom+Function         Bfn.  Coefficient  Atom+Function  
  ----- ------------  ---------------      ----- ------------  ---------------
     2      0.653643  1 S  s                  1      0.411346  1 S  s          

 Vector    2  Occ=1.000000D+00  E=-8.288128D+00
              MO Center=  3.9D-15,  2.2D-15,  1.6D-15, r^2= 7.7D-02
   Bfn.  Coefficient  Atom+Function         Bfn.  Coefficient  Atom+Function  
  ----- ------------  ---------------      ----- ------------  ---------------
     4      0.605168  1 S  s                  3      0.500738  1 S  s          
     2     -0.318734  1 S  s          

 Vector    3  Occ=1.000000D+00  E=-6.264658D+00
              MO Center= -1.6D-15, -2.2D-15, -2.1D-15, r^2= 6.9D-02
   Bfn.  Coefficient  Atom+Function         Bfn.  Coefficient  Atom+Function  
  ----- ------------  ---------------      ----- ------------  ---------------
    11      0.422457  1 S  py                12      0.419151  1 S  pz         
    10      0.383705  1 S  px                 8      0.224702  1 S  py         
     9      0.222943  1 S  pz                 7      0.204090  1 S  px         

 Vector    4  Occ=1.000000D+00  E=-6.264658D+00
              MO Center=  2.0D-17,  1.3D-15, -2.2D-16, r^2= 6.9D-02
   Bfn.  Coefficient  Atom+Function         Bfn.  Coefficient  Atom+Function  
  ----- ------------  ---------------      ----- ------------  ---------------
    11      0.543138  1 S  py                10     -0.426219  1 S  px         
     8      0.288891  1 S  py                 7     -0.226702  1 S  px         
    12     -0.157247  1 S  pz         

 Vector    5  Occ=1.000000D+00  E=-6.264658D+00
              MO Center= -5.1D-16,  2.1D-16,  9.9D-16, r^2= 6.9D-02
   Bfn.  Coefficient  Atom+Function         Bfn.  Coefficient  Atom+Function  
  ----- ------------  ---------------      ----- ------------  ---------------
    12      0.548610  1 S  pz                10     -0.415326  1 S  px         
     9      0.291801  1 S  pz                 7     -0.220908  1 S  px         
    11     -0.167089  1 S  py         

 Vector    6  Occ=1.000000D+00  E=-1.003577D+00
              MO Center=  4.9D-14,  5.1D-14,  5.2D-14, r^2= 9.4D-01
   Bfn.  Coefficient  Atom+Function         Bfn.  Coefficient  Atom+Function  
  ----- ------------  ---------------      ----- ------------  ---------------
     6      0.965727  1 S  s                  5      0.462842  1 S  s          
     4     -0.448979  1 S  s                  3     -0.190420  1 S  s          

 Vector    7  Occ=0.000000D+00  E=-6.216303D-01
              MO Center=  1.9D-14,  2.7D-14,  2.5D-14, r^2= 1.3D+00
   Bfn.  Coefficient  Atom+Function         Bfn.  Coefficient  Atom+Function  
  ----- ------------  ---------------      ----- ------------  ---------------
    16      0.632590  1 S  px                17     -0.546645  1 S  py         
    13      0.180056  1 S  px                14     -0.155593  1 S  py         
    10     -0.151072  1 S  px         

 Vector    8  Occ=0.000000D+00  E=-6.216303D-01
              MO Center=  1.7D-14,  2.0D-14,  3.3D-14, r^2= 1.3D+00
   Bfn.  Coefficient  Atom+Function         Bfn.  Coefficient  Atom+Function  
  ----- ------------  ---------------      ----- ------------  ---------------
    18      0.572898  1 S  pz                17     -0.458215  1 S  py         
    16     -0.401060  1 S  px                15      0.163066  1 S  pz         

 Vector    9  Occ=0.000000D+00  E=-6.216303D-01
              MO Center= -1.2D-14, -1.5D-14, -3.2D-14, r^2= 1.3D+00
   Bfn.  Coefficient  Atom+Function         Bfn.  Coefficient  Atom+Function  
  ----- ------------  ---------------      ----- ------------  ---------------
    18      0.608916  1 S  pz                17      0.436166  1 S  py         
    16      0.371488  1 S  px                15      0.173317  1 S  pz         

 Vector   10  Occ=0.000000D+00  E=-1.687288D-01
              MO Center=  1.9D-13,  1.8D-13,  1.9D-13, r^2= 6.8D+00
   Bfn.  Coefficient  Atom+Function         Bfn.  Coefficient  Atom+Function  
  ----- ------------  ---------------      ----- ------------  ---------------
    22      1.266859  1 S  s                  5     -0.475585  1 S  s          
     6     -0.353406  1 S  s                  4      0.196103  1 S  s          

 Vector   11  Occ=0.000000D+00  E=-1.356163D-01
              MO Center= -1.2D-14, -2.7D-14,  5.3D-15, r^2= 2.3D+00
   Bfn.  Coefficient  Atom+Function         Bfn.  Coefficient  Atom+Function  
  ----- ------------  ---------------      ----- ------------  ---------------
    41     -0.730945  1 S  dyy               38      0.670176  1 S  dxx        
    35     -0.260317  1 S  dyy               32      0.238675  1 S  dxx        

 Vector   12  Occ=0.000000D+00  E=-1.356163D-01
              MO Center= -1.5D-15,  4.2D-15, -2.4D-14, r^2= 2.3D+00
   Bfn.  Coefficient  Atom+Function         Bfn.  Coefficient  Atom+Function  
  ----- ------------  ---------------      ----- ------------  ---------------
    43      0.796089  1 S  dzz               38     -0.458787  1 S  dxx        
    41     -0.337302  1 S  dyy               37      0.283517  1 S  dzz        
    39      0.216010  1 S  dxy               32     -0.163392  1 S  dxx        

 Vector   13  Occ=0.000000D+00  E=-1.356163D-01
              MO Center= -2.4D-14, -3.0D-15, -1.5D-15, r^2= 2.3D+00
   Bfn.  Coefficient  Atom+Function         Bfn.  Coefficient  Atom+Function  
  ----- ------------  ---------------      ----- ------------  ---------------
    40      1.071890  1 S  dxz               39     -0.760619  1 S  dxy        
    42      0.432794  1 S  dyz               34      0.381741  1 S  dxz        
    33     -0.270885  1 S  dxy               36      0.154134  1 S  dyz        

 Vector   14  Occ=0.000000D+00  E=-1.356163D-01
              MO Center=  5.6D-15, -1.3D-14, -1.5D-14, r^2= 2.3D+00
   Bfn.  Coefficient  Atom+Function         Bfn.  Coefficient  Atom+Function  
  ----- ------------  ---------------      ----- ------------  ---------------
    40      0.872165  1 S  dxz               42     -0.817407  1 S  dyz        
    39      0.743649  1 S  dxy               34      0.310611  1 S  dxz        
    36     -0.291110  1 S  dyz               33      0.264842  1 S  dxy        

 Vector   15  Occ=0.000000D+00  E=-1.356163D-01
              MO Center= -2.3D-14, -2.9D-14, -2.4D-14, r^2= 2.3D+00
   Bfn.  Coefficient  Atom+Function         Bfn.  Coefficient  Atom+Function  
  ----- ------------  ---------------      ----- ------------  ---------------
    42      1.060497  1 S  dyz               39      0.896512  1 S  dxy        
    36      0.377683  1 S  dyz               33      0.319282  1 S  dxy        
    40      0.224701  1 S  dxz        

 Vector   16  Occ=0.000000D+00  E=-9.774469D-02
              MO Center= -9.7D-14,  4.8D-14,  2.1D-14, r^2= 1.0D+01
   Bfn.  Coefficient  Atom+Function         Bfn.  Coefficient  Atom+Function  
  ----- ------------  ---------------      ----- ------------  ---------------
    23      1.232834  1 S  px                24     -0.405431  1 S  py         
    19     -0.340008  1 S  px                13     -0.167078  1 S  px         

 Vector   17  Occ=0.000000D+00  E=-9.774469D-02
              MO Center= -7.8D-15, -4.8D-14,  5.4D-14, r^2= 1.0D+01
   Bfn.  Coefficient  Atom+Function         Bfn.  Coefficient  Atom+Function  
  ----- ------------  ---------------      ----- ------------  ---------------
    24      1.033350  1 S  py                25     -0.743377  1 S  pz         
    20     -0.284992  1 S  py                23      0.274744  1 S  px         
    21      0.205019  1 S  pz         

 Vector   18  Occ=0.000000D+00  E=-9.774469D-02
              MO Center= -5.9D-14, -1.4D-13, -2.3D-13, r^2= 1.0D+01
   Bfn.  Coefficient  Atom+Function         Bfn.  Coefficient  Atom+Function  
  ----- ------------  ---------------      ----- ------------  ---------------
    25      1.063788  1 S  pz                24      0.680969  1 S  py         
    23      0.317082  1 S  px                21     -0.293386  1 S  pz         
    20     -0.187807  1 S  py         

 Vector   19  Occ=0.000000D+00  E= 1.008980D-01
              MO Center=  3.4D-12,  3.5D-13,  1.3D-13, r^2= 9.9D+00
   Bfn.  Coefficient  Atom+Function         Bfn.  Coefficient  Atom+Function  
  ----- ------------  ---------------      ----- ------------  ---------------
    19      2.931273  1 S  px                23     -2.109492  1 S  px         
    16     -1.484669  1 S  px                44      0.301749  1 S  fxxx       
    47      0.301749  1 S  fxyy              49      0.301749  1 S  fxzz       
    20      0.290364  1 S  py                24     -0.208960  1 S  py         

 Vector   20  Occ=0.000000D+00  E= 1.008980D-01
              MO Center= -1.4D-13,  3.7D-13,  3.4D-12, r^2= 9.9D+00
   Bfn.  Coefficient  Atom+Function         Bfn.  Coefficient  Atom+Function  
  ----- ------------  ---------------      ----- ------------  ---------------
    21      2.928012  1 S  pz                25     -2.107146  1 S  pz         
    18     -1.483018  1 S  pz                20      0.310541  1 S  py         
    46      0.301414  1 S  fxxz              51      0.301414  1 S  fyyz       
    53      0.301414  1 S  fzzz              24     -0.223481  1 S  py         
    17     -0.157287  1 S  py         

 Vector   21  Occ=0.000000D+00  E= 1.008980D-01
              MO Center= -2.2D-13,  2.4D-12, -2.6D-13, r^2= 9.9D+00
   Bfn.  Coefficient  Atom+Function         Bfn.  Coefficient  Atom+Function  
  ----- ------------  ---------------      ----- ------------  ---------------
    20      2.916441  1 S  py                24     -2.098819  1 S  py         
    17     -1.477157  1 S  py                21     -0.321581  1 S  pz         
    45      0.300223  1 S  fxxy              50      0.300223  1 S  fyyy       
    52      0.300223  1 S  fyzz              19     -0.278087  1 S  px         
    25      0.231426  1 S  pz                23      0.200125  1 S  px         

 Vector   22  Occ=0.000000D+00  E= 1.046019D-01
              MO Center= -3.0D-12, -3.1D-12, -3.2D-12, r^2= 7.7D+00
   Bfn.  Coefficient  Atom+Function         Bfn.  Coefficient  Atom+Function  
  ----- ------------  ---------------      ----- ------------  ---------------
    22      1.954412  1 S  s                  6      1.396387  1 S  s          
    38     -1.397174  1 S  dxx               41     -1.397174  1 S  dyy        
    43     -1.397174  1 S  dzz                4     -0.319253  1 S  s          
    32     -0.259108  1 S  dxx               35     -0.259108  1 S  dyy        
    37     -0.259108  1 S  dzz                5      0.197954  1 S  s          

 Vector   23  Occ=0.000000D+00  E= 5.999565D-01
              MO Center= -4.6D-16, -3.7D-15,  3.8D-15, r^2= 1.7D+00
   Bfn.  Coefficient  Atom+Function         Bfn.  Coefficient  Atom+Function  
  ----- ------------  ---------------      ----- ------------  ---------------
    35      0.871997  1 S  dyy               41     -0.692713  1 S  dyy        
    32     -0.655672  1 S  dxx               38      0.520865  1 S  dxx        
    34      0.381250  1 S  dxz               40     -0.302864  1 S  dxz        
    37     -0.216324  1 S  dzz               33      0.205572  1 S  dxy        
    36     -0.200440  1 S  dyz               29      0.178994  1 S  dyy        


   alpha - beta orbital overlaps 
   ----------------------------- 


   alpha      1      2      3      4      5      6      7      8      9     10
    beta      1      2      3      5      4      6      7      8      9     10
 overlap   1.000  1.000  0.997  0.902  0.905  0.999  0.729  0.703  0.948  0.999


   alpha     11     12     13     14     15     16     17     18     19     20
    beta     11     12     14     13     15     18     16     17     19     20
 overlap   0.799  0.886  0.782  0.871  0.961  0.898  0.970  0.915  0.971  0.968


   alpha     21     22     23     24     25     26     27     28     29     30
    beta     21     22     24     23     26     27     25     28     29     30
 overlap   0.986  0.999  0.711  0.784  0.663  0.701  0.738  0.981  0.984  0.993


   alpha     31     32     33     34     35     36     37     38     39     40
    beta     31     38     33     32     34     32     35     37     39     41
 overlap   1.000  0.638  0.703  0.752  0.795  0.536  0.739  0.817  0.970  0.995


   alpha     41     42     43     44     45     46     47     48     49     50
    beta     40     42     43     46     44     47     43     48     50     51
 overlap   0.968  1.000  0.640  0.929  0.910  0.928  0.700  1.000  0.952  0.893


   alpha     51     52     53
    beta     49     52     53
 overlap   0.909  1.000  1.000

     --------------------------
     Expectation value of S2:  
     --------------------------
      <S2> =      3.7518 (Exact =     3.7500)


 Parallel integral file used      16 records with       0 large values


 Task  times  cpu:        1.0s     wall:        1.6s


                                NWChem Input Module
                                -------------------


 Summary of allocated global arrays
-----------------------------------
  No active global arrays



                         GA Statistics for process    0
                         ------------------------------

       create   destroy   get      put      acc     scatter   gather  read&inc
calls:  273      273      878      774      193        0        0       52     
number of processes/call 1.80e+00 1.48e+00 3.81e+00 0.00e+00 0.00e+00
bytes total:             1.19e+07 4.89e+06 4.34e+06 0.00e+00 0.00e+00 4.16e+02
bytes remote:            1.14e+06 4.31e+05 1.02e+06 0.00e+00 0.00e+00 0.00e+00
Max memory consumed for GA by this process: 1415736 bytes

MA_summarize_allocated_blocks: starting scan ...
MA_summarize_allocated_blocks: scan completed: 0 heap blocks, 0 stack blocks
MA usage statistics:

	allocation statistics:
					      heap	     stack
					      ----	     -----
	current number of blocks	         0	         0
	maximum number of blocks	        23	        51
	current total bytes		         0	         0
	maximum total bytes		   2415384	  22513064
	maximum total K-bytes		      2416	     22514
	maximum total M-bytes		         3	        23


                                     CITATION
                                     --------
                Please cite the following reference when publishing
                           results obtained with NWChem:

                 M. Valiev, E.J. Bylaska, N. Govind, K. Kowalski,
              T.P. Straatsma, H.J.J. van Dam, D. Wang, J. Nieplocha,
                        E. Apra, T.L. Windus, W.A. de Jong
                 "NWChem: a comprehensive and scalable open-source
                  solution for large scale molecular simulations"
                      Comput. Phys. Commun. 181, 1477 (2010)
                           doi:10.1016/j.cpc.2010.04.018

                                      AUTHORS
                                      -------
          E. Apra, E. J. Bylaska, W. A. de Jong, N. Govind, K. Kowalski,
       T. P. Straatsma, M. Valiev, H. J. J. van Dam, D. Wang, T. L. Windus,
        J. Hammond, J. Autschbach, K. Bhaskaran-Nair, J. Brabec, K. Lopata,
       S. A. Fischer, S. Krishnamoorthy, W. Ma, M. Klemm, O. Villa, Y. Chen,
    V. Anisimov, F. Aquino, S. Hirata, M. T. Hackler, T. Risthaus, M. Malagoli,
       A. Marenich, A. Otero-de-la-Roza, J. Mullin, P. Nichols, R. Peverati,
     J. Pittner, Y. Zhao, P.-D. Fan, A. Fonari, M. Williamson, R. J. Harrison,
       J. R. Rehr, M. Dupuis, D. Silverstein, D. M. A. Smith, J. Nieplocha,
        V. Tipparaju, M. Krishnan, B. E. Van Kuiken, A. Vazquez-Mayagoitia,
        L. Jensen, M. Swart, Q. Wu, T. Van Voorhis, A. A. Auer, M. Nooijen,
      L. D. Crosby, E. Brown, G. Cisneros, G. I. Fann, H. Fruchtl, J. Garza,
        K. Hirao, R. A. Kendall, J. A. Nichols, K. Tsemekhman, K. Wolinski,
     J. Anchell, D. E. Bernholdt, P. Borowski, T. Clark, D. Clerc, H. Dachsel,
   M. J. O. Deegan, K. Dyall, D. Elwood, E. Glendening, M. Gutowski, A. C. Hess,
         J. Jaffe, B. G. Johnson, J. Ju, R. Kobayashi, R. Kutteh, Z. Lin,
   R. Littlefield, X. Long, B. Meng, T. Nakajima, S. Niu, L. Pollack, M. Rosing,
   K. Glaesemann, G. Sandrone, M. Stave, H. Taylor, G. Thomas, J. H. van Lenthe,
                               A. T. Wong, Z. Zhang.

 Total times  cpu:        1.0s     wall:        1.8s
