[1537795843.538431] [r8n4:8087 :0]         sys.c:744  MXM  WARN  Conflicting CPU frequencies detected, using: 2300.00
[1537795843.538931] [r8n4:8086 :0]         sys.c:744  MXM  WARN  Conflicting CPU frequencies detected, using: 2300.00
[1537795843.548023] [r8n4:8090 :0]         sys.c:744  MXM  WARN  Conflicting CPU frequencies detected, using: 2300.00
[1537795843.548072] [r8n4:8089 :0]         sys.c:744  MXM  WARN  Conflicting CPU frequencies detected, using: 2300.00
[1537795843.549340] [r8n4:8091 :0]         sys.c:744  MXM  WARN  Conflicting CPU frequencies detected, using: 2300.00
[1537795843.549556] [r8n4:8088 :0]         sys.c:744  MXM  WARN  Conflicting CPU frequencies detected, using: 2300.00
[1537795843.549784] [r8n4:8092 :0]         sys.c:744  MXM  WARN  Conflicting CPU frequencies detected, using: 2300.00
[1537795843.556989] [r8n4:8093 :0]         sys.c:744  MXM  WARN  Conflicting CPU frequencies detected, using: 2300.00
[1537795843.563942] [r8n4:8094 :0]         sys.c:744  MXM  WARN  Conflicting CPU frequencies detected, using: 2300.00
[1537795843.590432] [r8n4:8107 :0]         sys.c:744  MXM  WARN  Conflicting CPU frequencies detected, using: 2300.00
[1537795843.590974] [r8n4:8101 :0]         sys.c:744  MXM  WARN  Conflicting CPU frequencies detected, using: 2300.00
[1537795843.591221] [r8n4:8105 :0]         sys.c:744  MXM  WARN  Conflicting CPU frequencies detected, using: 2300.00
[1537795843.591249] [r8n4:8097 :0]         sys.c:744  MXM  WARN  Conflicting CPU frequencies detected, using: 2300.00
[1537795843.591339] [r8n4:8103 :0]         sys.c:744  MXM  WARN  Conflicting CPU frequencies detected, using: 2300.00
[1537795843.591397] [r8n4:8099 :0]         sys.c:744  MXM  WARN  Conflicting CPU frequencies detected, using: 2300.00
[1537795843.591535] [r8n4:8109 :0]         sys.c:744  MXM  WARN  Conflicting CPU frequencies detected, using: 2300.00
 argument  1 = /storage/home/bikashp/nwchem_run/rabeet/ip13g2/nwip13g2/S.nw
                                         
                                         


              Northwest Computational Chemistry Package (NWChem) 6.6
              ------------------------------------------------------


                    Environmental Molecular Sciences Laboratory
                       Pacific Northwest National Laboratory
                                Richland, WA 99352

                              Copyright (c) 1994-2015
                       Pacific Northwest National Laboratory
                            Battelle Memorial Institute

             NWChem is an open-source computational chemistry package
                        distributed under the terms of the
                      Educational Community License (ECL) 2.0
             A copy of the license is included with this distribution
                              in the LICENSE.TXT file

                                  ACKNOWLEDGMENT
                                  --------------

            This software and its documentation were developed at the
            EMSL at Pacific Northwest National Laboratory, a multiprogram
            national laboratory, operated for the U.S. Department of Energy
            by Battelle under Contract Number DE-AC05-76RL01830. Support
            for this work was provided by the Department of Energy Office
            of Biological and Environmental Research, Office of Basic
            Energy Sciences, and the Office of Advanced Scientific Computing.


           Job information
           ---------------

    hostname        = r8n4.niserhpc.org
    program         = /home/bikashp/Code/nwchem-6.6_tpssloc/bin/LINUX64/nwchem
    date            = Mon Sep 24 19:00:46 2018

    compiled        = Tue_Sep_18_16:24:59_2018
    source          = /home/bikashp/Code/nwchem-6.6_tpssloc
    nwchem branch   = 6.6
    nwchem revision = 27746
    ga revision     = 10594
    input           = /storage/home/bikashp/nwchem_run/rabeet/ip13g2/nwip13g2/S.nw
    prefix          = S.
    data base       = ./S.db
    status          = startup
    nproc           =       16
    time left       =     -1s



           Memory information
           ------------------

    heap     =   13107196 doubles =    100.0 Mbytes
    stack    =   13107201 doubles =    100.0 Mbytes
    global   =   26214400 doubles =    200.0 Mbytes (distinct from heap & stack)
    total    =   52428797 doubles =    400.0 Mbytes
    verify   = yes
    hardfail = no 


           Directory information
           ---------------------

  0 permanent = .
  0 scratch   = .




                                NWChem Input Module
                                -------------------



 Scaling coordinates for geometry "geometry" by  1.889725989
 (inverse scale =  0.529177249)



                             Geometry "geometry" -> ""
                             -------------------------

 Output coordinates in angstroms (scale by  1.889725989 to convert to a.u.)

  No.       Tag          Charge          X              Y              Z
 ---- ---------------- ---------- -------------- -------------- --------------
    1 S                   16.0000     0.00000000     0.00000000     0.00000000

      Atomic Mass 
      ----------- 

      S                 31.972070


 Effective nuclear repulsion energy (a.u.)       0.0000000000

            Nuclear Dipole moment (a.u.) 
            ----------------------------
        X                 Y               Z
 ---------------- ---------------- ----------------
     0.0000000000     0.0000000000     0.0000000000


            XYZ format geometry
            -------------------
     1
 geometry
 S                     0.00000000     0.00000000     0.00000000



 Summary of "ao basis" -> "" (cartesian)
 ------------------------------------------------------------------------------
       Tag                 Description            Shells   Functions and Types
 ---------------- ------------------------------  ------  ---------------------
 *                     6-311++G(3df,3pd)              on all atoms 



                                 NWChem DFT Module
                                 -----------------


                      Basis "ao basis" -> "ao basis" (cartesian)
                      -----
  S (Sulphur)
  -----------
            Exponent  Coefficients 
       -------------- ---------------------------------------------------------
  1 S  9.34134000E+04  0.000743
  1 S  1.39617000E+04  0.005793
  1 S  3.16991000E+03  0.029954
  1 S  9.02456000E+02  0.119028
  1 S  2.97158000E+02  0.368432
  1 S  1.08702000E+02  0.577299

  2 S  1.08702000E+02  0.143186
  2 S  4.31553000E+01  0.624465
  2 S  1.81079000E+01  0.283366

  3 S  5.56009000E+00  1.000000

  4 S  2.13183000E+00  1.000000

  5 S  4.20403000E-01  1.000000

  6 S  1.36045000E-01  1.000000

  7 P  4.95040000E+02  0.008309
  7 P  1.17221000E+02  0.064024
  7 P  3.77749000E+01  0.277614
  7 P  1.40584000E+01  0.745076

  8 P  5.56574000E+00  0.613712
  8 P  2.26297000E+00  0.443818

  9 P  8.07994000E-01  1.000000

 10 P  2.77460000E-01  1.000000

 11 P  7.71410000E-02  1.000000

 12 S  4.05000000E-02  1.000000

 13 P  4.05000000E-02  1.000000

 14 D  2.60000000E+00  1.000000

 15 D  6.50000000E-01  1.000000

 16 D  1.62500000E-01  1.000000

 17 F  5.50000000E-01  1.000000



 Summary of "ao basis" -> "ao basis" (cartesian)
 ------------------------------------------------------------------------------
       Tag                 Description            Shells   Functions and Types
 ---------------- ------------------------------  ------  ---------------------
 S                     6-311++G(3df,3pd)            17       53   7s6p3d1f




 Summary of "ao basis" -> "ao basis" (cartesian)
 ------------------------------------------------------------------------------
       Tag                 Description            Shells   Functions and Types
 ---------------- ------------------------------  ------  ---------------------
 S                     6-311++G(3df,3pd)            17       53   7s6p3d1f


  Caching 1-el integrals 

            General Information
            -------------------
          SCF calculation type: DFT
          Wavefunction type:  spin polarized.
          No. of atoms     :     1
          No. of electrons :    16
           Alpha electrons :     9
            Beta electrons :     7
          Charge           :     0
          Spin multiplicity:     3
          Use of symmetry is: off; symmetry adaption is: off
          Maximum number of iterations: ***
          AO basis - number of functions:    53
                     number of shells:    17
          Convergence on energy requested: 1.00D-06
          Convergence on density requested: 1.00D-05
          Convergence on gradient requested: 5.00D-04

              XC Information
              --------------
                  TPSS metaGGA Exchange Functional  1.000          
             TPSS03 metaGGA Correlation Functional  1.000          

             Grid Information
             ----------------
          Grid used for XC integration:  medium    
          Radial quadrature: Mura-Knowles        
          Angular quadrature: Lebedev. 
          Tag              B.-S. Rad. Rad. Pts. Rad. Cut. Ang. Pts.
          ---              ---------- --------- --------- ---------
          S                   1.00       88           8.0       590
          Grid pruning is: on 
          Number of quadrature shells:    88
          Spatial weights used:  Erf1

          Convergence Information
          -----------------------
          Convergence aids based upon iterative change in 
          total energy or number of iterations. 
          Levelshifting, if invoked, occurs when the 
          HOMO/LUMO gap drops below (HL_TOL): 1.00D-02
          DIIS, if invoked, will attempt to extrapolate 
          using up to (NFOCK): 10 stored Fock matrices.

                    Damping( 0%)  Levelshifting(0.5)       DIIS
                  --------------- ------------------- ---------------
          dE  on:    start            ASAP                start   
          dE off:    2 iters        *** iters           *** iters 


      Screening Tolerance Information
      -------------------------------
          Density screening/tol_rho: 1.00D-10
          AO Gaussian exp screening on grid/accAOfunc:  14
          CD Gaussian exp screening on grid/accCDfunc:  20
          XC Gaussian exp screening on grid/accXCfunc:  20
          Schwarz screening/accCoul: 1.00D-08


      Superposition of Atomic Density Guess
      -------------------------------------

 Sum of atomic energies:        -397.48025101

      Non-variational initial energy
      ------------------------------

 Total energy =    -397.187110
 1-e energy   =    -549.324099
 2-e energy   =     152.136989
 HOMO         =      -0.286162
 LUMO         =      -0.286162

   Time after variat. SCF:      0.4
   Time prior to 1st pass:      0.4

 #quartets = 1.178D+04 #integrals = 1.645D+05 #direct =  0.0% #cached =100.0%


 Integral file          = ./S.aoints.00
 Record size in doubles =    65536    No. of integs per rec  =    43688
 Max. records in memory =        4    Max. records in file   = 11667405
 No. of bits per label  =        8    No. of bits per value  =       64


File balance: exchanges=     0  moved=     0  time=   0.0


 Grid_pts file          = ./S.gridpts.00
 Record size in doubles =  12289        No. of grid_pts per rec  =   3070
 Max. records in memory =      3        Max. recs in file   =  62221101


           Memory utilization after 1st SCF pass: 
           Heap Space remaining (MW):       12.81            12805276
          Stack Space remaining (MW):       13.11            13106660

   convergence    iter        energy       DeltaE   RMS-Dens  Diis-err    time
 ---------------- ----- ----------------- --------- --------- ---------  ------
 d= 0,ls=0.0,diis     1   -398.1620714748 -3.98D+02  1.48D-02  2.05D-01     0.7
                                                     2.53D-02  1.74D-01
 d= 0,ls=0.5,diis     2   -398.1610262789  1.05D-03  4.40D-03  6.00D-02     0.8
                                                     1.76D-03  8.21D-03
 d= 0,ls=0.5,diis     3   -398.1710404568 -1.00D-02  1.64D-03  6.36D-03     0.9
                                                     7.42D-04  6.76D-04
 d= 0,ls=0.5,diis     4   -398.1721718156 -1.13D-03  5.88D-04  7.64D-04     0.9
                                                     4.30D-04  6.99D-05
 d= 0,ls=0.5,diis     5   -398.1720140269  1.58D-04  2.71D-04  1.26D-04     1.0
                                                     1.63D-04  2.07D-05
  Resetting Diis
 d= 0,ls=0.5,diis     6   -398.1721100281 -9.60D-05  1.28D-04  2.47D-05     1.1
                                                     7.49D-05  2.29D-06
 d= 0,ls=0.5,diis     7   -398.1721354219 -2.54D-05  5.76D-05  6.08D-06     1.2
                                                     2.13D-05  3.27D-07
 d= 0,ls=0.5,diis     8   -398.1721009923  3.44D-05  3.64D-05  1.79D-06     1.3
                                                     2.14D-05  1.59D-07
 d= 0,ls=0.5,diis     9   -398.1721267328 -2.57D-05  1.98D-05  6.73D-07     1.4
                                                     1.14D-05  1.19D-07
 d= 0,ls=0.5,diis    10   -398.1721254419  1.29D-06  1.11D-05  1.92D-07     1.5
                                                     4.51D-06  1.36D-08
 d= 0,ls=0.5,diis    11   -398.1721212847  4.16D-06  6.64D-06  5.73D-08     1.6
                                                     1.02D-06  1.99D-09
 d= 0,ls=0.5,diis    12   -398.1721197301  1.55D-06  4.20D-06  1.84D-08     1.6
                                                     6.84D-07  5.11D-10
 d= 0,ls=0.5,diis    13   -398.1721192582  4.72D-07  2.55D-06  6.12D-09     1.7
                                                     3.20D-07  1.94D-10


         Total DFT energy =     -398.172118865143
      One electron energy =     -548.803537876141
           Coulomb energy =      176.258443394991
          Exchange energy =      -24.996163244797
       Correlation energy =       -0.630861139195
 Nuclear repulsion energy =        0.000000000000

 Numeric. integr. density =       15.999999999419

     Total iterative time =      1.4s



                    DFT Final Alpha Molecular Orbital Analysis
                    ------------------------------------------

 Vector    1  Occ=1.000000D+00  E=-8.849249D+01
              MO Center= -3.9D-17, -7.7D-17, -2.1D-17, r^2= 3.6D-03
   Bfn.  Coefficient  Atom+Function         Bfn.  Coefficient  Atom+Function  
  ----- ------------  ---------------      ----- ------------  ---------------
     2      0.653601  1 S  s                  1      0.411304  1 S  s          

 Vector    2  Occ=1.000000D+00  E=-7.883161D+00
              MO Center= -3.8D-15, -2.3D-16, -1.3D-15, r^2= 7.7D-02
   Bfn.  Coefficient  Atom+Function         Bfn.  Coefficient  Atom+Function  
  ----- ------------  ---------------      ----- ------------  ---------------
     4      0.597361  1 S  s                  3      0.503375  1 S  s          
     2     -0.318911  1 S  s          

 Vector    3  Occ=1.000000D+00  E=-5.870610D+00
              MO Center=  1.1D-15,  2.9D-16, -1.8D-15, r^2= 6.9D-02
   Bfn.  Coefficient  Atom+Function         Bfn.  Coefficient  Atom+Function  
  ----- ------------  ---------------      ----- ------------  ---------------
    10      0.532981  1 S  px                12     -0.438524  1 S  pz         
     7      0.284511  1 S  px                 9     -0.234089  1 S  pz         

 Vector    4  Occ=1.000000D+00  E=-5.870610D+00
              MO Center= -7.3D-16,  4.5D-16, -1.7D-16, r^2= 6.9D-02
   Bfn.  Coefficient  Atom+Function         Bfn.  Coefficient  Atom+Function  
  ----- ------------  ---------------      ----- ------------  ---------------
    11      0.678437  1 S  py                 8      0.362157  1 S  py         
    12      0.193382  1 S  pz         

 Vector    5  Occ=1.000000D+00  E=-5.852722D+00
              MO Center=  1.3D-15, -7.5D-16,  2.3D-15, r^2= 6.9D-02
   Bfn.  Coefficient  Atom+Function         Bfn.  Coefficient  Atom+Function  
  ----- ------------  ---------------      ----- ------------  ---------------
    12      0.518689  1 S  pz                10      0.462276  1 S  px         
     9      0.276993  1 S  pz                 7      0.246867  1 S  px         

 Vector    6  Occ=1.000000D+00  E=-7.215924D-01
              MO Center= -9.4D-15, -1.4D-14,  3.9D-15, r^2= 9.5D-01
   Bfn.  Coefficient  Atom+Function         Bfn.  Coefficient  Atom+Function  
  ----- ------------  ---------------      ----- ------------  ---------------
     6      0.801960  1 S  s                  5      0.749579  1 S  s          
     4     -0.427289  1 S  s                  3     -0.233855  1 S  s          

 Vector    7  Occ=1.000000D+00  E=-3.604885D-01
              MO Center=  1.5D-15,  3.5D-15, -1.0D-15, r^2= 1.4D+00
   Bfn.  Coefficient  Atom+Function         Bfn.  Coefficient  Atom+Function  
  ----- ------------  ---------------      ----- ------------  ---------------
    17      0.801436  1 S  py                14      0.241072  1 S  py         
    20      0.222854  1 S  py                18      0.210509  1 S  pz         
    11     -0.199108  1 S  py         

 Vector    8  Occ=1.000000D+00  E=-3.604884D-01
              MO Center=  1.1D-14, -5.7D-15, -7.9D-15, r^2= 1.4D+00
   Bfn.  Coefficient  Atom+Function         Bfn.  Coefficient  Atom+Function  
  ----- ------------  ---------------      ----- ------------  ---------------
    16      0.626394  1 S  px                18     -0.521645  1 S  pz         
    13      0.188421  1 S  px                19      0.174188  1 S  px         
    15     -0.156914  1 S  pz                10     -0.155621  1 S  px         

 Vector    9  Occ=1.000000D+00  E=-3.031034D-01
              MO Center= -6.3D-15, -4.3D-15, -8.5D-16, r^2= 1.5D+00
   Bfn.  Coefficient  Atom+Function         Bfn.  Coefficient  Atom+Function  
  ----- ------------  ---------------      ----- ------------  ---------------
    18      0.628629  1 S  pz                16      0.560263  1 S  px         
    21      0.206099  1 S  pz                19      0.183678  1 S  px         
    15      0.174968  1 S  pz                13      0.155938  1 S  px         
    17     -0.153799  1 S  py         

 Vector   10  Occ=0.000000D+00  E=-5.890331D-03
              MO Center=  2.2D-13, -4.7D-14, -1.1D-13, r^2= 7.8D+00
   Bfn.  Coefficient  Atom+Function         Bfn.  Coefficient  Atom+Function  
  ----- ------------  ---------------      ----- ------------  ---------------
    22      1.501437  1 S  s                  5     -0.418658  1 S  s          
     6     -0.229499  1 S  s                 41     -0.166687  1 S  dyy        
    38     -0.157287  1 S  dxx               43     -0.154655  1 S  dzz        

 Vector   11  Occ=0.000000D+00  E= 4.276790D-02
              MO Center= -1.3D-13, -5.1D-14,  1.2D-13, r^2= 1.2D+01
   Bfn.  Coefficient  Atom+Function         Bfn.  Coefficient  Atom+Function  
  ----- ------------  ---------------      ----- ------------  ---------------
    23      1.185153  1 S  px                25     -0.974547  1 S  pz         
    19     -0.571702  1 S  px                21      0.470865  1 S  pz         
    24      0.381712  1 S  py                20     -0.184405  1 S  py         

 Vector   12  Occ=0.000000D+00  E= 4.280157D-02
              MO Center=  2.8D-15,  8.0D-14,  2.1D-14, r^2= 1.2D+01
   Bfn.  Coefficient  Atom+Function         Bfn.  Coefficient  Atom+Function  
  ----- ------------  ---------------      ----- ------------  ---------------
    24      1.506904  1 S  py                20     -0.727044  1 S  py         
    25      0.466958  1 S  pz                21     -0.225607  1 S  pz         
    14     -0.162230  1 S  py         

 Vector   13  Occ=0.000000D+00  E= 4.920916D-02
              MO Center= -3.7D-14,  1.0D-14, -4.1D-14, r^2= 1.2D+01
   Bfn.  Coefficient  Atom+Function         Bfn.  Coefficient  Atom+Function  
  ----- ------------  ---------------      ----- ------------  ---------------
    25      1.186999  1 S  pz                23      1.069606  1 S  px         
    21     -0.611074  1 S  pz                19     -0.549683  1 S  px         
    24     -0.295099  1 S  py                20      0.151520  1 S  py         

 Vector   14  Occ=0.000000D+00  E= 1.019710D-01
              MO Center=  1.9D-15, -1.9D-15, -1.3D-15, r^2= 2.4D+00
   Bfn.  Coefficient  Atom+Function         Bfn.  Coefficient  Atom+Function  
  ----- ------------  ---------------      ----- ------------  ---------------
    42      0.873184  1 S  dyz               39     -0.739599  1 S  dxy        
    40      0.439785  1 S  dxz               41      0.437399  1 S  dyy        
    38     -0.348240  1 S  dxx               36      0.256793  1 S  dyz        
    33     -0.217507  1 S  dxy        

 Vector   15  Occ=0.000000D+00  E= 1.019710D-01
              MO Center=  6.9D-16,  9.4D-16,  1.5D-15, r^2= 2.4D+00
   Bfn.  Coefficient  Atom+Function         Bfn.  Coefficient  Atom+Function  
  ----- ------------  ---------------      ----- ------------  ---------------
    39      0.799329  1 S  dxy               40      0.609218  1 S  dxz        
    41      0.557333  1 S  dyy               42     -0.439688  1 S  dyz        
    43     -0.325265  1 S  dzz               33      0.235073  1 S  dxy        
    38     -0.232068  1 S  dxx               34      0.179163  1 S  dxz        
    35      0.163905  1 S  dyy        

 Vector   16  Occ=0.000000D+00  E= 1.239601D-01
              MO Center=  3.1D-15, -2.8D-15,  6.9D-15, r^2= 2.5D+00
   Bfn.  Coefficient  Atom+Function         Bfn.  Coefficient  Atom+Function  
  ----- ------------  ---------------      ----- ------------  ---------------
    38      0.732537  1 S  dxx               43     -0.644300  1 S  dzz        
    42      0.518296  1 S  dyz               40      0.247704  1 S  dxz        
    32      0.181204  1 S  dxx               37     -0.159377  1 S  dzz        

 Vector   17  Occ=0.000000D+00  E= 1.239602D-01
              MO Center=  2.5D-15, -8.1D-15, -1.2D-15, r^2= 2.5D+00
   Bfn.  Coefficient  Atom+Function         Bfn.  Coefficient  Atom+Function  
  ----- ------------  ---------------      ----- ------------  ---------------
    39      0.950287  1 S  dxy               42      0.931436  1 S  dyz        
    43      0.383740  1 S  dzz               41     -0.250848  1 S  dyy        
    33      0.235067  1 S  dxy               36      0.230404  1 S  dyz        
    40      0.192899  1 S  dxz        

 Vector   18  Occ=0.000000D+00  E= 1.345331D-01
              MO Center=  3.3D-15, -2.8D-15,  7.9D-15, r^2= 2.6D+00
   Bfn.  Coefficient  Atom+Function         Bfn.  Coefficient  Atom+Function  
  ----- ------------  ---------------      ----- ------------  ---------------
    40      1.258092  1 S  dxz               43      0.356214  1 S  dzz        
    42     -0.345361  1 S  dyz               39     -0.307798  1 S  dxy        
    41     -0.307349  1 S  dyy               34      0.298115  1 S  dxz        
    38      0.211038  1 S  dxx                6     -0.152220  1 S  s          

 Vector   19  Occ=0.000000D+00  E= 2.685330D-01
              MO Center=  7.8D-13,  4.9D-13, -6.1D-13, r^2= 8.6D+00
   Bfn.  Coefficient  Atom+Function         Bfn.  Coefficient  Atom+Function  
  ----- ------------  ---------------      ----- ------------  ---------------
    19      2.126982  1 S  px                21     -1.594944  1 S  pz         
    23     -1.413322  1 S  px                20      1.291392  1 S  py         
    16     -1.250445  1 S  px                25      1.059506  1 S  pz         
    18      0.938109  1 S  pz                24     -0.857976  1 S  py         
    17     -0.759423  1 S  py                44      0.274765  1 S  fxxx       

 Vector   20  Occ=0.000000D+00  E= 2.685680D-01
              MO Center=  1.9D-13, -8.3D-13, -3.9D-13, r^2= 8.6D+00
   Bfn.  Coefficient  Atom+Function         Bfn.  Coefficient  Atom+Function  
  ----- ------------  ---------------      ----- ------------  ---------------
    20      2.603674  1 S  py                24     -1.730090  1 S  py         
    17     -1.530745  1 S  py                21      1.236937  1 S  pz         
    25     -0.821691  1 S  pz                18     -0.727563  1 S  pz         
    19     -0.653232  1 S  px                23      0.434208  1 S  px         
    16      0.383779  1 S  px                45      0.337625  1 S  fxxy       

 Vector   21  Occ=0.000000D+00  E= 2.768257D-01
              MO Center=  2.7D-12, -7.4D-13,  3.0D-12, r^2= 8.4D+00
   Bfn.  Coefficient  Atom+Function         Bfn.  Coefficient  Atom+Function  
  ----- ------------  ---------------      ----- ------------  ---------------
    21      2.142286  1 S  pz                19      1.930786  1 S  px         
    25     -1.408705  1 S  pz                18     -1.294435  1 S  pz         
    23     -1.270045  1 S  px                16     -1.165954  1 S  px         
    20     -0.533656  1 S  py                24      0.351097  1 S  py         
    17      0.322145  1 S  py                46      0.289454  1 S  fxxz       

 Vector   22  Occ=0.000000D+00  E= 2.779295D-01
              MO Center= -3.8D-12,  1.1D-12, -2.0D-12, r^2= 6.9D+00
   Bfn.  Coefficient  Atom+Function         Bfn.  Coefficient  Atom+Function  
  ----- ------------  ---------------      ----- ------------  ---------------
     6      1.953712  1 S  s                 22      1.830397  1 S  s          
    41     -1.561035  1 S  dyy               38     -1.541923  1 S  dxx        
    43     -1.536570  1 S  dzz                4     -0.319699  1 S  s          
    32     -0.286331  1 S  dxx               37     -0.286729  1 S  dzz        
    35     -0.284908  1 S  dyy                3     -0.177805  1 S  s          

 Vector   23  Occ=0.000000D+00  E= 8.377183D-01
              MO Center= -8.2D-16,  2.2D-15, -4.9D-16, r^2= 1.6D+00
   Bfn.  Coefficient  Atom+Function         Bfn.  Coefficient  Atom+Function  
  ----- ------------  ---------------      ----- ------------  ---------------
    36      0.968505  1 S  dyz               33     -0.785910  1 S  dxy        
    42     -0.717984  1 S  dyz               39      0.582620  1 S  dxy        
    34      0.554781  1 S  dxz               35      0.547856  1 S  dyy        
    32     -0.419110  1 S  dxx               40     -0.411277  1 S  dxz        
    41     -0.406144  1 S  dyy               38      0.310699  1 S  dxx        


                     DFT Final Beta Molecular Orbital Analysis
                     -----------------------------------------

 Vector    1  Occ=1.000000D+00  E=-8.848171D+01
              MO Center= -2.5D-17, -5.3D-17,  1.1D-17, r^2= 3.6D-03
   Bfn.  Coefficient  Atom+Function         Bfn.  Coefficient  Atom+Function  
  ----- ------------  ---------------      ----- ------------  ---------------
     2      0.653626  1 S  s                  1      0.411333  1 S  s          

 Vector    2  Occ=1.000000D+00  E=-7.874492D+00
              MO Center= -3.1D-15,  3.7D-15, -3.0D-16, r^2= 7.7D-02
   Bfn.  Coefficient  Atom+Function         Bfn.  Coefficient  Atom+Function  
  ----- ------------  ---------------      ----- ------------  ---------------
     4      0.602814  1 S  s                  3      0.501331  1 S  s          
     2     -0.318691  1 S  s          

 Vector    3  Occ=1.000000D+00  E=-5.853921D+00
              MO Center=  6.8D-16,  1.1D-15, -5.4D-16, r^2= 6.9D-02
   Bfn.  Coefficient  Atom+Function         Bfn.  Coefficient  Atom+Function  
  ----- ------------  ---------------      ----- ------------  ---------------
    10      0.533936  1 S  px                12     -0.438319  1 S  pz         
     7      0.283932  1 S  px                 9     -0.233086  1 S  pz         
    11      0.153466  1 S  py         

 Vector    4  Occ=1.000000D+00  E=-5.853921D+00
              MO Center= -8.7D-16, -2.8D-15, -6.0D-16, r^2= 6.9D-02
   Bfn.  Coefficient  Atom+Function         Bfn.  Coefficient  Atom+Function  
  ----- ------------  ---------------      ----- ------------  ---------------
    11      0.679003  1 S  py                 8      0.361076  1 S  py         
    12      0.196379  1 S  pz         

 Vector    5  Occ=1.000000D+00  E=-5.847180D+00
              MO Center=  1.0D-15,  8.5D-17,  1.4D-15, r^2= 6.9D-02
   Bfn.  Coefficient  Atom+Function         Bfn.  Coefficient  Atom+Function  
  ----- ------------  ---------------      ----- ------------  ---------------
    12      0.519214  1 S  pz                10      0.462745  1 S  px         
     9      0.276836  1 S  pz                 7      0.246727  1 S  px         

 Vector    6  Occ=1.000000D+00  E=-6.483859D-01
              MO Center= -5.0D-15,  4.0D-15, -2.3D-15, r^2= 1.0D+00
   Bfn.  Coefficient  Atom+Function         Bfn.  Coefficient  Atom+Function  
  ----- ------------  ---------------      ----- ------------  ---------------
     6      0.906461  1 S  s                  5      0.639286  1 S  s          
     4     -0.435992  1 S  s                  3     -0.214138  1 S  s          

 Vector    7  Occ=1.000000D+00  E=-2.929869D-01
              MO Center= -4.1D-16, -2.5D-15,  2.9D-15, r^2= 1.5D+00
   Bfn.  Coefficient  Atom+Function         Bfn.  Coefficient  Atom+Function  
  ----- ------------  ---------------      ----- ------------  ---------------
    18      0.660621  1 S  pz                16      0.588772  1 S  px         
    21      0.207896  1 S  pz                19      0.185285  1 S  px         
    17     -0.161623  1 S  py                15      0.154461  1 S  pz         

 Vector    8  Occ=0.000000D+00  E=-2.808080D-01
              MO Center= -1.0D-14, -7.0D-15, -4.1D-15, r^2= 1.5D+00
   Bfn.  Coefficient  Atom+Function         Bfn.  Coefficient  Atom+Function  
  ----- ------------  ---------------      ----- ------------  ---------------
    17      0.807127  1 S  py                18      0.390297  1 S  pz         
    20      0.234081  1 S  py                16     -0.216360  1 S  px         
    11     -0.164221  1 S  py                14      0.158015  1 S  py         

 Vector    9  Occ=0.000000D+00  E=-2.808080D-01
              MO Center=  1.7D-15, -8.0D-16, -5.0D-15, r^2= 1.5D+00
   Bfn.  Coefficient  Atom+Function         Bfn.  Coefficient  Atom+Function  
  ----- ------------  ---------------      ----- ------------  ---------------
    16      0.662870  1 S  px                18     -0.489405  1 S  pz         
    17      0.414349  1 S  py                19      0.192244  1 S  px         

 Vector   10  Occ=0.000000D+00  E= 1.094104D-02
              MO Center= -1.3D-14, -1.1D-14,  1.1D-13, r^2= 7.9D+00
   Bfn.  Coefficient  Atom+Function         Bfn.  Coefficient  Atom+Function  
  ----- ------------  ---------------      ----- ------------  ---------------
    22      1.539760  1 S  s                  5     -0.391719  1 S  s          
     6     -0.229936  1 S  s                 41     -0.198748  1 S  dyy        
    38     -0.180618  1 S  dxx               43     -0.175540  1 S  dzz        
     4      0.154205  1 S  s          

 Vector   11  Occ=0.000000D+00  E= 5.323109D-02
              MO Center= -4.6D-14,  1.5D-14, -4.9D-14, r^2= 1.2D+01
   Bfn.  Coefficient  Atom+Function         Bfn.  Coefficient  Atom+Function  
  ----- ------------  ---------------      ----- ------------  ---------------
    25      1.220295  1 S  pz                23      1.075821  1 S  px         
    21     -0.649451  1 S  pz                19     -0.571876  1 S  px         
    24     -0.292078  1 S  py                20      0.155069  1 S  py         

 Vector   12  Occ=0.000000D+00  E= 6.069116D-02
              MO Center=  4.6D-14,  3.7D-14, -1.9D-15, r^2= 1.2D+01
   Bfn.  Coefficient  Atom+Function         Bfn.  Coefficient  Atom+Function  
  ----- ------------  ---------------      ----- ------------  ---------------
    24      1.222393  1 S  py                23      1.005625  1 S  px         
    20     -0.676703  1 S  py                25     -0.594360  1 S  pz         
    19     -0.556588  1 S  px                21      0.329121  1 S  pz         

 Vector   13  Occ=0.000000D+00  E= 6.071988D-02
              MO Center=  3.1D-14, -4.0D-14, -3.4D-14, r^2= 1.2D+01
   Bfn.  Coefficient  Atom+Function         Bfn.  Coefficient  Atom+Function  
  ----- ------------  ---------------      ----- ------------  ---------------
    24      1.128955  1 S  py                25      0.974082  1 S  pz         
    23     -0.796583  1 S  px                20     -0.624667  1 S  py         
    21     -0.539509  1 S  pz                19      0.440441  1 S  px         

 Vector   14  Occ=0.000000D+00  E= 1.406706D-01
              MO Center= -6.6D-15,  1.0D-15, -6.7D-15, r^2= 2.6D+00
   Bfn.  Coefficient  Atom+Function         Bfn.  Coefficient  Atom+Function  
  ----- ------------  ---------------      ----- ------------  ---------------
    38      0.748122  1 S  dxx               43     -0.650220  1 S  dzz        
    42      0.559265  1 S  dyz               40      0.259921  1 S  dxz        
    32      0.150618  1 S  dxx               39      0.151297  1 S  dxy        

 Vector   15  Occ=0.000000D+00  E= 1.406707D-01
              MO Center= -4.8D-15, -3.4D-16, -3.1D-15, r^2= 2.6D+00
   Bfn.  Coefficient  Atom+Function         Bfn.  Coefficient  Atom+Function  
  ----- ------------  ---------------      ----- ------------  ---------------
    39      0.972023  1 S  dxy               42      0.941059  1 S  dyz        
    43      0.412750  1 S  dzz               41     -0.254939  1 S  dyy        
    33      0.195696  1 S  dxy               40      0.190796  1 S  dxz        
    36      0.189462  1 S  dyz               38     -0.157809  1 S  dxx        

 Vector   16  Occ=0.000000D+00  E= 1.443737D-01
              MO Center=  1.0D-15, -2.0D-16, -3.0D-16, r^2= 2.6D+00
   Bfn.  Coefficient  Atom+Function         Bfn.  Coefficient  Atom+Function  
  ----- ------------  ---------------      ----- ------------  ---------------
    40      1.279167  1 S  dxz               43      0.370238  1 S  dzz        
    42     -0.351121  1 S  dyz               39     -0.312942  1 S  dxy        
    41     -0.304364  1 S  dyy               34      0.268206  1 S  dxz        
     6     -0.233417  1 S  s                 38      0.222631  1 S  dxx        
     5      0.155283  1 S  s          

 Vector   17  Occ=0.000000D+00  E= 1.462158D-01
              MO Center= -3.7D-15,  3.2D-15,  2.9D-15, r^2= 2.6D+00
   Bfn.  Coefficient  Atom+Function         Bfn.  Coefficient  Atom+Function  
  ----- ------------  ---------------      ----- ------------  ---------------
    42      0.845426  1 S  dyz               39     -0.655956  1 S  dxy        
    40      0.542715  1 S  dxz               41      0.532994  1 S  dyy        
    38     -0.394546  1 S  dxx               36      0.179864  1 S  dyz        

 Vector   18  Occ=0.000000D+00  E= 1.462159D-01
              MO Center=  2.2D-15, -6.0D-15, -5.6D-15, r^2= 2.6D+00
   Bfn.  Coefficient  Atom+Function         Bfn.  Coefficient  Atom+Function  
  ----- ------------  ---------------      ----- ------------  ---------------
    39      0.934741  1 S  dxy               42     -0.579826  1 S  dyz        
    40      0.571071  1 S  dxz               41      0.517546  1 S  dyy        
    43     -0.325438  1 S  dzz               33      0.198866  1 S  dxy        
    38     -0.192117  1 S  dxx        

 Vector   19  Occ=0.000000D+00  E= 2.838059D-01
              MO Center= -8.2D-14,  2.0D-14, -9.0D-14, r^2= 8.2D+00
   Bfn.  Coefficient  Atom+Function         Bfn.  Coefficient  Atom+Function  
  ----- ------------  ---------------      ----- ------------  ---------------
    21      2.161828  1 S  pz                19      1.916556  1 S  px         
    25     -1.407751  1 S  pz                18     -1.345483  1 S  pz         
    23     -1.248403  1 S  px                16     -1.192195  1 S  px         
    20     -0.523305  1 S  py                24      0.340972  1 S  py         
    17      0.325345  1 S  py                51      0.290374  1 S  fyyz       

 Vector   20  Occ=0.000000D+00  E= 2.963067D-01
              MO Center= -2.1D-12, -1.2D-12,  1.7D-12, r^2= 6.7D+00
   Bfn.  Coefficient  Atom+Function         Bfn.  Coefficient  Atom+Function  
  ----- ------------  ---------------      ----- ------------  ---------------
     6      2.057604  1 S  s                 22      1.805004  1 S  s          
    38     -1.568601  1 S  dxx               41     -1.571709  1 S  dyy        
    43     -1.567731  1 S  dzz                4     -0.330453  1 S  s          
    35     -0.287388  1 S  dyy               32     -0.273495  1 S  dxx        
    37     -0.269604  1 S  dzz                3     -0.175697  1 S  s          

 Vector   21  Occ=0.000000D+00  E= 2.981027D-01
              MO Center=  1.6D-12,  1.9D-12, -9.4D-13, r^2= 8.1D+00
   Bfn.  Coefficient  Atom+Function         Bfn.  Coefficient  Atom+Function  
  ----- ------------  ---------------      ----- ------------  ---------------
    20      2.140033  1 S  py                19      1.755099  1 S  px         
    17     -1.401630  1 S  py                24     -1.371347  1 S  py         
    16     -1.149416  1 S  px                23     -1.124732  1 S  px         
    21     -1.037928  1 S  pz                18      0.679877  1 S  pz         
    25      0.665068  1 S  pz                45      0.315845  1 S  fxxy       

 Vector   22  Occ=0.000000D+00  E= 2.981314D-01
              MO Center=  5.4D-13, -7.8D-13, -6.6D-13, r^2= 8.1D+00
   Bfn.  Coefficient  Atom+Function         Bfn.  Coefficient  Atom+Function  
  ----- ------------  ---------------      ----- ------------  ---------------
    20      1.969845  1 S  py                21      1.709744  1 S  pz         
    19     -1.390772  1 S  px                17     -1.289934  1 S  py         
    24     -1.262447  1 S  py                18     -1.120077  1 S  pz         
    25     -1.095498  1 S  pz                16      0.910455  1 S  px         
    23      0.891478  1 S  px                45      0.291698  1 S  fxxy       

 Vector   23  Occ=0.000000D+00  E= 9.146528D-01
              MO Center= -2.2D-15,  1.7D-15, -1.3D-15, r^2= 1.4D+00
   Bfn.  Coefficient  Atom+Function         Bfn.  Coefficient  Atom+Function  
  ----- ------------  ---------------      ----- ------------  ---------------
    34      1.413350  1 S  dxz               40     -0.965905  1 S  dxz        
    35     -0.423827  1 S  dyy               36     -0.387970  1 S  dyz        
    41      0.376126  1 S  dyy               33     -0.345776  1 S  dxy        
    37      0.321623  1 S  dzz               28      0.277443  1 S  dxz        
    42      0.265145  1 S  dyz               39      0.236309  1 S  dxy        


   alpha - beta orbital overlaps 
   ----------------------------- 


   alpha      1      2      3      4      5      6      7      8      9     10
    beta      1      2      3      4      5      6      8      9      7     10
 overlap   1.000  1.000  1.000  1.000  1.000  0.998  0.956  0.956  1.000  0.999


   alpha     11     12     13     14     15     16     17     18     19     20
    beta     12     13     11     17     18     14     15     16     21     22
 overlap   0.835  0.835  1.000  0.989  0.989  0.999  0.999  0.999  0.930  0.930


   alpha     21     22     23     24     25     26     27     28     29     30
    beta     19     20     26     27     24     25     23     28     29     30
 overlap   1.000  0.999  0.998  0.998  0.999  0.999  0.999  0.992  0.964  0.960


   alpha     31     32     33     34     35     36     37     38     39     40
    beta     31     33     32     35     34     36     37     38     39     40
 overlap   1.000  0.978  0.978  0.809  0.809  0.998  0.998  0.999  0.980  0.980


   alpha     41     42     43     44     45     46     47     48     49     50
    beta     41     42     43     44     46     45     47     48     49     50
 overlap   1.000  1.000  0.988  0.988  0.961  0.961  1.000  1.000  0.994  0.994


   alpha     51     52     53
    beta     51     52     53
 overlap   1.000  1.000  1.000

     --------------------------
     Expectation value of S2:  
     --------------------------
      <S2> =      2.0048 (Exact =     2.0000)


 Parallel integral file used      16 records with       0 large values


 Task  times  cpu:        1.6s     wall:        2.4s


                                NWChem Input Module
                                -------------------


 Summary of allocated global arrays
-----------------------------------
  No active global arrays



                         GA Statistics for process    0
                         ------------------------------

       create   destroy   get      put      acc     scatter   gather  read&inc
calls:  367      367     1262      991      295        0        0       34     
number of processes/call 1.79e+00 1.53e+00 3.86e+00 0.00e+00 0.00e+00
bytes total:             1.86e+07 7.87e+06 6.63e+06 0.00e+00 0.00e+00 2.72e+02
bytes remote:            1.56e+06 6.39e+05 1.43e+06 0.00e+00 0.00e+00 0.00e+00
Max memory consumed for GA by this process: 1415736 bytes

MA_summarize_allocated_blocks: starting scan ...
MA_summarize_allocated_blocks: scan completed: 0 heap blocks, 0 stack blocks
MA usage statistics:

	allocation statistics:
					      heap	     stack
					      ----	     -----
	current number of blocks	         0	         0
	maximum number of blocks	        23	        51
	current total bytes		         0	         0
	maximum total bytes		   2415384	  22513064
	maximum total K-bytes		      2416	     22514
	maximum total M-bytes		         3	        23


                                     CITATION
                                     --------
                Please cite the following reference when publishing
                           results obtained with NWChem:

                 M. Valiev, E.J. Bylaska, N. Govind, K. Kowalski,
              T.P. Straatsma, H.J.J. van Dam, D. Wang, J. Nieplocha,
                        E. Apra, T.L. Windus, W.A. de Jong
                 "NWChem: a comprehensive and scalable open-source
                  solution for large scale molecular simulations"
                      Comput. Phys. Commun. 181, 1477 (2010)
                           doi:10.1016/j.cpc.2010.04.018

                                      AUTHORS
                                      -------
          E. Apra, E. J. Bylaska, W. A. de Jong, N. Govind, K. Kowalski,
       T. P. Straatsma, M. Valiev, H. J. J. van Dam, D. Wang, T. L. Windus,
        J. Hammond, J. Autschbach, K. Bhaskaran-Nair, J. Brabec, K. Lopata,
       S. A. Fischer, S. Krishnamoorthy, W. Ma, M. Klemm, O. Villa, Y. Chen,
    V. Anisimov, F. Aquino, S. Hirata, M. T. Hackler, T. Risthaus, M. Malagoli,
       A. Marenich, A. Otero-de-la-Roza, J. Mullin, P. Nichols, R. Peverati,
     J. Pittner, Y. Zhao, P.-D. Fan, A. Fonari, M. Williamson, R. J. Harrison,
       J. R. Rehr, M. Dupuis, D. Silverstein, D. M. A. Smith, J. Nieplocha,
        V. Tipparaju, M. Krishnan, B. E. Van Kuiken, A. Vazquez-Mayagoitia,
        L. Jensen, M. Swart, Q. Wu, T. Van Voorhis, A. A. Auer, M. Nooijen,
      L. D. Crosby, E. Brown, G. Cisneros, G. I. Fann, H. Fruchtl, J. Garza,
        K. Hirao, R. A. Kendall, J. A. Nichols, K. Tsemekhman, K. Wolinski,
     J. Anchell, D. E. Bernholdt, P. Borowski, T. Clark, D. Clerc, H. Dachsel,
   M. J. O. Deegan, K. Dyall, D. Elwood, E. Glendening, M. Gutowski, A. C. Hess,
         J. Jaffe, B. G. Johnson, J. Ju, R. Kobayashi, R. Kutteh, Z. Lin,
   R. Littlefield, X. Long, B. Meng, T. Nakajima, S. Niu, L. Pollack, M. Rosing,
   K. Glaesemann, G. Sandrone, M. Stave, H. Taylor, G. Thomas, J. H. van Lenthe,
                               A. T. Wong, Z. Zhang.

 Total times  cpu:        1.6s     wall:        2.6s
