[1537795856.146932] [r8n4:8431 :0]         sys.c:744  MXM  WARN  Conflicting CPU frequencies detected, using: 1698.86
[1537795856.156558] [r8n4:8433 :0]         sys.c:744  MXM  WARN  Conflicting CPU frequencies detected, using: 1794.90
[1537795856.157116] [r8n4:8432 :0]         sys.c:744  MXM  WARN  Conflicting CPU frequencies detected, using: 1794.90
[1537795856.157839] [r8n4:8436 :0]         sys.c:744  MXM  WARN  Conflicting CPU frequencies detected, using: 1794.90
[1537795856.157934] [r8n4:8434 :0]         sys.c:744  MXM  WARN  Conflicting CPU frequencies detected, using: 1794.90
[1537795856.157981] [r8n4:8437 :0]         sys.c:744  MXM  WARN  Conflicting CPU frequencies detected, using: 1794.90
[1537795856.158407] [r8n4:8435 :0]         sys.c:744  MXM  WARN  Conflicting CPU frequencies detected, using: 1794.90
[1537795856.158453] [r8n4:8439 :0]         sys.c:744  MXM  WARN  Conflicting CPU frequencies detected, using: 1794.90
[1537795856.174992] [r8n4:8443 :0]         sys.c:744  MXM  WARN  Conflicting CPU frequencies detected, using: 1899.92
[1537795856.176085] [r8n4:8441 :0]         sys.c:744  MXM  WARN  Conflicting CPU frequencies detected, using: 1899.92
[1537795856.196088] [r8n4:8455 :0]         sys.c:744  MXM  WARN  Conflicting CPU frequencies detected, using: 2095.07
[1537795856.197592] [r8n4:8449 :0]         sys.c:744  MXM  WARN  Conflicting CPU frequencies detected, using: 2095.07
[1537795856.198382] [r8n4:8445 :0]         sys.c:744  MXM  WARN  Conflicting CPU frequencies detected, using: 2095.07
[1537795856.198426] [r8n4:8447 :0]         sys.c:744  MXM  WARN  Conflicting CPU frequencies detected, using: 2095.07
[1537795856.198511] [r8n4:8453 :0]         sys.c:744  MXM  WARN  Conflicting CPU frequencies detected, using: 2095.07
[1537795856.198560] [r8n4:8451 :0]         sys.c:744  MXM  WARN  Conflicting CPU frequencies detected, using: 2095.07
 argument  1 = /storage/home/bikashp/nwchem_run/rabeet/ip13g2/nwip13g2/S2.nw
                                         
                                         


              Northwest Computational Chemistry Package (NWChem) 6.6
              ------------------------------------------------------


                    Environmental Molecular Sciences Laboratory
                       Pacific Northwest National Laboratory
                                Richland, WA 99352

                              Copyright (c) 1994-2015
                       Pacific Northwest National Laboratory
                            Battelle Memorial Institute

             NWChem is an open-source computational chemistry package
                        distributed under the terms of the
                      Educational Community License (ECL) 2.0
             A copy of the license is included with this distribution
                              in the LICENSE.TXT file

                                  ACKNOWLEDGMENT
                                  --------------

            This software and its documentation were developed at the
            EMSL at Pacific Northwest National Laboratory, a multiprogram
            national laboratory, operated for the U.S. Department of Energy
            by Battelle under Contract Number DE-AC05-76RL01830. Support
            for this work was provided by the Department of Energy Office
            of Biological and Environmental Research, Office of Basic
            Energy Sciences, and the Office of Advanced Scientific Computing.


           Job information
           ---------------

    hostname        = r8n4.niserhpc.org
    program         = /home/bikashp/Code/nwchem-6.6_tpssloc/bin/LINUX64/nwchem
    date            = Mon Sep 24 19:00:59 2018

    compiled        = Tue_Sep_18_16:24:59_2018
    source          = /home/bikashp/Code/nwchem-6.6_tpssloc
    nwchem branch   = 6.6
    nwchem revision = 27746
    ga revision     = 10594
    input           = /storage/home/bikashp/nwchem_run/rabeet/ip13g2/nwip13g2/S2.nw
    prefix          = S2.
    data base       = ./S2.db
    status          = startup
    nproc           =       16
    time left       =     -1s



           Memory information
           ------------------

    heap     =   13107196 doubles =    100.0 Mbytes
    stack    =   13107201 doubles =    100.0 Mbytes
    global   =   26214400 doubles =    200.0 Mbytes (distinct from heap & stack)
    total    =   52428797 doubles =    400.0 Mbytes
    verify   = yes
    hardfail = no 


           Directory information
           ---------------------

  0 permanent = .
  0 scratch   = .




                                NWChem Input Module
                                -------------------



 Scaling coordinates for geometry "geometry" by  1.889725989
 (inverse scale =  0.529177249)


          ------
          auto-z
          ------


                             Geometry "geometry" -> ""
                             -------------------------

 Output coordinates in angstroms (scale by  1.889725989 to convert to a.u.)

  No.       Tag          Charge          X              Y              Z
 ---- ---------------- ---------- -------------- -------------- --------------
    1 S                   16.0000     0.00000000     0.00000000    -0.94629500
    2 S                   16.0000     0.00000000     0.00000000     0.94629500

      Atomic Mass 
      ----------- 

      S                 31.972070


 Effective nuclear repulsion energy (a.u.)      71.5788288768

            Nuclear Dipole moment (a.u.) 
            ----------------------------
        X                 Y               Z
 ---------------- ---------------- ----------------
     0.0000000000     0.0000000000     0.0000000000



                                Z-matrix (autoz)
                                -------- 

 Units are Angstrom for bonds and degrees for angles

      Type          Name      I     J     K     L     M      Value
      ----------- --------  ----- ----- ----- ----- ----- ----------
    1 Stretch                  1     2                       1.89259


            XYZ format geometry
            -------------------
     2
 geometry
 S                     0.00000000     0.00000000    -0.94629500
 S                     0.00000000     0.00000000     0.94629500

 ==============================================================================
                                internuclear distances
 ------------------------------------------------------------------------------
       center one      |      center two      | atomic units |  angstroms
 ------------------------------------------------------------------------------
    2 S                |   1 S                |     3.57648  |     1.89259
 ------------------------------------------------------------------------------
                         number of included internuclear distances:          1
 ==============================================================================





 Summary of "ao basis" -> "" (cartesian)
 ------------------------------------------------------------------------------
       Tag                 Description            Shells   Functions and Types
 ---------------- ------------------------------  ------  ---------------------
 *                     6-311++G(3df,3pd)              on all atoms 



                                 NWChem DFT Module
                                 -----------------


                      Basis "ao basis" -> "ao basis" (cartesian)
                      -----
  S (Sulphur)
  -----------
            Exponent  Coefficients 
       -------------- ---------------------------------------------------------
  1 S  9.34134000E+04  0.000743
  1 S  1.39617000E+04  0.005793
  1 S  3.16991000E+03  0.029954
  1 S  9.02456000E+02  0.119028
  1 S  2.97158000E+02  0.368432
  1 S  1.08702000E+02  0.577299

  2 S  1.08702000E+02  0.143186
  2 S  4.31553000E+01  0.624465
  2 S  1.81079000E+01  0.283366

  3 S  5.56009000E+00  1.000000

  4 S  2.13183000E+00  1.000000

  5 S  4.20403000E-01  1.000000

  6 S  1.36045000E-01  1.000000

  7 P  4.95040000E+02  0.008309
  7 P  1.17221000E+02  0.064024
  7 P  3.77749000E+01  0.277614
  7 P  1.40584000E+01  0.745076

  8 P  5.56574000E+00  0.613712
  8 P  2.26297000E+00  0.443818

  9 P  8.07994000E-01  1.000000

 10 P  2.77460000E-01  1.000000

 11 P  7.71410000E-02  1.000000

 12 S  4.05000000E-02  1.000000

 13 P  4.05000000E-02  1.000000

 14 D  2.60000000E+00  1.000000

 15 D  6.50000000E-01  1.000000

 16 D  1.62500000E-01  1.000000

 17 F  5.50000000E-01  1.000000



 Summary of "ao basis" -> "ao basis" (cartesian)
 ------------------------------------------------------------------------------
       Tag                 Description            Shells   Functions and Types
 ---------------- ------------------------------  ------  ---------------------
 S                     6-311++G(3df,3pd)            17       53   7s6p3d1f




 Summary of "ao basis" -> "ao basis" (cartesian)
 ------------------------------------------------------------------------------
       Tag                 Description            Shells   Functions and Types
 ---------------- ------------------------------  ------  ---------------------
 S                     6-311++G(3df,3pd)            17       53   7s6p3d1f


  Caching 1-el integrals 

            General Information
            -------------------
          SCF calculation type: DFT
          Wavefunction type:  spin polarized.
          No. of atoms     :     2
          No. of electrons :    32
           Alpha electrons :    17
            Beta electrons :    15
          Charge           :     0
          Spin multiplicity:     3
          Use of symmetry is: off; symmetry adaption is: off
          Maximum number of iterations: ***
          AO basis - number of functions:   106
                     number of shells:    34
          Convergence on energy requested: 1.00D-06
          Convergence on density requested: 1.00D-05
          Convergence on gradient requested: 5.00D-04

              XC Information
              --------------
                  TPSS metaGGA Exchange Functional  1.000          
             TPSS03 metaGGA Correlation Functional  1.000          

             Grid Information
             ----------------
          Grid used for XC integration:  medium    
          Radial quadrature: Mura-Knowles        
          Angular quadrature: Lebedev. 
          Tag              B.-S. Rad. Rad. Pts. Rad. Cut. Ang. Pts.
          ---              ---------- --------- --------- ---------
          S                   1.00       88          11.0       590
          Grid pruning is: on 
          Number of quadrature shells:   176
          Spatial weights used:  Erf1

          Convergence Information
          -----------------------
          Convergence aids based upon iterative change in 
          total energy or number of iterations. 
          Levelshifting, if invoked, occurs when the 
          HOMO/LUMO gap drops below (HL_TOL): 1.00D-02
          DIIS, if invoked, will attempt to extrapolate 
          using up to (NFOCK): 10 stored Fock matrices.

                    Damping( 0%)  Levelshifting(0.5)       DIIS
                  --------------- ------------------- ---------------
          dE  on:    start            ASAP                start   
          dE off:    2 iters        *** iters           *** iters 


      Screening Tolerance Information
      -------------------------------
          Density screening/tol_rho: 1.00D-10
          AO Gaussian exp screening on grid/accAOfunc:  14
          CD Gaussian exp screening on grid/accCDfunc:  20
          XC Gaussian exp screening on grid/accXCfunc:  20
          Schwarz screening/accCoul: 1.00D-08


      Superposition of Atomic Density Guess
      -------------------------------------

 Sum of atomic energies:        -794.96050201

      Non-variational initial energy
      ------------------------------

 Total energy =    -795.164473
 1-e energy   =   -1241.419096
 2-e energy   =     374.675794
 HOMO         =      -0.187831
 LUMO         =      -0.187831

   Time after variat. SCF:      0.3
   Time prior to 1st pass:      0.3

 Integral file          = ./S2.aoints.00
 Record size in doubles =    65536    No. of integs per rec  =    43688
 Max. records in memory =       33    Max. records in file   = 11667350
 No. of bits per label  =        8    No. of bits per value  =       64


 #quartets = 1.536D+05 #integrals = 3.684D+06 #direct =  0.0% #cached =100.0%


File balance: exchanges=     0  moved=     0  time=   0.0


 Grid_pts file          = ./S2.gridpts.00
 Record size in doubles =  12289        No. of grid_pts per rec  =   3070
 Max. records in memory =      4        Max. recs in file   =  62220807


           Memory utilization after 1st SCF pass: 
           Heap Space remaining (MW):       10.89            10891628
          Stack Space remaining (MW):       13.11            13106236

   convergence    iter        energy       DeltaE   RMS-Dens  Diis-err    time
 ---------------- ----- ----------------- --------- --------- ---------  ------
 d= 0,ls=0.0,diis     1   -796.5088597836 -8.68D+02  1.12D-02  3.88D-01     0.9
                                                     1.03D-02  3.76D-01
 d= 0,ls=0.0,diis     2   -796.5196376895 -1.08D-02  2.26D-03  1.54D-02     1.2
                                                     2.14D-03  1.26D-02
 d= 0,ls=0.0,diis     3   -796.5076356114  1.20D-02  1.30D-03  1.94D-02     1.5
                                                     1.14D-03  1.66D-02
 d= 0,ls=0.0,diis     4   -796.5215322291 -1.39D-02  7.84D-05  1.09D-04     1.8
                                                     9.66D-05  1.16D-04
 d= 0,ls=0.0,diis     5   -796.5208113336  7.21D-04  4.99D-05  5.41D-06     2.1
                                                     5.18D-05  3.90D-06
  Resetting Diis
 d= 0,ls=0.0,diis     6   -796.5209565350 -1.45D-04  1.10D-05  4.09D-07     2.4
                                                     1.16D-05  3.74D-07
 d= 0,ls=0.0,diis     7   -796.5209074725  4.91D-05  1.12D-06  2.62D-09     2.7
                                                     1.04D-06  2.21D-09
 d= 0,ls=0.0,diis     8   -796.5209133634 -5.89D-06  5.87D-07  8.68D-10     3.0
                                                     5.97D-07  8.80D-10
 d= 0,ls=0.0,diis     9   -796.5209101236  3.24D-06  1.78D-07  2.41D-10     3.3
                                                     1.40D-07  1.81D-10
 d= 0,ls=0.0,diis    10   -796.5209109306 -8.07D-07  6.38D-08  2.09D-11     3.6
                                                     5.73D-08  1.93D-11


         Total DFT energy =     -796.520910930551
      One electron energy =    -1240.528654467579
           Coulomb energy =      423.791494577526
          Exchange energy =      -50.041091716975
       Correlation energy =       -1.321488200313
 Nuclear repulsion energy =       71.578828876789

 Numeric. integr. density =       32.000000351398

     Total iterative time =      3.3s



                    DFT Final Alpha Molecular Orbital Analysis
                    ------------------------------------------

 Vector    5  Occ=1.000000D+00  E=-5.863714D+00
              MO Center= -4.1D-15,  3.4D-15,  7.8D-07, r^2= 9.7D-01
   Bfn.  Coefficient  Atom+Function         Bfn.  Coefficient  Atom+Function  
  ----- ------------  ---------------      ----- ------------  ---------------
    12      0.499051  1 S  pz                65     -0.499051  2 S  pz         
     9      0.266246  1 S  pz                62     -0.266246  2 S  pz         

 Vector    6  Occ=1.000000D+00  E=-5.862919D+00
              MO Center= -1.0D-15, -2.7D-14, -7.8D-07, r^2= 9.7D-01
   Bfn.  Coefficient  Atom+Function         Bfn.  Coefficient  Atom+Function  
  ----- ------------  ---------------      ----- ------------  ---------------
    12      0.499242  1 S  pz                65      0.499242  2 S  pz         
     9      0.266351  1 S  pz                62      0.266351  2 S  pz         

 Vector    7  Occ=1.000000D+00  E=-5.862765D+00
              MO Center=  1.2D-15, -4.1D-15,  1.0D-05, r^2= 9.6D-01
   Bfn.  Coefficient  Atom+Function         Bfn.  Coefficient  Atom+Function  
  ----- ------------  ---------------      ----- ------------  ---------------
    11      0.472299  1 S  py                64      0.472304  2 S  py         
     8      0.252095  1 S  py                61      0.252098  2 S  py         
    10     -0.161941  1 S  px                63     -0.161942  2 S  px         

 Vector    8  Occ=1.000000D+00  E=-5.862765D+00
              MO Center=  3.2D-15,  9.2D-16,  1.0D-05, r^2= 9.6D-01
   Bfn.  Coefficient  Atom+Function         Bfn.  Coefficient  Atom+Function  
  ----- ------------  ---------------      ----- ------------  ---------------
    10      0.472299  1 S  px                63      0.472304  2 S  px         
     7      0.252095  1 S  px                60      0.252098  2 S  px         
    11      0.161941  1 S  py                64      0.161942  2 S  py         

 Vector    9  Occ=1.000000D+00  E=-5.862703D+00
              MO Center=  1.4D-14,  1.7D-14, -1.0D-05, r^2= 9.6D-01
   Bfn.  Coefficient  Atom+Function         Bfn.  Coefficient  Atom+Function  
  ----- ------------  ---------------      ----- ------------  ---------------
    11      0.391378  1 S  py                64     -0.391374  2 S  py         
    10      0.310032  1 S  px                63     -0.310029  2 S  px         
     8      0.208911  1 S  py                61     -0.208909  2 S  py         
     7      0.165490  1 S  px                60     -0.165488  2 S  px         

 Vector   10  Occ=1.000000D+00  E=-5.862703D+00
              MO Center= -1.2D-14,  9.9D-15, -1.0D-05, r^2= 9.6D-01
   Bfn.  Coefficient  Atom+Function         Bfn.  Coefficient  Atom+Function  
  ----- ------------  ---------------      ----- ------------  ---------------
    10      0.391378  1 S  px                63     -0.391374  2 S  px         
    11     -0.310032  1 S  py                64      0.310029  2 S  py         
     7      0.208911  1 S  px                60     -0.208909  2 S  px         
     8     -0.165490  1 S  py                61      0.165488  2 S  py         

 Vector   11  Occ=1.000000D+00  E=-8.374590D-01
              MO Center=  9.2D-16, -4.1D-15,  1.3D-09, r^2= 1.2D+00
   Bfn.  Coefficient  Atom+Function         Bfn.  Coefficient  Atom+Function  
  ----- ------------  ---------------      ----- ------------  ---------------
     5      0.489451  1 S  s                 58      0.489451  2 S  s          
     6      0.398698  1 S  s                 59      0.398698  2 S  s          
     4     -0.279289  1 S  s                 57     -0.279289  2 S  s          
     3     -0.151737  1 S  s                 56     -0.151737  2 S  s          

 Vector   12  Occ=1.000000D+00  E=-6.401779D-01
              MO Center= -5.3D-16,  1.9D-14,  2.0D-12, r^2= 2.4D+00
   Bfn.  Coefficient  Atom+Function         Bfn.  Coefficient  Atom+Function  
  ----- ------------  ---------------      ----- ------------  ---------------
     6      0.592533  1 S  s                 59     -0.592533  2 S  s          
     5      0.543246  1 S  s                 58     -0.543246  2 S  s          
     4     -0.309119  1 S  s                 57      0.309119  2 S  s          
     3     -0.166034  1 S  s                 56      0.166034  2 S  s          

 Vector   13  Occ=1.000000D+00  E=-4.260551D-01
              MO Center= -1.3D-14,  1.6D-14, -6.0D-10, r^2= 2.6D+00
   Bfn.  Coefficient  Atom+Function         Bfn.  Coefficient  Atom+Function  
  ----- ------------  ---------------      ----- ------------  ---------------
    18      0.462205  1 S  pz                71     -0.462205  2 S  pz         
     6     -0.348406  1 S  s                 59     -0.348406  2 S  s          
    15      0.197311  1 S  pz                68     -0.197311  2 S  pz         

 Vector   14  Occ=1.000000D+00  E=-4.086455D-01
              MO Center=  2.5D-14, -5.4D-15,  2.3D-09, r^2= 2.0D+00
   Bfn.  Coefficient  Atom+Function         Bfn.  Coefficient  Atom+Function  
  ----- ------------  ---------------      ----- ------------  ---------------
    16      0.541018  1 S  px                69      0.541018  2 S  px         
    13      0.163307  1 S  px                66      0.163307  2 S  px         

 Vector   15  Occ=1.000000D+00  E=-4.086455D-01
              MO Center= -1.1D-14, -2.0D-13,  2.3D-09, r^2= 2.0D+00
   Bfn.  Coefficient  Atom+Function         Bfn.  Coefficient  Atom+Function  
  ----- ------------  ---------------      ----- ------------  ---------------
    17      0.541018  1 S  py                70      0.541018  2 S  py         
    14      0.163307  1 S  py                67      0.163307  2 S  py         

 Vector   16  Occ=1.000000D+00  E=-2.770325D-01
              MO Center= -1.4D-16,  3.0D-15, -1.9D-09, r^2= 2.6D+00
   Bfn.  Coefficient  Atom+Function         Bfn.  Coefficient  Atom+Function  
  ----- ------------  ---------------      ----- ------------  ---------------
    16      0.658094  1 S  px                69     -0.658094  2 S  px         
    19      0.231316  1 S  px                72     -0.231316  2 S  px         
    13      0.177636  1 S  px                66     -0.177636  2 S  px         
    10     -0.150526  1 S  px                63      0.150526  2 S  px         

 Vector   17  Occ=1.000000D+00  E=-2.770325D-01
              MO Center=  3.5D-15, -4.1D-13, -1.9D-09, r^2= 2.6D+00
   Bfn.  Coefficient  Atom+Function         Bfn.  Coefficient  Atom+Function  
  ----- ------------  ---------------      ----- ------------  ---------------
    17      0.658094  1 S  py                70     -0.658094  2 S  py         
    20      0.231316  1 S  py                73     -0.231316  2 S  py         
    14      0.177636  1 S  py                67     -0.177636  2 S  py         
    11     -0.150526  1 S  py                64      0.150526  2 S  py         

 Vector   18  Occ=0.000000D+00  E=-1.002631D-01
              MO Center=  4.4D-15,  1.4D-11,  5.4D-10, r^2= 4.0D+00
   Bfn.  Coefficient  Atom+Function         Bfn.  Coefficient  Atom+Function  
  ----- ------------  ---------------      ----- ------------  ---------------
    22      0.768256  1 S  s                 75     -0.768256  2 S  s          
    18      0.679879  1 S  pz                71      0.679879  2 S  pz         
     6      0.374689  1 S  s                 59     -0.374689  2 S  s          
    25      0.371392  1 S  pz                78      0.371392  2 S  pz         
     5      0.263855  1 S  s                 58     -0.263855  2 S  s          

 Vector   19  Occ=0.000000D+00  E=-3.059415D-02
              MO Center=  1.4D-14,  2.1D-10,  1.7D-09, r^2= 6.2D+00
   Bfn.  Coefficient  Atom+Function         Bfn.  Coefficient  Atom+Function  
  ----- ------------  ---------------      ----- ------------  ---------------
    22      0.659569  1 S  s                 75      0.659569  2 S  s          
     5     -0.248512  1 S  s                 58     -0.248512  2 S  s          
    43     -0.206421  1 S  dzz               96     -0.206421  2 S  dzz        
     6     -0.192461  1 S  s                 59     -0.192461  2 S  s          

 Vector   20  Occ=0.000000D+00  E= 2.922406D-02
              MO Center= -1.7D-14, -1.2D-13,  3.6D-09, r^2= 1.1D+01
   Bfn.  Coefficient  Atom+Function         Bfn.  Coefficient  Atom+Function  
  ----- ------------  ---------------      ----- ------------  ---------------
    23      0.773650  1 S  px                76      0.773650  2 S  px         
    19     -0.374978  1 S  px                72     -0.374978  2 S  px         
    40     -0.296443  1 S  dxz               93      0.296443  2 S  dxz        

 Vector   21  Occ=0.000000D+00  E= 2.922406D-02
              MO Center=  8.1D-14,  7.0D-09,  7.4D-09, r^2= 1.1D+01
   Bfn.  Coefficient  Atom+Function         Bfn.  Coefficient  Atom+Function  
  ----- ------------  ---------------      ----- ------------  ---------------
    24      0.773650  1 S  py                77      0.773650  2 S  py         
    20     -0.374978  1 S  py                73     -0.374978  2 S  py         
    42     -0.296443  1 S  dyz               95      0.296443  2 S  dyz        

 Vector   22  Occ=0.000000D+00  E= 3.183190D-02
              MO Center= -8.9D-14, -7.1D-09,  6.9D-08, r^2= 1.4D+01
   Bfn.  Coefficient  Atom+Function         Bfn.  Coefficient  Atom+Function  
  ----- ------------  ---------------      ----- ------------  ---------------
    25      1.106377  1 S  pz                78     -1.106377  2 S  pz         
    22     -0.626995  1 S  s                 75     -0.626995  2 S  s          
    21     -0.323722  1 S  pz                74      0.323722  2 S  pz         
     6      0.170956  1 S  s                 59      0.170956  2 S  s          
    18      0.168413  1 S  pz                71     -0.168413  2 S  pz         

 Vector   23  Occ=0.000000D+00  E= 3.483240D-02
              MO Center=  9.1D-15,  3.8D-09, -7.0D-08, r^2= 1.5D+01
   Bfn.  Coefficient  Atom+Function         Bfn.  Coefficient  Atom+Function  
  ----- ------------  ---------------      ----- ------------  ---------------
    25     -1.404586  1 S  pz                78     -1.404586  2 S  pz         
    21      1.381821  1 S  pz                74      1.381821  2 S  pz         
    18      0.436149  1 S  pz                71      0.436149  2 S  pz         
     6      0.402259  1 S  s                 59     -0.402259  2 S  s          
    22     -0.232229  1 S  s                 75      0.232229  2 S  s          

 Vector   24  Occ=0.000000D+00  E= 5.001129D-02
              MO Center=  1.0D-15,  4.4D-14,  1.7D-09, r^2= 3.2D+00
   Bfn.  Coefficient  Atom+Function         Bfn.  Coefficient  Atom+Function  
  ----- ------------  ---------------      ----- ------------  ---------------
    39      0.918721  1 S  dxy               92      0.918721  2 S  dxy        
    33      0.249379  1 S  dxy               86      0.249379  2 S  dxy        

 Vector   25  Occ=0.000000D+00  E= 5.001142D-02
              MO Center=  2.4D-15,  7.0D-14,  1.7D-09, r^2= 3.2D+00
   Bfn.  Coefficient  Atom+Function         Bfn.  Coefficient  Atom+Function  
  ----- ------------  ---------------      ----- ------------  ---------------
    38      0.459361  1 S  dxx               41     -0.459361  1 S  dyy        
    91      0.459361  2 S  dxx               94     -0.459361  2 S  dyy        

 Vector   26  Occ=0.000000D+00  E= 7.175608D-02
              MO Center=  2.6D-15, -7.0D-15, -3.4D-09, r^2= 1.6D+01
   Bfn.  Coefficient  Atom+Function         Bfn.  Coefficient  Atom+Function  
  ----- ------------  ---------------      ----- ------------  ---------------
    23      2.201666  1 S  px                76     -2.201666  2 S  px         
    19     -0.851296  1 S  px                72      0.851296  2 S  px         
    40     -0.208140  1 S  dxz               93     -0.208140  2 S  dxz        

 Vector   27  Occ=0.000000D+00  E= 7.175608D-02
              MO Center=  3.7D-14, -3.2D-09, -5.9D-09, r^2= 1.6D+01
   Bfn.  Coefficient  Atom+Function         Bfn.  Coefficient  Atom+Function  
  ----- ------------  ---------------      ----- ------------  ---------------
    24      2.201666  1 S  py                77     -2.201666  2 S  py         
    20     -0.851296  1 S  py                73      0.851296  2 S  py         
    42     -0.208140  1 S  dyz               95     -0.208140  2 S  dyz        

 Vector   28  Occ=0.000000D+00  E= 8.892971D-02
              MO Center=  1.4D-14,  3.1D-14,  3.8D-10, r^2= 5.0D+00
   Bfn.  Coefficient  Atom+Function         Bfn.  Coefficient  Atom+Function  
  ----- ------------  ---------------      ----- ------------  ---------------
    40      0.839416  1 S  dxz               93     -0.839416  2 S  dxz        
    23      0.456215  1 S  px                76      0.456215  2 S  px         
    19     -0.369460  1 S  px                72     -0.369460  2 S  px         
    34      0.303572  1 S  dxz               87     -0.303572  2 S  dxz        
    16     -0.207523  1 S  px                69     -0.207523  2 S  px         

 Vector   29  Occ=0.000000D+00  E= 8.892971D-02
              MO Center=  2.5D-15, -1.7D-11, -4.3D-10, r^2= 5.0D+00
   Bfn.  Coefficient  Atom+Function         Bfn.  Coefficient  Atom+Function  
  ----- ------------  ---------------      ----- ------------  ---------------
    42      0.839416  1 S  dyz               95     -0.839416  2 S  dyz        
    24      0.456215  1 S  py                77      0.456215  2 S  py         
    20     -0.369460  1 S  py                73     -0.369460  2 S  py         
    36      0.303572  1 S  dyz               89     -0.303572  2 S  dyz        
    17     -0.207523  1 S  py                70     -0.207523  2 S  py         

 Vector   30  Occ=0.000000D+00  E= 1.225247D-01
              MO Center= -4.4D-14,  4.2D-10,  1.0D-09, r^2= 1.6D+01
   Bfn.  Coefficient  Atom+Function         Bfn.  Coefficient  Atom+Function  
  ----- ------------  ---------------      ----- ------------  ---------------
    22     16.094264  1 S  s                 75    -16.094264  2 S  s          
    25      6.185874  1 S  pz                78      6.185874  2 S  pz         
     6     -0.538544  1 S  s                 59      0.538544  2 S  s          
    43     -0.381438  1 S  dzz               96      0.381438  2 S  dzz        
    21     -0.356689  1 S  pz                74     -0.356689  2 S  pz         

 Vector   31  Occ=0.000000D+00  E= 1.680005D-01
              MO Center= -4.1D-15,  9.4D-11, -1.4D-09, r^2= 1.2D+01
   Bfn.  Coefficient  Atom+Function         Bfn.  Coefficient  Atom+Function  
  ----- ------------  ---------------      ----- ------------  ---------------
    25      1.833449  1 S  pz                78     -1.833449  2 S  pz         
    21     -1.235927  1 S  pz                74      1.235927  2 S  pz         
    38     -0.487515  1 S  dxx               41     -0.487515  1 S  dyy        
    91     -0.487515  2 S  dxx               94     -0.487515  2 S  dyy        
    18      0.346155  1 S  pz                71     -0.346155  2 S  pz         

 Vector   32  Occ=0.000000D+00  E= 1.850701D-01
              MO Center= -3.2D-16,  2.6D-14, -1.6D-09, r^2= 3.7D+00
   Bfn.  Coefficient  Atom+Function         Bfn.  Coefficient  Atom+Function  
  ----- ------------  ---------------      ----- ------------  ---------------
    39      1.289659  1 S  dxy               92     -1.289659  2 S  dxy        
    33      0.293280  1 S  dxy               86     -0.293280  2 S  dxy        

 Vector   33  Occ=0.000000D+00  E= 1.850707D-01
              MO Center= -3.6D-16,  2.3D-14, -1.6D-09, r^2= 3.7D+00
   Bfn.  Coefficient  Atom+Function         Bfn.  Coefficient  Atom+Function  
  ----- ------------  ---------------      ----- ------------  ---------------
    38      0.644829  1 S  dxx               41     -0.644829  1 S  dyy        
    91     -0.644829  2 S  dxx               94      0.644829  2 S  dyy        

 Vector   34  Occ=0.000000D+00  E= 2.310792D-01
              MO Center=  4.6D-14,  2.2D-09,  8.4D-09, r^2= 1.4D+01
   Bfn.  Coefficient  Atom+Function         Bfn.  Coefficient  Atom+Function  
  ----- ------------  ---------------      ----- ------------  ---------------
    22      6.277411  1 S  s                 75     -6.277411  2 S  s          
    21      5.007858  1 S  pz                74      5.007858  2 S  pz         
     6      2.659573  1 S  s                 59     -2.659573  2 S  s          
    43      1.398040  1 S  dzz               96     -1.398040  2 S  dzz        
    18      0.633261  1 S  pz                71      0.633261  2 S  pz         

 Vector   35  Occ=0.000000D+00  E= 2.512414D-01
              MO Center=  4.9D-14,  3.4D-14,  5.6D-09, r^2= 9.3D+00
   Bfn.  Coefficient  Atom+Function         Bfn.  Coefficient  Atom+Function  
  ----- ------------  ---------------      ----- ------------  ---------------
    19      1.775401  1 S  px                72      1.775402  2 S  px         
    16     -1.203286  1 S  px                69     -1.203286  2 S  px         
    23     -1.121364  1 S  px                76     -1.121364  2 S  px         
    44      0.254913  1 S  fxxx              47      0.254913  1 S  fxyy       
    97      0.254913  2 S  fxxx             100      0.254913  2 S  fxyy       

 Vector   36  Occ=0.000000D+00  E= 2.512414D-01
              MO Center=  3.0D-15,  2.4D-09,  1.1D-08, r^2= 9.3D+00
   Bfn.  Coefficient  Atom+Function         Bfn.  Coefficient  Atom+Function  
  ----- ------------  ---------------      ----- ------------  ---------------
    20      1.775401  1 S  py                73      1.775402  2 S  py         
    17     -1.203286  1 S  py                70     -1.203286  2 S  py         
    24     -1.121364  1 S  py                77     -1.121364  2 S  py         
    45      0.254913  1 S  fxxy              50      0.254913  1 S  fyyy       
    98      0.254913  2 S  fxxy             103      0.254913  2 S  fyyy       

 Vector   37  Occ=0.000000D+00  E= 2.681062D-01
              MO Center= -5.8D-14, -2.6D-09, -8.4D-09, r^2= 9.8D+00
   Bfn.  Coefficient  Atom+Function         Bfn.  Coefficient  Atom+Function  
  ----- ------------  ---------------      ----- ------------  ---------------
    21      1.164791  1 S  pz                74     -1.164791  2 S  pz         
    22      1.149517  1 S  s                 75      1.149517  2 S  s          
     6      1.128465  1 S  s                 59      1.128465  2 S  s          
    38     -1.004135  1 S  dxx               41     -1.004135  1 S  dyy        
    91     -1.004135  2 S  dxx               94     -1.004135  2 S  dyy        

 Vector   38  Occ=0.000000D+00  E= 2.816555D-01
              MO Center= -4.2D-14, -2.4D-14, -5.7D-09, r^2= 1.0D+01
   Bfn.  Coefficient  Atom+Function         Bfn.  Coefficient  Atom+Function  
  ----- ------------  ---------------      ----- ------------  ---------------
    19      2.421485  1 S  px                72     -2.421485  2 S  px         
    23     -2.268696  1 S  px                76      2.268696  2 S  px         
    16     -1.272533  1 S  px                69      1.272533  2 S  px         
    40     -0.531742  1 S  dxz               93     -0.531742  2 S  dxz        
    49      0.290503  1 S  fxzz             102     -0.290503  2 S  fxzz       

 Vector   39  Occ=0.000000D+00  E= 2.816555D-01
              MO Center= -1.4D-14, -3.2D-09, -1.2D-08, r^2= 1.0D+01
   Bfn.  Coefficient  Atom+Function         Bfn.  Coefficient  Atom+Function  
  ----- ------------  ---------------      ----- ------------  ---------------
    20      2.421485  1 S  py                73     -2.421485  2 S  py         
    24     -2.268696  1 S  py                77      2.268696  2 S  py         
    17     -1.272533  1 S  py                70      1.272533  2 S  py         
    42     -0.531742  1 S  dyz               95     -0.531742  2 S  dyz        
    52      0.290503  1 S  fyzz             105     -0.290503  2 S  fyzz       

 Vector   40  Occ=0.000000D+00  E= 3.794885D-01
              MO Center=  4.3D-15,  7.1D-12, -4.7D-10, r^2= 8.3D+00
   Bfn.  Coefficient  Atom+Function         Bfn.  Coefficient  Atom+Function  
  ----- ------------  ---------------      ----- ------------  ---------------
    22     11.940858  1 S  s                 75    -11.940858  2 S  s          
    25      4.561457  1 S  pz                78      4.561457  2 S  pz         
    38     -1.594327  1 S  dxx               41     -1.594327  1 S  dyy        
    91      1.594327  2 S  dxx               94      1.594327  2 S  dyy        
    21     -1.270975  1 S  pz                74     -1.270975  2 S  pz         

 Vector   41  Occ=0.000000D+00  E= 3.925471D-01
              MO Center= -3.9D-16,  8.2D-11,  4.7D-12, r^2= 5.8D+00
   Bfn.  Coefficient  Atom+Function         Bfn.  Coefficient  Atom+Function  
  ----- ------------  ---------------      ----- ------------  ---------------
     6      2.378316  1 S  s                 59      2.378316  2 S  s          
    21     -2.221605  1 S  pz                74      2.221605  2 S  pz         
    43     -1.667110  1 S  dzz               96     -1.667110  2 S  dzz        
    18      1.356987  1 S  pz                71     -1.356987  2 S  pz         
    25      1.162527  1 S  pz                78     -1.162527  2 S  pz         
2.out
 Vector   42  Occ=0.000000D+00  E= 3.957098D-01
              MO Center= -2.1D-14,  4.6D-16, -6.5D-10, r^2= 5.4D+00
   Bfn.  Coefficient  Atom+Function         Bfn.  Coefficient  Atom+Function  
  ----- ------------  ---------------      ----- ------------  ---------------
    19      2.503670  1 S  px                72     -2.503670  2 S  px         
    40      2.468661  1 S  dxz               93      2.468661  2 S  dxz        
    23     -1.219600  1 S  px                76      1.219600  2 S  px         
    34      0.275975  1 S  dxz               87      0.275975  2 S  dxz        

 Vector   43  Occ=0.000000D+00  E= 3.957098D-01
              MO Center=  5.8D-16,  9.1D-11, -8.0D-10, r^2= 5.4D+00
   Bfn.  Coefficient  Atom+Function         Bfn.  Coefficient  Atom+Function  
  ----- ------------  ---------------      ----- ------------  ---------------
    20      2.503670  1 S  py                73     -2.503670  2 S  py         
    42      2.468661  1 S  dyz               95      2.468661  2 S  dyz        
    24     -1.219600  1 S  py                77      1.219600  2 S  py         
    36      0.275975  1 S  dyz               89      0.275975  2 S  dyz        

 Vector   44  Occ=0.000000D+00  E= 6.084544D-01
              MO Center= -1.6D-14, -5.1D-11,  2.1D-11, r^2= 9.6D+00
   Bfn.  Coefficient  Atom+Function         Bfn.  Coefficient  Atom+Function  
  ----- ------------  ---------------      ----- ------------  ---------------
    21      6.055859  1 S  pz                74      6.055859  2 S  pz         
     6      5.074770  1 S  s                 59     -5.074770  2 S  s          
    43      4.051525  1 S  dzz               96     -4.051525  2 S  dzz        
    18      3.577138  1 S  pz                71      3.577138  2 S  pz         
    25     -1.612582  1 S  pz                78     -1.612582  2 S  pz         


                     DFT Final Beta Molecular Orbital Analysis
                     -----------------------------------------

 Vector    5  Occ=1.000000D+00  E=-5.860987D+00
              MO Center=  9.3D-16,  7.3D-17,  7.7D-07, r^2= 9.7D-01
   Bfn.  Coefficient  Atom+Function         Bfn.  Coefficient  Atom+Function  
  ----- ------------  ---------------      ----- ------------  ---------------
    12      0.499242  1 S  pz                65     -0.499242  2 S  pz         
     9      0.266162  1 S  pz                62     -0.266162  2 S  pz         

 Vector    6  Occ=1.000000D+00  E=-5.860187D+00
              MO Center=  6.9D-16,  2.8D-16, -7.7D-07, r^2= 9.7D-01
   Bfn.  Coefficient  Atom+Function         Bfn.  Coefficient  Atom+Function  
  ----- ------------  ---------------      ----- ------------  ---------------
    12      0.499433  1 S  pz                65      0.499433  2 S  pz         
     9      0.266268  1 S  pz                62      0.266268  2 S  pz         

 Vector    7  Occ=1.000000D+00  E=-5.853650D+00
              MO Center= -6.9D-16,  1.9D-16,  9.7D-06, r^2= 9.6D-01
   Bfn.  Coefficient  Atom+Function         Bfn.  Coefficient  Atom+Function  
  ----- ------------  ---------------      ----- ------------  ---------------
    10      0.426983  1 S  px                63      0.426987  2 S  px         
    11     -0.259774  1 S  py                64     -0.259777  2 S  py         
     7      0.227453  1 S  px                60      0.227455  2 S  px         

 Vector    8  Occ=1.000000D+00  E=-5.853650D+00
              MO Center= -2.5D-16, -2.9D-16,  9.7D-06, r^2= 9.6D-01
   Bfn.  Coefficient  Atom+Function         Bfn.  Coefficient  Atom+Function  
  ----- ------------  ---------------      ----- ------------  ---------------
    11      0.426983  1 S  py                64      0.426987  2 S  py         
    10      0.259774  1 S  px                63      0.259777  2 S  px         
     8      0.227453  1 S  py                61      0.227455  2 S  py         

 Vector    9  Occ=1.000000D+00  E=-5.853586D+00
              MO Center=  9.2D-17, -6.7D-18, -9.7D-06, r^2= 9.6D-01
   Bfn.  Coefficient  Atom+Function         Bfn.  Coefficient  Atom+Function  
  ----- ------------  ---------------      ----- ------------  ---------------
    11      0.457237  1 S  py                64     -0.457232  2 S  py         
     8      0.243577  1 S  py                61     -0.243574  2 S  py         
    10     -0.201843  1 S  px                63      0.201841  2 S  px         

 Vector   10  Occ=1.000000D+00  E=-5.853586D+00
              MO Center= -4.3D-16, -2.0D-16, -9.7D-06, r^2= 9.6D-01
   Bfn.  Coefficient  Atom+Function         Bfn.  Coefficient  Atom+Function  
  ----- ------------  ---------------      ----- ------------  ---------------
    10      0.457237  1 S  px                63     -0.457232  2 S  px         
     7      0.243577  1 S  px                60     -0.243574  2 S  px         
    11      0.201843  1 S  py                64     -0.201841  2 S  py         

 Vector   11  Occ=1.000000D+00  E=-8.189425D-01
              MO Center=  1.1D-15, -5.9D-15,  9.5D-10, r^2= 1.1D+00
   Bfn.  Coefficient  Atom+Function         Bfn.  Coefficient  Atom+Function  
  ----- ------------  ---------------      ----- ------------  ---------------
     5      0.458137  1 S  s                 58      0.458137  2 S  s          
     6      0.404047  1 S  s                 59      0.404047  2 S  s          
     4     -0.275079  1 S  s                 57     -0.275079  2 S  s          

 Vector   12  Occ=1.000000D+00  E=-5.999675D-01
              MO Center=  3.1D-15, -2.7D-15,  7.0D-10, r^2= 2.4D+00
   Bfn.  Coefficient  Atom+Function         Bfn.  Coefficient  Atom+Function  
  ----- ------------  ---------------      ----- ------------  ---------------
     6      0.609501  1 S  s                 59     -0.609501  2 S  s          
     5      0.522809  1 S  s                 58     -0.522809  2 S  s          
     4     -0.310518  1 S  s                 57      0.310518  2 S  s          
     3     -0.161669  1 S  s                 56      0.161669  2 S  s          
    18     -0.160819  1 S  pz                71     -0.160819  2 S  pz         

 Vector   13  Occ=1.000000D+00  E=-4.133880D-01
              MO Center=  4.9D-15, -3.2D-14, -9.7D-10, r^2= 2.8D+00
   Bfn.  Coefficient  Atom+Function         Bfn.  Coefficient  Atom+Function  
  ----- ------------  ---------------      ----- ------------  ---------------
    18      0.489488  1 S  pz                71     -0.489488  2 S  pz         
     6     -0.358087  1 S  s                 59     -0.358087  2 S  s          
    15      0.181723  1 S  pz                68     -0.181723  2 S  pz         
     5     -0.165088  1 S  s                 58     -0.165088  2 S  s          

 Vector   14  Occ=1.000000D+00  E=-3.791898D-01
              MO Center=  6.4D-15, -1.1D-13,  1.7D-09, r^2= 2.0D+00
   Bfn.  Coefficient  Atom+Function         Bfn.  Coefficient  Atom+Function  
  ----- ------------  ---------------      ----- ------------  ---------------
    17      0.562006  1 S  py                70      0.562006  2 S  py         

 Vector   15  Occ=1.000000D+00  E=-3.791898D-01
              MO Center= -1.4D-14, -5.4D-15,  1.7D-09, r^2= 2.0D+00
   Bfn.  Coefficient  Atom+Function         Bfn.  Coefficient  Atom+Function  
  ----- ------------  ---------------      ----- ------------  ---------------
    16      0.562006  1 S  px                69      0.562006  2 S  px         

 Vector   16  Occ=0.000000D+00  E=-2.318788D-01
              MO Center=  1.1D-13, -1.6D-13, -1.2D-09, r^2= 2.8D+00
   Bfn.  Coefficient  Atom+Function         Bfn.  Coefficient  Atom+Function  
  ----- ------------  ---------------      ----- ------------  ---------------
    17      0.580787  1 S  py                70     -0.580787  2 S  py         
    16     -0.369600  1 S  px                69      0.369600  2 S  px         
    20      0.209896  1 S  py                73     -0.209896  2 S  py         

 Vector   17  Occ=0.000000D+00  E=-2.318788D-01
              MO Center= -1.1D-13, -6.5D-14, -1.2D-09, r^2= 2.8D+00
   Bfn.  Coefficient  Atom+Function         Bfn.  Coefficient  Atom+Function  
  ----- ------------  ---------------      ----- ------------  ---------------
    16      0.580787  1 S  px                69     -0.580787  2 S  px         
    17      0.369600  1 S  py                70     -0.369600  2 S  py         
    19      0.209896  1 S  px                72     -0.209896  2 S  px         

 Vector   18  Occ=0.000000D+00  E=-8.916083D-02
              MO Center=  2.4D-16,  1.1D-11,  4.8D-10, r^2= 4.0D+00
   Bfn.  Coefficient  Atom+Function         Bfn.  Coefficient  Atom+Function  
  ----- ------------  ---------------      ----- ------------  ---------------
    22      0.922743  1 S  s                 75     -0.922743  2 S  s          
    18      0.644994  1 S  pz                71      0.644994  2 S  pz         
    25      0.435317  1 S  pz                78      0.435317  2 S  pz         
     6      0.362456  1 S  s                 59     -0.362456  2 S  s          
     5      0.262649  1 S  s                 58     -0.262649  2 S  s          

 Vector   19  Occ=0.000000D+00  E=-2.492063D-02
              MO Center= -4.6D-15,  1.4D-10,  1.4D-09, r^2= 6.1D+00
   Bfn.  Coefficient  Atom+Function         Bfn.  Coefficient  Atom+Function  
  ----- ------------  ---------------      ----- ------------  ---------------
    22      0.650148  1 S  s                 75      0.650148  2 S  s          
     5     -0.233455  1 S  s                 58     -0.233455  2 S  s          
     6     -0.201497  1 S  s                 59     -0.201497  2 S  s          
    43     -0.199744  1 S  dzz               96     -0.199744  2 S  dzz        
    21      0.160423  1 S  pz                74     -0.160423  2 S  pz         

 Vector   20  Occ=0.000000D+00  E= 3.594834D-02
              MO Center=  5.9D-14, -4.1D-14,  2.7D-09, r^2= 1.1D+01
   Bfn.  Coefficient  Atom+Function         Bfn.  Coefficient  Atom+Function  
  ----- ------------  ---------------      ----- ------------  ---------------
    23      0.785757  1 S  px                76      0.785757  2 S  px         
    19     -0.394528  1 S  px                72     -0.394528  2 S  px         
    40     -0.300342  1 S  dxz               93      0.300342  2 S  dxz        

 Vector   21  Occ=0.000000D+00  E= 3.594834D-02
              MO Center= -1.5D-14,  3.9D-09,  5.4D-09, r^2= 1.1D+01
   Bfn.  Coefficient  Atom+Function         Bfn.  Coefficient  Atom+Function  
  ----- ------------  ---------------      ----- ------------  ---------------
    24      0.785757  1 S  py                77      0.785757  2 S  py         
    20     -0.394528  1 S  py                73     -0.394528  2 S  py         
    42     -0.300342  1 S  dyz               95      0.300342  2 S  dyz        

 Vector   22  Occ=0.000000D+00  E= 3.966363D-02
              MO Center= -4.7D-14, -4.0D-09,  9.0D-08, r^2= 1.4D+01
   Bfn.  Coefficient  Atom+Function         Bfn.  Coefficient  Atom+Function  
  ----- ------------  ---------------      ----- ------------  ---------------
    25      1.153773  1 S  pz                78     -1.153773  2 S  pz         
    22     -0.644543  1 S  s                 75     -0.644543  2 S  s          
    21     -0.366441  1 S  pz                74      0.366441  2 S  pz         
     6      0.190715  1 S  s                 59      0.190715  2 S  s          
    18      0.173128  1 S  pz                71     -0.173128  2 S  pz         

 Vector   23  Occ=0.000000D+00  E= 4.197279D-02
              MO Center= -1.6D-14,  2.7D-09, -9.1D-08, r^2= 1.5D+01
   Bfn.  Coefficient  Atom+Function         Bfn.  Coefficient  Atom+Function  
  ----- ------------  ---------------      ----- ------------  ---------------
    25      1.635468  1 S  pz                78      1.635468  2 S  pz         
    21     -1.438212  1 S  pz                74     -1.438212  2 S  pz         
    22      0.793279  1 S  s                 75     -0.793279  2 S  s          
    18     -0.453880  1 S  pz                71     -0.453880  2 S  pz         
     6     -0.440820  1 S  s                 59      0.440820  2 S  s          

 Vector   24  Occ=0.000000D+00  E= 6.881258D-02
              MO Center= -3.8D-15, -3.5D-14,  1.4D-09, r^2= 3.3D+00
   BfS2.outn.  Coefficient  Atom+Function         Bfn.  Coefficient  Atom+Function  
  ----- ------------  ---------------      ----- ------------  ---------------
    39      0.936595  1 S  dxy               92      0.936595  2 S  dxy        
    33      0.216734  1 S  dxy               86      0.216734  2 S  dxy        

 Vector   25  Occ=0.000000D+00  E= 6.881276D-02
              MO Center=  1.0D-14, -4.0D-14,  1.4D-09, r^2= 3.3D+00
   Bfn.  Coefficient  Atom+Function         Bfn.  Coefficient  Atom+Function  
  ----- ------------  ---------------      ----- ------------  ---------------
    38      0.468297  1 S  dxx               41     -0.468297  1 S  dyy        
    91      0.468297  2 S  dxx               94     -0.468297  2 S  dyy        

 Vector   26  Occ=0.000000D+00  E= 8.203392D-02
              MO Center=  1.2D-14,  3.2D-15, -2.6D-09, r^2= 1.6D+01
   Bfn.  Coefficient  Atom+Function         Bfn.  Coefficient  Atom+Function  
  ----- ------------  ---------------      ----- ------------  ---------------
    23      2.265821  1 S  px                76     -2.265821  2 S  px         
    19     -0.931895  1 S  px                72      0.931895  2 S  px         
    40     -0.210186  1 S  dxz               93     -0.210186  2 S  dxz        

 Vector   27  Occ=0.000000D+00  E= 8.203392D-02
              MO Center=  2.5D-14, -2.2D-09, -4.1D-09, r^2= 1.6D+01
   Bfn.  Coefficient  Atom+Function         Bfn.  Coefficient  Atom+Function  
  ----- ------------  ---------------      ----- ------------  ---------------
    24      2.265821  1 S  py                77     -2.265821  2 S  py         
    20     -0.931895  1 S  py                73      0.931895  2 S  py         
    42     -0.210186  1 S  dyz               95     -0.210186  2 S  dyz        

 Vector   28  Occ=0.000000D+00  E= 1.015099D-01
              MO Center= -3.6D-15,  2.0D-14,  2.5D-10, r^2= 5.3D+00
   Bfn.  Coefficient  Atom+Function         Bfn.  Coefficient  Atom+Function  
  ----- ------------  ---------------      ----- ------------  ---------------
    40      0.851078  1 S  dxz               93     -0.851078  2 S  dxz        
    23      0.493440  1 S  px                76      0.493440  2 S  px         
    19     -0.426858  1 S  px                72     -0.426858  2 S  px         
    34      0.281226  1 S  dxz               87     -0.281226  2 S  dxz        
    16     -0.218122  1 S  px                69     -0.218122  2 S  px         

 Vector   29  Occ=0.000000D+00  E= 1.015099D-01
              MO Center=  1.0D-15, -1.9D-11, -4.4D-10, r^2= 5.3D+00
   Bfn.  Coefficient  Atom+Function         Bfn.  Coefficient  Atom+Function  
  ----- ------------  ---------------      ----- ------------  ---------------
    42      0.851078  1 S  dyz               95     -0.851078  2 S  dyz        
    24      0.493440  1 S  py                77      0.493440  2 S  py         
    20     -0.426858  1 S  py                73     -0.426858  2 S  py         
    36      0.281226  1 S  dyz               89     -0.281226  2 S  dyz        
    17     -0.218122  1 S  py                70     -0.218122  2 S  py         

 Vector   30  Occ=0.000000D+00  E= 1.295778D-01
              MO Center= -1.4D-14,  3.1D-10,  7.1D-10, r^2= 1.5D+01
   Bfn.  Coefficient  Atom+Function         Bfn.  Coefficient  Atom+Function  
  ----- ------------  ---------------      ----- ------------  ---------------
    22     16.193729  1 S  s                 75    -16.193729  2 S  s          
    25      6.177595  1 S  pz                78      6.177595  2 S  pz         
     6    -0.523325  1 S  s                 59      0.523325  2 S  s          
    43     -0.381688  1 S  dzz               96      0.381688  2 S  dzz        
    21     -0.330871  1 S  pz                74     -0.330871  2 S  pz         

 Vector   31  Occ=0.000000D+00  E= 1.749505D-01
              MO Center= -6.6D-15,  8.5D-11, -9.6D-10, r^2= 1.2D+01
   Bfn.  Coefficient  Atom+Function         Bfn.  Coefficient  Atom+Function  
  ----- ------------  ---------------      ----- ------------  ---------------
    25      1.803035  1 S  pz                78     -1.803035  2 S  pz         
    21     -1.221256  1 S  pz                74      1.221256  2 S  pz         
    38     -0.525472  1 S  dxx               41     -0.525472  1 S  dyy        
    91     -0.525472  2 S  dxx               94     -0.525472  2 S  dyy        
    22      0.389233  1 S  s                 75      0.389233  2 S  s          

 Vector   32  Occ=0.000000D+00  E= 2.124934D-01
              MO Center= -1.4D-16,  3.5D-14, -1.3D-09, r^2= 3.8D+00
   Bfn.  Coefficient  Atom+Function         Bfn.  Coefficient  Atom+Function  
  ----- ------------  ---------------      ----- ------------  ---------------
    39      1.323942  1 S  dxy               92     -1.323942  2 S  dxy        
    33      0.254314  1 S  dxy               86     -0.254314  2 S  dxy        

 Vector   33  Occ=0.000000D+00  E= 2.124939D-01
              MO Center= -6.4D-16,  2.9D-14, -1.3D-09, r^2= 3.8D+00
   Bfn.  Coefficient  Atom+Function         Bfn.  Coefficient  Atom+Function  
  ----- ------------  ---------------      ----- ------------  ---------------
    38      0.661971  1 S  dxx               41     -0.661971  1 S  dyy        
    91     -0.661971  2 S  dxx               94      0.661971  2 S  dyy        

 Vector   34  Occ=0.000000D+00  E= 2.369514D-01
              MO Center= -6.2D-16,  1.2D-09,  7.6D-09, r^2= 1.3D+01
   Bfn.  Coefficient  Atom+Function         Bfn.  Coefficient  Atom+Function  
  ----- ------------  ---------------      ----- ------------  ---------------
    22      6.172999  1 S  s                 75     -6.172999  2 S  s          
    21      5.031922  1 S  pz                74      5.031922  2 S  pz         
     6      2.653735  1 S  s                 59     -2.653735  2 S  s          
    43      1.416208  1 S  dzz               96     -1.416208  2 S  dzz        
    18      0.624906  1 S  pz                71      0.624906  2 S  pz         

 Vector   35  Occ=0.000000D+00  E= 2.628079D-01
              MO Center=  5.0D-14,  4.2D-14,  4.3D-09, r^2= 9.0D+00
   Bfn.  Coefficient  Atom+Function         Bfn.  Coefficient  Atom+Function  
  ----- ------------  ---------------      ----- ------------  ---------------
    19      1.771258  1 S  px                72      1.771258  2 S  px         
    16     -1.276398  1 S  px                69     -1.276398  2 S  px         
    23     -1.101866  1 S  px                76     -1.101866  2 S  px         
    44      0.281209  1 S  fxxx              47      0.281210  1 S  fxyy       
    97      0.281209  2 S  fxxx             100      0.281210  2 S  fxyy       

 Vector   36  Occ=0.000000D+00  E= 2.628079D-01
              MO Center= -4.6D-14,  2.1D-09,  7.7D-09, r^2= 9.0D+00
   Bfn.  Coefficient  Atom+Function         Bfn.  Coefficient  Atom+Function  
  ----- ------------  ---------------      ----- ------------  ---------------
    20      1.771258  1 S  py                73      1.771258  2 S  py         
    17     -1.276398  1 S  py                70     -1.276398  2 S  py         
    24     -1.101866  1 S  py                77     -1.101866  2 S  py         
    45      0.281210  1 S  fxxy              50      0.281209  1 S  fyyy       
    98      0.281210  2 S  fxxy             103      0.281209  2 S  fyyy       

 Vector   37  Occ=0.000000D+00  E= 2.764383D-01
              MO Center=  1.1D-15, -2.2D-09, -7.6D-09, r^2= 1.0D+01
   Bfn.  Coefficient  Atom+Function         Bfn.  Coefficient  Atom+Function  
  ----- ------------  ---------------      ----- ------------  ---------------
    21      1.253617  1 S  pz                74     -1.253617  2 S  pz         
    22      1.128422  1 S  s                 75      1.128422  2 S  s          
     6      1.110547  1 S  s                 59      1.110547  2 S  s          
    38     -0.982749  1 S  dxx               41     -0.982749  1 S  dyy        
    91     -0.982749  2 S  dxx               94     -0.982749  2 S  dyy        

 Vector   38  Occ=0.000000D+00  E= 2.966541D-01
              MO Center= -2.1D-14, -2.8D-14, -4.4D-09, r^2= 9.8D+00
   Bfn.  Coefficient  Atom+Function         Bfn.  Coefficient  Atom+Function  
  ----- ------------  ---------------      ----- ------------  ---------------
    19      2.400041  1 S  px                72     -2.400041  2 S  px         
    23     -2.217481  1 S  px                76      2.217481  2 S  px         
    16     -1.345977  1 S  px                69      1.345977  2 S  px         
    40     -0.559917  1 S  dxz               93     -0.559917  2 S  dxz        
    49      0.303413  1 S  fxzz             102     -0.303413  2 S  fxzz       

 Vector   39  Occ=0.000000D+00  E= 2.966541D-01
              MO Center=  1.9D-14, -1.9D-09, -8.0D-09, r^2= 9.8D+00
   Bfn.  Coefficient  Atom+Function         Bfn.  Coefficient  Atom+Function  
  ----- ------------  ---------------      ----- ------------  ---------------
    20      2.400041  1 S  py                73     -2.400041  2 S  py         
    24     -2.217481  1 S  py                77      2.217481  2 S  py         
    17     -1.345977  1 S  py                70      1.345977  2 S  py         
    42     -0.559917  1 S  dyz               95     -0.559917  2 S  dyz        
    52      0.303413  1 S  fyzz             105     -0.303413  2 S  fyzz       

 Vector   40  Occ=0.000000D+00  E= 3.902562D-01
              MO Center= -3.7D-15,  1.4D-11, -7.8D-10, r^2= 8.2D+00
   Bfn.  Coefficient  Atom+Function         Bfn.  Coefficient  Atom+Function  
  ----- ------------  ---------------      ----- ------------  ---------------
    22     11.845110  1 S  s                 75    -11.845110  2 S  s          
    25      4.491279  1 S  pz                78      4.491279  2 S  pz         
    38     -1.589091  1 S  dxx               41     -1.589091  1 S  dyy        
    91      1.589091  2 S  dxx               94      1.589091  2 S  dyy        
     6      1.291298  1 S  s                 59     -1.291298  2 S  s          

 Vector   41  Occ=0.000000D+00  E= 3.990362D-01
              MO Center=  5.8D-15,  6.1D-11,  3.8D-10, r^2= 5.6D+00
   Bfn.  Coefficient  Atom+Function         Bfn.  Coefficient  Atom+Function  
  ----- ------------  ---------------      ----- ------------  ---------------
     6      2.477299  1 S  s                 59      2.477299  2 S  s          
    21     -2.173435  1 S  pz                74      2.173435  2 S  pz         
    43     -1.733297  1 S  dzz               96     -1.733297  2 S  dzz        
    18      1.311793  1 S  pz                71     -1.311793  2 S  pz         
    25      1.109844  1 S  pz                78     -1.109844  2 S  pz         

 Vector   42  Occ=0.000000D+00  E= 4.087435D-01
              MO Center=  3.3D-15, -9.6D-15, -6.3D-10, r^2= 5.5D+00
   Bfn.  Coefficient  Atom+Function         Bfn.  Coefficient  Atom+Function  
  ----- ------------  ---------------      ----- ------------  ---------------
    19      2.538308  1 S  px                72     -2.538308  2 S  px         
    40      2.498745  1 S  dxz               93      2.498745  2 S  dxz        
    23     -1.227757  1 S  px                76      1.227757  2 S  px         
    34      0.253243  1 S  dxz               87      0.253243  2 S  dxz        

 Vector   43  Occ=0.000000D+00  E= 4.087435D-01
              MO Center= -3.7D-15,  5.6D-11, -7.4D-10, r^2= 5.5D+00
   Bfn.  Coefficient  Atom+Function         Bfn.  Coefficient  Atom+Function  
  ----- ------------  ---------------      ----- ------------  ---------------
    20      2.538308  1 S  py                73     -2.538308  2 S  py         
    42      2.498745  1 S  dyz               95      2.498745  2 S  dyz        
    24     -1.227757  1 S  py                77      1.227757  2 S  py         
    36      0.253243  1 S  dyz               89      0.253243  2 S  dyz        

 Vector   44  Occ=0.000000D+00  E= 6.171913D-01
              MO Center= -2.9D-15, -4.3D-11,  4.3D-11, r^2= 9.7D+00
   Bfn.  Coefficient  Atom+Function         Bfn.  Coefficient  Atom+Function  
  ----- ------------  ---------------      ----- ------------  ---------------
    21      6.080890  1 S  pz                74      6.080890  2 S  pz         
     6      5.130366  1 S  s                 59     -5.130366  2 S  s          
    43      4.083178  1 S  dzz               96     -4.083178  2 S  dzz        
    18      3.643118  1 S  pz                71      3.643118  2 S  pz         
    25     -1.612601  1 S  pz                78     -1.612601  2 S  pz         


   alpha - beta orbital overlaps 
   ----------------------------- 


   alpha      1      2      3      4      5      6      7      8      9     10
    beta      1      2      3      4      5      6      7      8     10      9
 overlap   1.000  1.000  1.000  1.000  1.000  1.000  0.769  0.769  0.885  0.885


   alpha     11     12     13     14     15     16     17     18     19     20
    beta     11     12     13     15     14     17     16     18     19     20
 overlap   0.999  0.999  0.999  0.993  0.993  0.846  0.846  0.999  1.000  1.000


   alpha     21     22     23     24     25     26     27     28     29     30
    beta     21     22     23     24     25     26     27     28     29     30
 overlap   1.000  0.999  0.999  1.000  1.000  0.999  0.999  0.999  0.999  0.999


   alpha     31     32     33     34     35     36     37     38     39     40
    beta     31     32     33     34     35     36     37     38     39     40
 overlap   0.999  1.000  1.000  1.000  0.999  0.999  0.999  0.999  0.999  1.000


   alpha     41     42     43     44     45     46     47     48     49     50
    beta     41     42     43     44     45     46     47     48     49     50
 overlap   0.999  1.000  1.000  1.000  0.999  0.999  0.999  0.999  0.999  1.000


   alpha     51     52     53     54     55     56     57     58     59     60
    beta     51     52     53     54     55     56     57     58     59     60
 overlap   1.000  0.999  0.999  1.000  0.999  0.999  1.000  0.999  0.999  1.000


   alpha     61     62     63     64     65     66     67     68     69     70
    beta     61     63     62     64     65     66     67     68     70     69
 overlap   0.999  1.000  1.000  0.999  1.000  1.000  0.998  0.998  0.724  0.724


   alpha     71     72     73     74     75     76     77     78     79     80
    beta     71     72     73     74     75     76     77     78     79     80
 overlap   1.000  1.000  1.000  1.000  1.000  1.000  1.000  1.000  1.000  1.000


   alpha     81     82     83     84     85     86     87     88     89     90
    beta     81     82     83     84     85     86     87     88     89     90
 overlap   1.000  1.000  1.000  1.000  1.000  1.000  1.000  1.000  1.000  1.000


   alpha     91     92     93     94     95     96     97     98     99    100
    beta     91     92     93     94     95     96     97     98     99    100
 overlap   1.000  1.000  1.000  1.000  1.000  1.000  0.995  0.995  0.999  0.999


   alpha    101    102    103    104    105    106
    beta    101    102    103    104    105    106
 overlap   1.000  1.000  1.000  1.000  1.000  1.000

     --------------------------
     Expectation value of S2:  
     --------------------------
      <S2> =      2.0070 (Exact =     2.0000)


 center of mass
 --------------
 x =   0.00000000 y =   0.00000000 z =   0.00000000

 moments of inertia (a.u.)
 ------------------
         204.480318591977           0.000000000000           0.000000000000
           0.000000000000         204.480318591977           0.000000000000
           0.000000000000           0.000000000000           0.000000000000

     Multipole analysis of the density
     ---------------------------------

     L   x y z        total         alpha         beta         nuclear
     -   - - -        -----         -----         ----         -------
     0   0 0 0     -0.000000    -17.000000    -15.000000     32.000000

     1   1 0 0     -0.000000     -0.000000     -0.000000      0.000000
     1   0 1 0      0.000000      0.000000      0.000000      0.000000
     1   0 0 1     -0.000000     -0.000000     -0.000000      0.000000

     2   2 0 0    -19.667438    -11.713340     -7.954098      0.000000
     2   1 1 0     -0.000000      0.000000     -0.000000      0.000000
     2   1 0 1     -0.000000      0.000000     -0.000000      0.000000
     2   0 2 0    -19.667438    -11.713340     -7.954098      0.000000
     2   0 1 1     -0.000000     -0.000000     -0.000000      0.000000
     2   0 0 2    -18.357498    -65.731980    -54.954992    102.329474


 Parallel integral file used      91 records with       0 large values


 Task  times  cpu:        3.6s     wall:        4.5s


                                NWChem Input Module
                                -------------------


 Summary of allocated global arrays
-----------------------------------
  No active global arrays



                         GA Statistics for process    0
                         ------------------------------

       create   destroy   get      put      acc     scatter   gather  read&inc
calls:  309      309     2687     2224      481        0        0       57     
number of processes/call 2.04e+00 1.39e+00 3.95e+00 0.00e+00 0.00e+00
bytes total:             5.56e+07 9.23e+06 2.52e+07 0.00e+00 0.00e+00 4.56e+02
bytes remote:            3.90e+07 3.62e+06 1.95e+07 0.00e+00 0.00e+00 0.00e+00
Max memory consumed for GA by this process: 1415736 bytes

MA_summarize_allocated_blocks: starting scan ...
MA_summarize_allocated_blocks: scan completed: 0 heap blocks, 0 stack blocks
MA usage statistics:

	allocation statistics:
					      heap	     stack
					      ----	     -----
	current number of blocks	         0	         0
	maximum number of blocks	        23	        51
	current total bytes		         0	         0
	maximum total bytes		  17724312	  25265192
	maximum total K-bytes		     17725	     25266
	maximum total M-bytes		        18	        26


                                     CITATION
                                     --------
                Please cite the following reference when publishing
                           results obtained with NWChem:

                 M. Valiev, E.J. Bylaska, N. Govind, K. Kowalski,
              T.P. Straatsma, H.J.J. van Dam, D. Wang, J. Nieplocha,
                        E. Apra, T.L. Windus, W.A. de Jong
                 "NWChem: a comprehensive and scalable open-source
                  solution for large scale molecular simulations"
                      Comput. Phys. Commun. 181, 1477 (2010)
                           doi:10.1016/j.cpc.2010.04.018

                                      AUTHORS
                                      -------
          E. Apra, E. J. Bylaska, W. A. de Jong, N. Govind, K. Kowalski,
       T. P. Straatsma, M. Valiev, H. J. J. van Dam, D. Wang, T. L. Windus,
        J. Hammond, J. Autschbach, K. Bhaskaran-Nair, J. Brabec, K. Lopata,
       S. A. Fischer, S. Krishnamoorthy, W. Ma, M. Klemm, O. Villa, Y. Chen,
    V. Anisimov, F. Aquino, S. Hirata, M. T. Hackler, T. Risthaus, M. Malagoli,
       A. Marenich, A. Otero-de-la-Roza, J. Mullin, P. Nichols, R. Peverati,
     J. Pittner, Y. Zhao, P.-D. Fan, A. Fonari, M. Williamson, R. J. Harrison,
       J. R. Rehr, M. Dupuis, D. Silverstein, D. M. A. Smith, J. Nieplocha,
        V. Tipparaju, M. Krishnan, B. E. Van Kuiken, A. Vazquez-Mayagoitia,
        L. Jensen, M. Swart, Q. Wu, T. Van Voorhis, A. A. Auer, M. Nooijen,
      L. D. Crosby, E. Brown, G. Cisneros, G. I. Fann, H. Fruchtl, J. Garza,
        K. Hirao, R. A. Kendall, J. A. Nichols, K. Tsemekhman, K. Wolinski,
     J. Anchell, D. E. Bernholdt, P. Borowski, T. Clark, D. Clerc, H. Dachsel,
   M. J. O. Deegan, K. Dyall, D. Elwood, E. Glendening, M. Gutowski, A. C. Hess,
         J. Jaffe, B. G. Johnson, J. Ju, R. Kobayashi, R. Kutteh, Z. Lin,
   R. Littlefield, X. Long, B. Meng, T. Nakajima, S. Niu, L. Pollack, M. Rosing,
   K. Glaesemann, G. Sandrone, M. Stave, H. Taylor, G. Thomas, J. H. van Lenthe,
                               A. T. Wong, Z. Zhang.

 Total times  cpu:        3.6s     wall:        4.7s
