[1537795881.624983] [r8n4:8972 :0]         sys.c:744  MXM  WARN  Conflicting CPU frequencies detected, using: 1798.22
[1537795881.634911] [r8n4:8975 :0]         sys.c:744  MXM  WARN  Conflicting CPU frequencies detected, using: 1894.89
[1537795881.634916] [r8n4:8973 :0]         sys.c:744  MXM  WARN  Conflicting CPU frequencies detected, using: 1894.89
[1537795881.634925] [r8n4:8976 :0]         sys.c:744  MXM  WARN  Conflicting CPU frequencies detected, using: 1894.89
[1537795881.635020] [r8n4:8980 :0]         sys.c:744  MXM  WARN  Conflicting CPU frequencies detected, using: 1894.89
[1537795881.635866] [r8n4:8974 :0]         sys.c:744  MXM  WARN  Conflicting CPU frequencies detected, using: 1894.89
[1537795881.636250] [r8n4:8977 :0]         sys.c:744  MXM  WARN  Conflicting CPU frequencies detected, using: 1894.89
[1537795881.636442] [r8n4:8978 :0]         sys.c:744  MXM  WARN  Conflicting CPU frequencies detected, using: 1894.89
[1537795881.652553] [r8n4:8982 :0]         sys.c:744  MXM  WARN  Conflicting CPU frequencies detected, using: 1899.92
[1537795881.652570] [r8n4:8984 :0]         sys.c:744  MXM  WARN  Conflicting CPU frequencies detected, using: 1899.92
[1537795881.675118] [r8n4:8990 :0]         sys.c:744  MXM  WARN  Conflicting CPU frequencies detected, using: 2196.50
[1537795881.675967] [r8n4:8994 :0]         sys.c:744  MXM  WARN  Conflicting CPU frequencies detected, using: 2196.50
[1537795881.675968] [r8n4:8992 :0]         sys.c:744  MXM  WARN  Conflicting CPU frequencies detected, using: 2196.50
[1537795881.675967] [r8n4:8986 :0]         sys.c:744  MXM  WARN  Conflicting CPU frequencies detected, using: 2196.50
[1537795881.675970] [r8n4:8988 :0]         sys.c:744  MXM  WARN  Conflicting CPU frequencies detected, using: 2196.50
[1537795881.675975] [r8n4:8996 :0]         sys.c:744  MXM  WARN  Conflicting CPU frequencies detected, using: 2196.50
 argument  1 = /storage/home/bikashp/nwchem_run/rabeet/ip13g2/nwip13g2/SH+.nw
                                         
                                         


              Northwest Computational Chemistry Package (NWChem) 6.6
              ------------------------------------------------------


                    Environmental Molecular Sciences Laboratory
                       Pacific Northwest National Laboratory
                                Richland, WA 99352

                              Copyright (c) 1994-2015
                       Pacific Northwest National Laboratory
                            Battelle Memorial Institute

             NWChem is an open-source computational chemistry package
                        distributed under the terms of the
                      Educational Community License (ECL) 2.0
             A copy of the license is included with this distribution
                              in the LICENSE.TXT file

                                  ACKNOWLEDGMENT
                                  --------------

            This software and its documentation were developed at the
            EMSL at Pacific Northwest National Laboratory, a multiprogram
            national laboratory, operated for the U.S. Department of Energy
            by Battelle under Contract Number DE-AC05-76RL01830. Support
            for this work was provided by the Department of Energy Office
            of Biological and Environmental Research, Office of Basic
            Energy Sciences, and the Office of Advanced Scientific Computing.


           Job information
           ---------------

    hostname        = r8n4.niserhpc.org
    program         = /home/bikashp/Code/nwchem-6.6_tpssloc/bin/LINUX64/nwchem
    date            = Mon Sep 24 19:01:24 2018

    compiled        = Tue_Sep_18_16:24:59_2018
    source          = /home/bikashp/Code/nwchem-6.6_tpssloc
    nwchem branch   = 6.6
    nwchem revision = 27746
    ga revision     = 10594
    input           = /storage/home/bikashp/nwchem_run/rabeet/ip13g2/nwip13g2/SH+.nw
    prefix          = SH+.
    data base       = ./SH+.db
    status          = startup
    nproc           =       16
    time left       =     -1s



           Memory information
           ------------------

    heap     =   13107196 doubles =    100.0 Mbytes
    stack    =   13107201 doubles =    100.0 Mbytes
    global   =   26214400 doubles =    200.0 Mbytes (distinct from heap & stack)
    total    =   52428797 doubles =    400.0 Mbytes
    verify   = yes
    hardfail = no 


           Directory information
           ---------------------

  0 permanent = .
  0 scratch   = .




                                NWChem Input Module
                                -------------------



 Scaling coordinates for geometry "geometry" by  1.889725989
 (inverse scale =  0.529177249)


          ------
          auto-z
          ------


                             Geometry "geometry" -> ""
                             -------------------------

 Output coordinates in angstroms (scale by  1.889725989 to convert to a.u.)

  No.       Tag          Charge          X              Y              Z
 ---- ---------------- ---------- -------------- -------------- --------------
    1 S                   16.0000     0.00000000     0.00000000    -0.08007412
    2 H                    1.0000     0.00000000     0.00000000     1.28118588

      Atomic Mass 
      ----------- 

      S                 31.972070
      H                  1.007825


 Effective nuclear repulsion energy (a.u.)       6.2198521840

            Nuclear Dipole moment (a.u.) 
            ----------------------------
        X                 Y               Z
 ---------------- ---------------- ----------------
     0.0000000000     0.0000000000     0.0000000000



                                Z-matrix (autoz)
                                -------- 

 Units are Angstrom for bonds and degrees for angles

      Type          Name      I     J     K     L     M      Value
      ----------- --------  ----- ----- ----- ----- ----- ----------
    1 Stretch                  1     2                       1.36126


            XYZ format geometry
            -------------------
     2
 geometry
 S                     0.00000000     0.00000000    -0.08007412
 H                     0.00000000     0.00000000     1.28118588

 ==============================================================================
                                internuclear distances
 ------------------------------------------------------------------------------
       center one      |      center two      | atomic units |  angstroms
 ------------------------------------------------------------------------------
    2 H                |   1 S                |     2.57241  |     1.36126
 ------------------------------------------------------------------------------
                         number of included internuclear distances:          1
 ==============================================================================





 Summary of "ao basis" -> "" (cartesian)
 ------------------------------------------------------------------------------
       Tag                 Description            Shells   Functions and Types
 ---------------- ------------------------------  ------  ---------------------
 *                     6-311++G(3df,3pd)              on all atoms 



                                 NWChem DFT Module
                                 -----------------


                      Basis "ao basis" -> "ao basis" (cartesian)
                      -----
  S (Sulphur)
  -----------
            Exponent  Coefficients 
       -------------- ---------------------------------------------------------
  1 S  9.34134000E+04  0.000743
  1 S  1.39617000E+04  0.005793
  1 S  3.16991000E+03  0.029954
  1 S  9.02456000E+02  0.119028
  1 S  2.97158000E+02  0.368432
  1 S  1.08702000E+02  0.577299

  2 S  1.08702000E+02  0.143186
  2 S  4.31553000E+01  0.624465
  2 S  1.81079000E+01  0.283366

  3 S  5.56009000E+00  1.000000

  4 S  2.13183000E+00  1.000000

  5 S  4.20403000E-01  1.000000

  6 S  1.36045000E-01  1.000000

  7 P  4.95040000E+02  0.008309
  7 P  1.17221000E+02  0.064024
  7 P  3.77749000E+01  0.277614
  7 P  1.40584000E+01  0.745076

  8 P  5.56574000E+00  0.613712
  8 P  2.26297000E+00  0.443818

  9 P  8.07994000E-01  1.000000

 10 P  2.77460000E-01  1.000000

 11 P  7.71410000E-02  1.000000

 12 S  4.05000000E-02  1.000000

 13 P  4.05000000E-02  1.000000

 14 D  2.60000000E+00  1.000000

 15 D  6.50000000E-01  1.000000

 16 D  1.62500000E-01  1.000000

 17 F  5.50000000E-01  1.000000

  H (Hydrogen)
  ------------
            Exponent  Coefficients 
       -------------- ---------------------------------------------------------
  1 S  3.38650000E+01  0.025494
  1 S  5.09479000E+00  0.190373
  1 S  1.15879000E+00  0.852161

  2 S  3.25840000E-01  1.000000

  3 S  1.02741000E-01  1.000000

  4 S  3.60000000E-02  1.000000

  5 P  3.00000000E+00  1.000000

  6 P  7.50000000E-01  1.000000

  7 P  1.87500000E-01  1.000000

  8 D  1.00000000E+00  1.000000



 Summary of "ao basis" -> "ao basis" (cartesian)
 ------------------------------------------------------------------------------
       Tag                 Description            Shells   Functions and Types
 ---------------- ------------------------------  ------  ---------------------
 S                     6-311++G(3df,3pd)            17       53   7s6p3d1f
 H                     6-311++G(3df,3pd)             8       19   4s3p1d




 Summary of "ao basis" -> "ao basis" (cartesian)
 ------------------------------------------------------------------------------
       Tag                 Description            Shells   Functions and Types
 ---------------- ------------------------------  ------  ---------------------
 S                     6-311++G(3df,3pd)            17       53   7s6p3d1f
 H                     6-311++G(3df,3pd)             8       19   4s3p1d


  Caching 1-el integrals 

            General Information
            -------------------
          SCF calculation type: DFT
          Wavefunction type:  spin polarized.
          No. of atoms     :     2
          No. of electrons :    16
           Alpha electrons :     9
            Beta electrons :     7
          Charge           :     1
          Spin multiplicity:     3
          Use of symmetry is: off; symmetry adaption is: off
          Maximum number of iterations: ***
          AO basis - number of functions:    72
                     number of shells:    25
          Convergence on energy requested: 1.00D-06
          Convergence on density requested: 1.00D-05
          Convergence on gradient requested: 5.00D-04

              XC Information
              --------------
                  TPSS metaGGA Exchange Functional  1.000          
             TPSS03 metaGGA Correlation Functional  1.000          

             Grid Information
             ----------------
          Grid used for XC integration:  medium    
          Radial quadrature: Mura-Knowles        
          Angular quadrature: Lebedev. 
          Tag              B.-S. Rad. Rad. Pts. Rad. Cut. Ang. Pts.
          ---              ---------- --------- --------- ---------
          S                   1.00       88          11.0       590
          H                   0.35       45          11.0       434
          Grid pruning is: on 
          Number of quadrature shells:   133
          Spatial weights used:  Erf1

          Convergence Information
          -----------------------
          Convergence aids based upon iterative change in 
          total energy or number of iterations. 
          Levelshifting, if invoked, occurs when the 
          HOMO/LUMO gap drops below (HL_TOL): 1.00D-02
          DIIS, if invoked, will attempt to extrapolate 
          using up to (NFOCK): 10 stored Fock matrices.

                    Damping( 0%)  Levelshifting(0.5)       DIIS
                  --------------- ------------------- ---------------
          dE  on:    start            ASAP                start   
          dE off:    2 iters        *** iters           *** iters 


      Screening Tolerance Information
      -------------------------------
          Density screening/tol_rho: 1.00D-10
          AO Gaussian exp screening on grid/accAOfunc:  14
          CD Gaussian exp screening on grid/accCDfunc:  20
          XC Gaussian exp screening on grid/accXCfunc:  20
          Schwarz screening/accCoul: 1.00D-08


      Superposition of Atomic Density Guess
      -------------------------------------

 Sum of atomic energies:        -397.98006917

 Renormalizing density from      17.00 to     16

      Non-variational initial energy
      ------------------------------

 Total energy =    -382.864849
 1-e energy   =    -528.983626
 2-e energy   =     139.898924
 HOMO         =      -0.831424
 LUMO         =      -0.831424

   Time after variat. SCF:      0.3
   Time prior to 1st pass:      0.3

 Integral file          = ./SH+.aoints.00
 Record size in doubles =    65536    No. of integs per rec  =    43688
 Max. records in memory =        8    Max. records in file   = 11667405
 No. of bits per label  =        8    No. of bits per value  =       64


 #quartets = 5.239D+04 #integrals = 8.445D+05 #direct =  0.0% #cached =100.0%


File balance: exchanges=     0  moved=     0  time=   0.0


 Grid_pts file          = ./SH+.gridpts.00
 Record size in doubles =  12289        No. of grid_pts per rec  =   3070
 Max. records in memory =      3        Max. recs in file   =  62221101


           Memory utilization after 1st SCF pass: 
           Heap Space remaining (MW):       12.54            12542724
          Stack Space remaining (MW):       13.11            13106492

   convergence    iter        energy       DeltaE   RMS-Dens  Diis-err    time
 ---------------- ----- ----------------- --------- --------- ---------  ------
 d= 0,ls=0.0,diis     1   -398.2738296606 -4.04D+02  1.82D-02  2.07D+00     0.8
                                                     2.09D-02  2.13D+00
 d= 0,ls=0.0,diis     2   -398.3273208301 -5.35D-02  9.10D-03  6.47D-01     0.9
                                                     9.91D-03  5.96D-01
 d= 0,ls=0.0,diis     3   -398.4284895119 -1.01D-01  2.00D-03  1.15D-02     1.1
                                                     2.12D-03  8.60D-03
 d= 0,ls=0.0,diis     4   -398.4327852379 -4.30D-03  6.10D-04  1.46D-03     1.2
                                                     5.01D-04  1.13D-03
 d= 0,ls=0.0,diis     5   -398.4327218400  6.34D-05  1.83D-04  6.00D-05     1.4
                                                     1.61D-04  4.43D-05
  Resetting Diis
 d= 0,ls=0.0,diis     6   -398.4328536121 -1.32D-04  1.93D-05  1.06D-06     1.5
                                                     1.53D-05  1.16D-06
 d= 0,ls=0.0,diis     7   -398.4328133591  4.03D-05  3.50D-06  2.24D-08     1.6
                                                     2.18D-06  1.46D-08
 d= 0,ls=0.0,diis     8   -398.4328150450 -1.69D-06  1.59D-06  1.14D-08     1.8
                                                     1.89D-06  1.18D-08
 d= 0,ls=0.0,diis     9   -398.4328139688  1.08D-06  4.92D-07  8.13D-10     1.9
                                                     3.30D-07  6.18D-10
 d= 0,ls=0.0,diis    10   -398.4328139298  3.90D-08  1.30D-07  7.86D-11     2.1
                                                     1.16D-07  6.26D-11


         Total DFT energy =     -398.432813929803
      One electron energy =     -555.531431289494
           Coulomb energy =      176.600912020404
          Exchange energy =      -25.091388696797
       Correlation energy =       -0.630758147918
 Nuclear repulsion energy =        6.219852184002

 Numeric. integr. density =       16.000004521822

     Total iterative time =      1.8s



                    DFT Final Alpha Molecular Orbital Analysis
                    ------------------------------------------

 Vector    1  Occ=1.000000D+00  E=-8.887467D+01
              MO Center=  1.7D-17, -5.9D-18, -8.0D-02, r^2= 3.6D-03
   Bfn.  Coefficient  Atom+Function         Bfn.  Coefficient  Atom+Function  
  ----- ------------  ---------------      ----- ------------  ---------------
     2      0.653603  1 S  s                  1      0.411304  1 S  s          

 Vector    2  Occ=1.000000D+00  E=-8.260993D+00
              MO Center= -2.5D-16,  2.9D-16, -7.8D-02, r^2= 7.7D-02
   Bfn.  Coefficient  Atom+Function         Bfn.  Coefficient  Atom+Function  
  ----- ------------  ---------------      ----- ------------  ---------------
     4      0.597717  1 S  s                  3      0.503785  1 S  s          
     2     -0.318972  1 S  s          

 Vector    3  Occ=1.000000D+00  E=-6.246487D+00
              MO Center= -6.1D-16, -1.1D-15, -8.0D-02, r^2= 6.9D-02
   Bfn.  Coefficient  Atom+Function         Bfn.  Coefficient  Atom+Function  
  ----- ------------  ---------------      ----- ------------  ---------------
    11      0.678109  1 S  py                 8      0.362191  1 S  py         
    10      0.197261  1 S  px         

 Vector    4  Occ=1.000000D+00  E=-6.246487D+00
              MO Center=  7.3D-16, -3.8D-17, -8.0D-02, r^2= 6.9D-02
   Bfn.  Coefficient  Atom+Function         Bfn.  Coefficient  Atom+Function  
  ----- ------------  ---------------      ----- ------------  ---------------
    10      0.678109  1 S  px                 7      0.362191  1 S  px         
    11     -0.197261  1 S  py         

 Vector    5  Occ=1.000000D+00  E=-6.235994D+00
              MO Center= -6.2D-16,  9.4D-16, -8.1D-02, r^2= 6.9D-02
   Bfn.  Coefficient  Atom+Function         Bfn.  Coefficient  Atom+Function  
  ----- ------------  ---------------      ----- ------------  ---------------
    12      0.706184  1 S  pz                 9      0.377089  1 S  pz         

 Vector    6  Occ=1.000000D+00  E=-1.111830D+00
              MO Center= -7.1D-15, -8.3D-15,  1.5D-01, r^2= 9.2D-01
   Bfn.  Coefficient  Atom+Function         Bfn.  Coefficient  Atom+Function  
  ----- ------------  ---------------      ----- ------------  ---------------
     6      0.753841  1 S  s                  5      0.665750  1 S  s          
     4     -0.414050  1 S  s                  3     -0.219583  1 S  s          

 Vector    7  Occ=1.000000D+00  E=-7.664636D-01
              MO Center= -1.7D-14, -9.6D-15,  1.6D-01, r^2= 1.4D+00
   Bfn.  Coefficient  Atom+Function         Bfn.  Coefficient  Atom+Function  
  ----- ------------  ---------------      ----- ------------  ---------------
    18      0.562334  1 S  pz                 6     -0.348930  1 S  s          
    15      0.232300  1 S  pz                55      0.226723  2 H  s          
     5     -0.206404  1 S  s                 12     -0.174213  1 S  pz         

 Vector    8  Occ=1.000000D+00  E=-6.978227D-01
              MO Center=  4.8D-15, -8.9D-15, -2.8D-02, r^2= 1.2D+00
   Bfn.  Coefficient  Atom+Function         Bfn.  Coefficient  Atom+Function  
  ----- ------------  ---------------      ----- ------------  ---------------
    16      0.664309  1 S  px                17     -0.368794  1 S  py         
    13      0.257394  1 S  px                10     -0.188226  1 S  px         

 Vector    9  Occ=1.000000D+00  E=-6.978227D-01
              MO Center=  1.1D-14,  1.6D-14, -2.8D-02, r^2= 1.2D+00
   Bfn.  Coefficient  Atom+Function         Bfn.  Coefficient  Atom+Function  
  ----- ------------  ---------------      ----- ------------  ---------------
    17      0.664309  1 S  py                16      0.368794  1 S  px         
    14      0.257394  1 S  py                11     -0.188226  1 S  py         

 Vector   10  Occ=0.000000D+00  E=-3.607012D-01
              MO Center= -5.6D-15, -3.0D-15,  4.3D-01, r^2= 2.3D+00
   Bfn.  Coefficient  Atom+Function         Bfn.  Coefficient  Atom+Function  
  ----- ------------  ---------------      ----- ------------  ---------------
    18      0.762812  1 S  pz                56     -0.590753  2 H  s          
     6      0.509656  1 S  s                 55     -0.485362  2 H  s          
    21      0.306898  1 S  pz                43     -0.244877  1 S  dzz        
     5      0.209550  1 S  s                 37     -0.169776  1 S  dzz        
    54     -0.167482  2 H  s          

 Vector   11  Occ=0.000000D+00  E=-2.068596D-01
              MO Center= -6.0D-14, -2.1D-14,  4.4D-01, r^2= 5.7D+00
   Bfn.  Coefficient  Atom+Function         Bfn.  Coefficient  Atom+Function  
  ----- ------------  ---------------      ----- ------------  ---------------
    22      1.161895  1 S  s                  5     -0.433099  1 S  s          
    56     -0.371640  2 H  s                 21      0.282023  1 S  pz         
    18      0.216368  1 S  pz                 4      0.162861  1 S  s          
    38      0.158136  1 S  dxx               41      0.158136  1 S  dyy        
    25      0.150465  1 S  pz         

 Vector   12  Occ=0.000000D+00  E=-1.977148D-01
              MO Center=  9.9D-15,  9.8D-15,  1.6D-01, r^2= 2.4D+00
   Bfn.  Coefficient  Atom+Function         Bfn.  Coefficient  Atom+Function  
  ----- ------------  ---------------      ----- ------------  ---------------
    40      0.870234  1 S  dxz               42      0.736469  1 S  dyz        
    34      0.383899  1 S  dxz               36      0.324890  1 S  dyz        
    64      0.155830  2 H  px         

 Vector   13  Occ=0.000000D+00  E=-1.977148D-01
              MO Center=  1.3D-14, -1.8D-14,  1.6D-01, r^2= 2.4D+00
   Bfn.  Coefficient  Atom+Function         Bfn.  Coefficient  Atom+Function  
  ----- ------------  ---------------      ----- ------------  ---------------
    42      0.870234  1 S  dyz               40     -0.736469  1 S  dxz        
    36      0.383899  1 S  dyz               34     -0.324890  1 S  dxz        
    65      0.155830  2 H  py         

 Vector   14  Occ=0.000000D+00  E=-1.806590D-01
              MO Center= -1.5D-15,  8.8D-15, -6.9D-02, r^2= 2.2D+00
   Bfn.  Coefficient  Atom+Function         Bfn.  Coefficient  Atom+Function  
  ----- ------------  ---------------      ----- ------------  ---------------
    38      0.675828  1 S  dxx               41     -0.675828  1 S  dyy        
    32      0.287239  1 S  dxx               35     -0.287239  1 S  dyy        

 Vector   15  Occ=0.000000D+00  E=-1.806578D-01
              MO Center=  1.2D-14,  1.0D-14, -6.9D-02, r^2= 2.2D+00
   Bfn.  Coefficient  Atom+Function         Bfn.  Coefficient  Atom+Function  
  ----- ------------  ---------------      ----- ------------  ---------------
    39      1.351664  1 S  dxy               33      0.574470  1 S  dxy        

 Vector   16  Occ=0.000000D+00  E=-1.339698D-01
              MO Center= -1.1D-13, -1.2D-13, -6.1D-01, r^2= 8.4D+00
   Bfn.  Coefficient  Atom+Function         Bfn.  Coefficient  Atom+Function  
  ----- ------------  ---------------      ----- ------------  ---------------
    22      0.943716  1 S  s                 25     -0.767013  1 S  pz         
    57     -0.416123  2 H  s                 56     -0.344370  2 H  s          
    21      0.202183  1 S  pz                43      0.190882  1 S  dzz        
    15      0.164412  1 S  pz                 6     -0.161267  1 S  s          
    18      0.160414  1 S  pz                 5     -0.157519  1 S  s          

 Vector   17  Occ=0.000000D+00  E=-1.259073D-01
              MO Center=  9.2D-14,  1.5D-13, -1.3D-01, r^2= 9.2D+00
   Bfn.  Coefficient  Atom+Function         Bfn.  Coefficient  Atom+Function  
  ----- ------------  ---------------      ----- ------------  ---------------
    24      0.926461  1 S  py                23      0.592604  1 S  px         
    17     -0.173615  1 S  py                42     -0.159190  1 S  dyz        
    14     -0.150359  1 S  py         

 Vector   18  Occ=0.000000D+00  E=-1.259073D-01
              MO Center=  4.6D-14, -3.2D-14, -1.3D-01, r^2= 9.2D+00
   Bfn.  Coefficient  Atom+Function         Bfn.  Coefficient  Atom+Function  
  ----- ------------  ---------------      ----- ------------  ---------------
    23      0.926461  1 S  px                24     -0.592604  1 S  py         
    16     -0.173615  1 S  px                40     -0.159190  1 S  dxz        
    13     -0.150359  1 S  px         

 Vector   19  Occ=0.000000D+00  E=-5.717016D-02
              MO Center= -1.6D-14, -3.7D-15,  1.7D+00, r^2= 1.3D+01
   Bfn.  Coefficient  Atom+Function         Bfn.  Coefficient  Atom+Function  
  ----- ------------  ---------------      ----- ------------  ---------------
    57     -5.592302  2 H  s                 22      5.094929  1 S  s          
    25      2.644279  1 S  pz                21     -0.597355  1 S  pz         
    56      0.589596  2 H  s                  6     -0.521271  1 S  s          
     5     -0.311625  1 S  s                 55      0.305773  2 H  s          
    43     -0.289677  1 S  dzz               18     -0.259271  1 S  pz         

 Vector   20  Occ=0.000000D+00  E= 1.777188D-02
              MO Center=  1.8D-14,  7.5D-15,  5.0D-01, r^2= 8.2D+00
   Bfn.  Coefficient  Atom+Function         Bfn.  Coefficient  Atom+Function  
  ----- ------------  ---------------      ----- ------------  ---------------
    56      3.993444  2 H  s                 22     -3.145855  1 S  s          
    25     -1.523228  1 S  pz                 6     -1.105438  1 S  s          
    57      1.099839  2 H  s                 21     -1.090137  1 S  pz         
    43     -0.864772  1 S  dzz               18     -0.808497  1 S  pz         
    38      0.504824  1 S  dxx               41      0.504824  1 S  dyy        

 Vector   21  Occ=0.000000D+00  E= 6.581818D-02
              MO Center= -4.3D-15, -7.8D-14, -1.5D+00, r^2= 8.7D+00
   Bfn.  Coefficient  Atom+Function         Bfn.  Coefficient  Atom+Function  
  ----- ------------  ---------------      ----- ------------  ---------------
    21      4.278349  1 S  pz                56     -3.513994  2 H  s          
    25     -2.653500  1 S  pz                 6      2.176257  1 S  s          
    57      1.422557  2 H  s                 66      0.895178  2 H  pz         
    38     -0.422648  1 S  dxx               41     -0.422648  1 S  dyy        
    43      0.330131  1 S  dzz               55     -0.272268  2 H  s          

 Vector   22  Occ=0.000000D+00  E= 7.160370D-02
              MO Center= -5.4D-15,  6.4D-14, -7.6D-02, r^2= 1.1D+01
   Bfn.  Coefficient  Atom+Function         Bfn.  Coefficient  Atom+Function  
  ----- ------------  ---------------      ----- ------------  ---------------
    20      2.858491  1 S  py                24     -2.193330  1 S  py         
    17     -1.328512  1 S  py                52      0.273203  1 S  fyzz       
    45      0.253395  1 S  fxxy              50      0.253393  1 S  fyyy       

 Vector   23  Occ=0.000000D+00  E= 7.160370D-02
              MO Center= -2.1D-14, -3.4D-15, -7.6D-02, r^2= 1.1D+01
   Bfn.  Coefficient  Atom+Function         Bfn.  Coefficient  Atom+Function  
  ----- ------------  ---------------      ----- ------------  ---------------
    19      2.858491  1 S  px                23     -2.193330  1 S  px         
    16     -1.328512  1 S  px                49      0.273203  1 S  fxzz       
    44      0.253393  1 S  fxxx              47      0.253395  1 S  fxyy       

 Vector   24  Occ=0.000000D+00  E= 1.679198D-01
              MO Center= -4.1D-14, -6.2D-15,  8.9D-01, r^2= 4.7D+00
   Bfn.  Coefficient  Atom+Function         Bfn.  Coefficient  Atom+Function  
  ----- ------------  ---------------      ----- ------------  ---------------
    56      3.527289  2 H  s                 55     -1.790609  2 H  s          
     6     -1.721591  1 S  s                 57     -1.241027  2 H  s          
    66     -1.212294  2 H  pz                18     -0.838741  1 S  pz         
    43      0.655668  1 S  dzz               22      0.454878  1 S  s          
    38     -0.351709  1 S  dxx               41     -0.351709  1 S  dyy        

 Vector   25  Occ=0.000000D+00  E= 1.750332D-01
              MO Center= -1.8D-15,  6.8D-15,  9.9D-01, r^2= 3.3D+00
   Bfn.  Coefficient  Atom+Function         Bfn.  Coefficient  Atom+Function  
  ----- ------------  ---------------      ----- ------------  ---------------
    42      1.800908  1 S  dyz               65     -1.764387  2 H  py         
    20      1.274784  1 S  py                24     -0.431096  1 S  py         
    17      0.330715  1 S  py                36      0.301064  1 S  dyz        
    40     -0.296061  1 S  dxz               64      0.290057  2 H  px         
    19     -0.209569  1 S  px                52     -0.202868  1 S  fyzz       

 Vector   26  Occ=0.000000D+00  E= 1.750332D-01
              MO Center=  4.5D-14,  7.0D-15,  9.9D-01, r^2= 3.3D+00
   Bfn.  Coefficient  Atom+Function         Bfn.  Coefficient  Atom+Function  
  ----- ------------  ---------------      ----- ------------  ---------------
    40      1.800908  1 S  dxz               64     -1.764387  2 H  px         
    19      1.274784  1 S  px                23     -0.431096  1 S  px         
    16      0.330715  1 S  px                34      0.301064  1 S  dxz        
    42      0.296061  1 S  dyz               65     -0.290057  2 H  py         
    20      0.209569  1 S  py                49     -0.202868  1 S  fxzz       

 Vector   27  Occ=0.000000D+00  E= 1.845784D-01
              MO Center=  1.1D-15,  7.0D-15,  9.3D-01, r^2= 9.1D+00
   Bfn.  Coefficient  Atom+Function         Bfn.  Coefficient  Atom+Function  
  ----- ------------  ---------------      ----- ------------  ---------------
    22      6.013822  1 S  s                 57     -5.372996  2 H  s          
    56      3.864103  2 H  s                 21     -3.403726  1 S  pz         
    25      3.259255  1 S  pz                43     -2.316570  1 S  dzz        
    38     -1.586552  1 S  dxx               41     -1.586552  1 S  dyy        
    37     -0.326753  1 S  dzz                4     -0.265746  1 S  s          

 Vector   28  Occ=0.000000D+00  E= 4.794652D-01
              MO Center= -6.2D-15,  1.9D-14,  1.6D-01, r^2= 6.3D+00
   Bfn.  Coefficient  Atom+Function         Bfn.  Coefficient  Atom+Function  
  ----- ------------  ---------------      ----- ------------  ---------------
    56     10.161395  2 H  s                  6     -8.758914  1 S  s          
    18     -5.246158  1 S  pz                21     -5.129953  1 S  pz         
    66     -4.234483  2 H  pz                43     -3.228408  1 S  dzz        
    55      2.791198  2 H  s                 57     -1.474276  2 H  s          
    25      1.226553  1 S  pz                53      1.080486  1 S  fzzz       

 Vector   29  Occ=0.000000D+00  E= 5.259427D-01
              MO Center= -5.4D-16, -4.2D-16, -7.8D-02, r^2= 1.8D+00
   Bfn.  Coefficient  Atom+Function         Bfn.  Coefficient  Atom+Function  
  ----- ------------  ---------------      ----- ------------  ---------------
    33      1.637486  1 S  dxy               39     -1.368335  1 S  dxy        
    27      0.308839  1 S  dxy        


                     DFT Final Beta Molecular Orbital Analysis
                     -----------------------------------------

 Vector    1  Occ=1.000000D+00  E=-8.886275D+01
              MO Center=  9.5D-18,  4.4D-18, -8.0D-02, r^2= 3.6D-03
   Bfn.  Coefficient  Atom+Function         Bfn.  Coefficient  Atom+Function  
  ----- ------------  ---------------      ----- ------------  ---------------
     2      0.653630  1 S  s                  1      0.411336  1 S  s          

 Vector    2  Occ=1.000000D+00  E=-8.251494D+00
              MO Center= -9.7D-16,  1.0D-15, -7.8D-02, r^2= 7.7D-02
   Bfn.  Coefficient  Atom+Function         Bfn.  Coefficient  Atom+Function  
  ----- ------------  ---------------      ----- ------------  ---------------
     4      0.603287  1 S  s                  3      0.501821  1 S  s          
     2     -0.318744  1 S  s          

 Vector    3  Occ=1.000000D+00  E=-6.230080D+00
              MO Center= -7.2D-15,  4.1D-15, -8.1D-02, r^2= 6.9D-02
   Bfn.  Coefficient  Atom+Function         Bfn.  Coefficient  Atom+Function  
  ----- ------------  ---------------      ----- ------------  ---------------
    12      0.707013  1 S  pz                 9      0.376874  1 S  pz         

 Vector    4  Occ=1.000000D+00  E=-6.228117D+00
              MO Center=  1.0D-15, -6.0D-15, -8.0D-02, r^2= 6.9D-02
   Bfn.  Coefficient  Atom+Function         Bfn.  Coefficient  Atom+Function  
  ----- ------------  ---------------      ----- ------------  ---------------
    11      0.700415  1 S  py                 8      0.372532  1 S  py         

 Vector    5  Occ=1.000000D+00  E=-6.228117D+00
              MO Center=  6.5D-15,  9.3D-16, -8.0D-02, r^2= 6.9D-02
   Bfn.  Coefficient  Atom+Function         Bfn.  Coefficient  Atom+Function  
  ----- ------------  ---------------      ----- ------------  ---------------
    10      0.700415  1 S  px                 7      0.372532  1 S  px         

 Vector    6  Occ=1.000000D+00  E=-1.043478D+00
              MO Center= -1.2D-14, -8.6D-15,  2.3D-01, r^2= 9.6D-01
   Bfn.  Coefficient  Atom+Function         Bfn.  Coefficient  Atom+Function  
  ----- ------------  ---------------      ----- ------------  ---------------
     6      0.816469  1 S  s                  5      0.513725  1 S  s          
     4     -0.410233  1 S  s                  3     -0.191256  1 S  s          

 Vector    7  Occ=1.000000D+00  E=-7.521613D-01
              MO Center= -7.8D-15, -7.7D-15,  6.8D-02, r^2= 1.4D+00
   Bfn.  Coefficient  Atom+Function         Bfn.  Coefficient  Atom+Function  
  ----- ------------  ---------------      ----- ------------  ---------------
    18      0.589134  1 S  pz                 6     -0.423361  1 S  s          
    55      0.229081  2 H  s                 15      0.213693  1 S  pz         
     5     -0.170513  1 S  s                 12     -0.169318  1 S  pz         
     4      0.157785  1 S  s          

 Vector    8  Occ=0.000000D+00  E=-6.077356D-01
              MO Center= -1.1D-14, -1.8D-15, -3.6D-02, r^2= 1.3D+00
   Bfn.  Coefficient  Atom+Function         Bfn.  Coefficient  Atom+Function  
  ----- ------------  ---------------      ----- ------------  ---------------
    17      0.811844  1 S  py                16     -0.262992  1 S  px         
    14      0.215202  1 S  py                11     -0.187887  1 S  py         
    20      0.161784  1 S  py         

 Vector    9  Occ=0.000000D+00  E=-6.077356D-01
              MO Center=  2.0D-18, -4.1D-15, -3.6D-02, r^2= 1.3D+00
   Bfn.  Coefficient  Atom+Function         Bfn.  Coefficient  Atom+Function  
  ----- ------------  ---------------      ----- ------------  ---------------
    16      0.811844  1 S  px                17      0.262992  1 S  py         
    13      0.215202  1 S  px                10     -0.187887  1 S  px         
    19      0.161784  1 S  px         

 Vector   10  Occ=0.000000D+00  E=-3.321444D-01
              MO Center= -2.9D-15, -5.1D-15,  4.5D-01, r^2= 2.3D+00
   Bfn.  Coefficient  Atom+Function         Bfn.  Coefficient  Atom+Function  
  ----- ------------  ---------------      ----- ------------  ---------------
    18      0.766739  1 S  pz                 6      0.627984  1 S  s          
    56     -0.611687  2 H  s                 55     -0.454048  2 H  s          
    21      0.307954  1 S  pz                43     -0.288234  1 S  dzz        
    22      0.208217  1 S  s                 57     -0.201404  2 H  s          
    54     -0.151975  2 H  s          

 Vector   11  Occ=0.000000D+00  E=-1.869589D-01
              MO Center= -5.0D-14, -6.7D-14,  5.7D-01, r^2= 5.9D+00
   Bfn.  Coefficient  Atom+Function         Bfn.  Coefficient  Atom+Function  
  ----- ------------  ---------------      ----- ------------  ---------------
    22      0.860536  1 S  s                  5     -0.416238  1 S  s          
    57      0.273892  2 H  s                 56     -0.234875  2 H  s          
    21      0.226034  1 S  pz                18      0.195501  1 S  pz         
    43     -0.155950  1 S  dzz                4      0.151055  1 S  s          

 Vector   12  Occ=0.000000D+00  E=-1.714549D-01
              MO Center=  7.5D-15,  3.2D-14,  2.1D-01, r^2= 2.5D+00
   Bfn.  Coefficient  Atom+Function         Bfn.  Coefficient  Atom+Function  
  ----- ------------  ---------------      ----- ------------  ---------------
    42      1.084433  1 S  dyz               36      0.410990  1 S  dyz        
    40      0.336840  1 S  dxz               65      0.240628  2 H  py         

 Vector   13  Occ=0.000000D+00  E=-1.714549D-01
              MO Center=  4.8D-15, -4.1D-15,  2.1D-01, r^2= 2.5D+00
   Bfn.  Coefficient  Atom+Function         Bfn.  Coefficient  Atom+Function  
  ----- ------------  ---------------      ----- ------------  ---------------
    40      1.084433  1 S  dxz               34      0.410990  1 S  dxz        
    42     -0.336840  1 S  dyz               64      0.240628  2 H  px         

 Vector   14  Occ=0.000000D+00  E=-1.260325D-01
              MO Center=  8.3D-15,  4.2D-15, -7.3D-02, r^2= 2.4D+00
   Bfn.  Coefficient  Atom+Function         Bfn.  Coefficient  Atom+Function  
  ----- ------------  ---------------      ----- ------------  ---------------
    38      0.717325  1 S  dxx               41     -0.717325  1 S  dyy        
    32      0.233259  1 S  dxx               35     -0.233259  1 S  dyy        

 Vector   15  Occ=0.000000D+00  E=-1.260319D-01
              MO Center=  1.2D-14,  5.2D-15, -7.3D-02, r^2= 2.4D+00
   Bfn.  Coefficient  Atom+Function         Bfn.  Coefficient  Atom+Function  
  ----- ------------  ---------------      ----- ------------  ---------------
    39      1.434651  1 S  dxy               33      0.466517  1 S  dxy        

 Vector   16  Occ=0.000000D+00  E=-1.245754D-01
              MO Center= -3.9D-14, -1.2D-14, -7.5D-01, r^2= 8.6D+00
   Bfn.  Coefficient  Atom+Function         Bfn.  Coefficient  Atom+Function  
  ----- ------------  ---------------      ----- ------------  ---------------
    22      0.897901  1 S  s                 25     -0.875877  1 S  pz         
    56     -0.351014  2 H  s                 57     -0.325265  2 H  s          
    21      0.297077  1 S  pz                43      0.196482  1 S  dzz        
    18      0.166934  1 S  pz                 5     -0.154809  1 S  s          
     6     -0.153535  1 S  s          

 Vector   17  Occ=0.000000D+00  E=-1.018959D-01
              MO Center=  6.9D-14,  7.4D-15, -1.5D-01, r^2= 1.0D+01
   Bfn.  Coefficient  Atom+Function         Bfn.  Coefficient  Atom+Function  
  ----- ------------  ---------------      ----- ------------  ---------------
    23      1.274903  1 S  px                19     -0.369077  1 S  px         
    40     -0.261895  1 S  dxz               16     -0.163535  1 S  px         
    13     -0.160461  1 S  px                24      0.151587  1 S  py         

 Vector   18  Occ=0.000000D+00  E=-1.018959D-01
              MO Center= -1.2D-14,  2.1D-14, -1.5D-01, r^2= 1.0D+01
   Bfn.  Coefficient  Atom+Function         Bfn.  Coefficient  Atom+Function  
  ----- ------------  ---------------      ----- ------------  ---------------
    24      1.274903  1 S  py                20     -0.369077  1 S  py         
    42     -0.261895  1 S  dyz               17     -0.163535  1 S  py         
    14     -0.160461  1 S  py                23     -0.151587  1 S  px         

 Vector   19  Occ=0.000000D+00  E=-4.950614D-02
              MO Center= -1.5D-14, -1.3D-15,  1.7D+00, r^2= 1.3D+01
   Bfn.  Coefficient  Atom+Function         Bfn.  Coefficient  Atom+Function  
  ----- ------------  ---------------      ----- ------------  ---------------
    57     -5.783630  2 H  s                 22      5.338690  1 S  s          
    25      2.757330  1 S  pz                56      0.807760  2 H  s          
    21     -0.726399  1 S  pz                 6     -0.600457  1 S  s          
    43     -0.341271  1 S  dzz                5     -0.328407  1 S  s          
    18     -0.298154  1 S  pz                55      0.278509  2 H  s          

 Vector   20  Occ=0.000000D+00  E= 3.188375D-02
              MO Center=  1.4D-14, -4.3D-15,  5.6D-01, r^2= 8.3D+00
   Bfn.  Coefficient  Atom+Function         Bfn.  Coefficient  Atom+Function  
  ----- ------------  ---------------      ----- ------------  ---------------
    56      4.163140  2 H  s                 22     -3.179604  1 S  s          
    25     -1.487015  1 S  pz                21     -1.154195  1 S  pz         
     6     -1.124934  1 S  s                 57      1.060215  2 H  s          
    43     -0.892954  1 S  dzz               18     -0.877055  1 S  pz         
    38      0.491805  1 S  dxx               41      0.491805  1 S  dyy        

 Vector   21  Occ=0.000000D+00  E= 7.563407D-02
              MO Center= -6.4D-14, -7.2D-14, -1.5D+00, r^2= 8.6D+00
   Bfn.  Coefficient  Atom+Function         Bfn.  Coefficient  Atom+Function  
  ----- ------------  ---------------      ----- ------------  ---------------
    21      4.343046  1 S  pz                56     -3.433440  2 H  s          
    25     -2.713202  1 S  pz                 6      2.138626  1 S  s          
    57      1.474754  2 H  s                 66      0.878811  2 H  pz         
    38     -0.382051  1 S  dxx               41     -0.382051  1 S  dyy        
    43      0.352628  1 S  dzz               55     -0.304419  2 H  s          

 Vector   22  Occ=0.000000D+00  E= 9.746980D-02
              MO Center=  5.8D-14,  4.7D-15, -8.4D-02, r^2= 9.9D+00
   Bfn.  Coefficient  Atom+Function         Bfn.  Coefficient  Atom+Function  
  ----- ------------  ---------------      ----- ------------  ---------------
    19      2.822303  1 S  px                23     -2.087156  1 S  px         
    16     -1.539794  1 S  px                20      0.353575  1 S  py         
    49      0.320038  1 S  fxzz              44      0.314911  1 S  fxxx       
    47      0.314911  1 S  fxyy              24     -0.261477  1 S  py         
    40     -0.216409  1 S  dxz               17     -0.192904  1 S  py         

 Vector   23  Occ=0.000000D+00  E= 9.746980D-02
              MO Center= -1.1D-14,  6.6D-14, -8.4D-02, r^2= 9.9D+00
   Bfn.  Coefficient  Atom+Function         Bfn.  Coefficient  Atom+Function  
  ----- ------------  ---------------      ----- ------------  ---------------
    20      2.822303  1 S  py                24     -2.087156  1 S  py         
    17     -1.539794  1 S  py                19     -0.353575  1 S  px         
    52      0.320038  1 S  fyzz              45      0.314911  1 S  fxxy       
    50      0.314911  1 S  fyyy              23      0.261477  1 S  px         
    42     -0.216409  1 S  dyz               16      0.192904  1 S  px         

 Vector   24  Occ=0.000000D+00  E= 1.827091D-01
              MO Center= -1.1D-13, -8.3D-14,  7.9D-01, r^2= 4.3D+00
   Bfn.  Coefficient  Atom+Function         Bfn.  Coefficient  Atom+Function  
  ----- ------------  ---------------      ----- ------------  ---------------
    56      3.269857  2 H  s                  6     -1.869903  1 S  s          
    55     -1.733447  2 H  s                 66     -1.292415  2 H  pz         
    43      0.861456  1 S  dzz               18     -0.781349  1 S  pz         
    57     -0.751369  2 H  s                 25     -0.395639  1 S  pz         
    46      0.266412  1 S  fxxz              51      0.266412  1 S  fyyz       

 Vector   25  Occ=0.000000D+00  E= 1.868049D-01
              MO Center=  1.3D-13,  2.6D-14,  9.3D-01, r^2= 3.5D+00
   Bfn.  Coefficient  Atom+Function         Bfn.  Coefficient  Atom+Function  
  ----- ------------  ---------------      ----- ------------  ---------------
    40      1.859111  1 S  dxz               64     -1.755514  2 H  px         
    19      1.354686  1 S  px                23     -0.476946  1 S  px         
    42      0.349637  1 S  dyz               65     -0.330154  2 H  py         
    16      0.323239  1 S  px                34      0.270671  1 S  dxz        
    20      0.254771  1 S  py                49     -0.209252  1 S  fxzz       

 Vector   26  Occ=0.000000D+00  E= 1.868049D-01
              MO Center= -1.2D-14,  6.8D-14,  9.3D-01, r^2= 3.5D+00
   Bfn.  Coefficient  Atom+Function         Bfn.  Coefficient  Atom+Function  
  ----- ------------  ---------------      ----- ------------  ---------------
    42      1.859111  1 S  dyz               65     -1.755514  2 H  py         
    20      1.354686  1 S  py                24     -0.476946  1 S  py         
    40     -0.349637  1 S  dxz               64      0.330154  2 H  px         
    17      0.323239  1 S  py                36      0.270671  1 S  dyz        
    19     -0.254771  1 S  px                52     -0.209252  1 S  fyzz       

 Vector   27  Occ=0.000000D+00  E= 2.038504D-01
              MO Center=  1.8D-15,  8.5D-15,  9.6D-01, r^2= 8.8D+00
   Bfn.  Coefficient  Atom+Function         Bfn.  Coefficient  Atom+Function  
  ----- ------------  ---------------      ----- ------------  ---------------
    22      5.897322  1 S  s                 57     -5.296539  2 H  s          
    56      4.174040  2 H  s                 21     -3.347260  1 S  pz         
    25      3.127636  1 S  pz                43     -2.322498  1 S  dzz        
    38     -1.659750  1 S  dxx               41     -1.659750  1 S  dyy        
    37     -0.292966  1 S  dzz                4     -0.288556  1 S  s          

 Vector   28  Occ=0.000000D+00  E= 4.899819D-01
              MO Center=  3.8D-15,  2.0D-15,  1.8D-01, r^2= 6.4D+00
   Bfn.  Coefficient  Atom+Function         Bfn.  Coefficient  Atom+Function  
  ----- ------------  ---------------      ----- ------------  ---------------
    56     10.155736  2 H  s                  6     -8.914909  1 S  s          
    18     -5.283559  1 S  pz                21     -5.151145  1 S  pz         
    66     -4.295406  2 H  pz                43     -3.196177  1 S  dzz        
    55      2.872801  2 H  s                 57     -1.439982  2 H  s          
    25      1.232510  1 S  pz                46      1.064982  1 S  fxxz       

 Vector   29  Occ=0.000000D+00  E= 5.960969D-01
              MO Center=  2.4D-15,  3.6D-15, -1.6D-01, r^2= 1.7D+00
   Bfn.  Coefficient  Atom+Function         Bfn.  Coefficient  Atom+Function  
  ----- ------------  ---------------      ----- ------------  ---------------
    42     -1.258510  1 S  dyz               36      1.178218  1 S  dyz        
    40     -1.127494  1 S  dxz               34      1.055560  1 S  dxz        
    30      0.236352  1 S  dyz               65      0.231209  2 H  py         
    28      0.211747  1 S  dxz               64      0.207139  2 H  px         
    17     -0.171238  1 S  py                16     -0.153412  1 S  px         


   alpha - beta orbital overlaps 
   ----------------------------- 


   alpha      1      2      3      4      5      6      7      8      9     10
    beta      1      2      4      5      3      6      7      8      9     10
 overlap   1.000  1.000  0.910  0.910  1.000  0.996  0.998  0.730  0.730  0.996


   alpha     11     12     13     14     15     16     17     18     19     20
    beta     11     12     13     14     15     16     18     17     19     20
 overlap   0.997  0.842  0.842  0.998  0.998  0.998  0.769  0.769  0.997  0.998


   alpha     21     22     23     24     25     26     27     28     29     30
    beta     21     23     22     24     26     25     27     28     31     32
 overlap   0.998  0.984  0.984  0.994  0.998  0.998  0.994  0.999  0.998  0.998


   alpha     31     32     33     34     35     36     37     38     39     40
    beta     30     29     33     34     35     36     37     38     39     40
 overlap   0.963  0.963  0.996  0.999  0.999  0.998  0.999  1.000  1.000  0.942


   alpha     41     42     43     44     45     46     47     48     49     50
    beta     41     43     42     44     46     45     47     48     49     50
 overlap   0.942  0.835  0.835  1.000  0.750  0.750  0.999  0.999  0.999  0.999


   alpha     51     52     53     54     55     56     57     58     59     60
    beta     51     52     53     54     55     56     57     58     59     60
 overlap   1.000  1.000  1.000  0.994  0.994  0.997  0.994  1.000  1.000  0.994


   alpha     61     62     63     64     65     66     67     68     69     70
    beta     61     62     63     64     65     66     67     69     68     70
 overlap   0.991  0.991  0.999  0.969  0.969  0.953  0.954  0.984  0.984  1.000


   alpha     71     72
    beta     71     72
 overlap   1.000  1.000

     --------------------------
     Expectation value of S2:  
     --------------------------
      <S2> =      2.0064 (Exact =     2.0000)


 center of mass
 --------------
 x =   0.00000000 y =   0.00000000 z =  -0.07270851

 moments of inertia (a.u.)
 ------------------
           6.465266802106           0.000000000000           0.000000000000
           0.000000000000           6.465266802106           0.000000000000
           0.000000000000           0.000000000000           0.000000000000

     Multipole analysis of the density
     ---------------------------------

     L   x y z        total         alpha         beta         nuclear
     -   - - -        -----         -----         ----         -------
     0   0 0 0      1.000000     -9.000000     -7.000000     17.000000

     1   1 0 0      0.000000      0.000000      0.000000      0.000000
     1   0 1 0      0.000000      0.000000      0.000000      0.000000
     1   0 0 1      0.469020      0.270390      0.198630      0.000000

     2   2 0 0     -7.727522     -5.566469     -2.161053      0.000000
     2   1 1 0     -0.000000     -0.000000      0.000000      0.000000
     2   1 0 1     -0.000000     -0.000000     -0.000000      0.000000
     2   0 2 0     -7.727522     -5.566469     -2.161053      0.000000
     2   0 1 1     -0.000000     -0.000000     -0.000000      0.000000
     2   0 0 2     -6.238052     -6.931589     -5.534496      6.228033


 Parallel integral file used      31 records with       0 large values


 Task  times  cpu:        1.9s     wall:        2.4s


                                NWChem Input Module
                                -------------------


 Summary of allocated global arrays
-----------------------------------
  No active global arrays



                         GA Statistics for process    0
                         ------------------------------

       create   destroy   get      put      acc     scatter   gather  read&inc
calls:  309      309     2785     1697      588        0        0       66     
number of processes/call 1.80e+00 1.30e+00 3.10e+00 0.00e+00 0.00e+00
bytes total:             3.17e+07 6.82e+06 1.33e+07 0.00e+00 0.00e+00 5.28e+02
bytes remote:            1.27e+07 1.30e+06 6.58e+06 0.00e+00 0.00e+00 0.00e+00
Max memory consumed for GA by this process: 1415736 bytes

MA_summarize_allocated_blocks: starting scan ...
MA_summarize_allocated_blocks: scan completed: 0 heap blocks, 0 stack blocks
MA usage statistics:

	allocation statistics:
					      heap	     stack
					      ----	     -----
	current number of blocks	         0	         0
	maximum number of blocks	        23	        51
	current total bytes		         0	         0
	maximum total bytes		   4515456	  22514408
	maximum total K-bytes		      4516	     22515
	maximum total M-bytes		         5	        23


                                     CITATION
                                     --------
                Please cite the following reference when publishing
                           results obtained with NWChem:

                 M. Valiev, E.J. Bylaska, N. Govind, K. Kowalski,
              T.P. Straatsma, H.J.J. van Dam, D. Wang, J. Nieplocha,
                        E. Apra, T.L. Windus, W.A. de Jong
                 "NWChem: a comprehensive and scalable open-source
                  solution for large scale molecular simulations"
                      Comput. Phys. Commun. 181, 1477 (2010)
                           doi:10.1016/j.cpc.2010.04.018

                                      AUTHORS
                                      -------
          E. Apra, E. J. Bylaska, W. A. de Jong, N. Govind, K. Kowalski,
       T. P. Straatsma, M. Valiev, H. J. J. van Dam, D. Wang, T. L. Windus,
        J. Hammond, J. Autschbach, K. Bhaskaran-Nair, J. Brabec, K. Lopata,
       S. A. Fischer, S. Krishnamoorthy, W. Ma, M. Klemm, O. Villa, Y. Chen,
    V. Anisimov, F. Aquino, S. Hirata, M. T. Hackler, T. Risthaus, M. Malagoli,
       A. Marenich, A. Otero-de-la-Roza, J. Mullin, P. Nichols, R. Peverati,
     J. Pittner, Y. Zhao, P.-D. Fan, A. Fonari, M. Williamson, R. J. Harrison,
       J. R. Rehr, M. Dupuis, D. Silverstein, D. M. A. Smith, J. Nieplocha,
        V. Tipparaju, M. Krishnan, B. E. Van Kuiken, A. Vazquez-Mayagoitia,
        L. Jensen, M. Swart, Q. Wu, T. Van Voorhis, A. A. Auer, M. Nooijen,
      L. D. Crosby, E. Brown, G. Cisneros, G. I. Fann, H. Fruchtl, J. Garza,
        K. Hirao, R. A. Kendall, J. A. Nichols, K. Tsemekhman, K. Wolinski,
     J. Anchell, D. E. Bernholdt, P. Borowski, T. Clark, D. Clerc, H. Dachsel,
   M. J. O. Deegan, K. Dyall, D. Elwood, E. Glendening, M. Gutowski, A. C. Hess,
         J. Jaffe, B. G. Johnson, J. Ju, R. Kobayashi, R. Kutteh, Z. Lin,
   R. Littlefield, X. Long, B. Meng, T. Nakajima, S. Niu, L. Pollack, M. Rosing,
   K. Glaesemann, G. Sandrone, M. Stave, H. Taylor, G. Thomas, J. H. van Lenthe,
                               A. T. Wong, Z. Zhang.

 Total times  cpu:        2.0s     wall:        2.6s
