[1537795895.521366] [r8n4:9321 :0]         sys.c:744  MXM  WARN  Conflicting CPU frequencies detected, using: 2149.87
[1537795895.521539] [r8n4:9316 :0]         sys.c:744  MXM  WARN  Conflicting CPU frequencies detected, using: 2149.87
[1537795895.523307] [r8n4:9318 :0]         sys.c:744  MXM  WARN  Conflicting CPU frequencies detected, using: 2149.87
[1537795895.523741] [r8n4:9317 :0]         sys.c:744  MXM  WARN  Conflicting CPU frequencies detected, using: 2149.87
[1537795895.524222] [r8n4:9319 :0]         sys.c:744  MXM  WARN  Conflicting CPU frequencies detected, using: 2149.87
[1537795895.524341] [r8n4:9320 :0]         sys.c:744  MXM  WARN  Conflicting CPU frequencies detected, using: 2149.87
[1537795895.524728] [r8n4:9322 :0]         sys.c:744  MXM  WARN  Conflicting CPU frequencies detected, using: 2149.87
[1537795895.535687] [r8n4:9326 :0]         sys.c:744  MXM  WARN  Conflicting CPU frequencies detected, using: 2197.85
[1537795895.535729] [r8n4:9323 :0]         sys.c:744  MXM  WARN  Conflicting CPU frequencies detected, using: 2197.85
[1537795895.538776] [r8n4:9328 :0]         sys.c:744  MXM  WARN  Conflicting CPU frequencies detected, using: 2295.51
[1537795895.578474] [r8n4:9334 :0]         sys.c:744  MXM  WARN  Conflicting CPU frequencies detected, using: 2299.91
[1537795895.579062] [r8n4:9333 :0]         sys.c:744  MXM  WARN  Conflicting CPU frequencies detected, using: 2299.91
[1537795895.579168] [r8n4:9330 :0]         sys.c:744  MXM  WARN  Conflicting CPU frequencies detected, using: 2299.91
[1537795895.579586] [r8n4:9336 :0]         sys.c:744  MXM  WARN  Conflicting CPU frequencies detected, using: 2299.91
[1537795895.580058] [r8n4:9340 :0]         sys.c:744  MXM  WARN  Conflicting CPU frequencies detected, using: 2300.00
[1537795895.580106] [r8n4:9338 :0]         sys.c:744  MXM  WARN  Conflicting CPU frequencies detected, using: 2300.00
 argument  1 = /storage/home/bikashp/nwchem_run/rabeet/ip13g2/nwip13g2/Si+.nw
                                         
                                         


              Northwest Computational Chemistry Package (NWChem) 6.6
              ------------------------------------------------------


                    Environmental Molecular Sciences Laboratory
                       Pacific Northwest National Laboratory
                                Richland, WA 99352

                              Copyright (c) 1994-2015
                       Pacific Northwest National Laboratory
                            Battelle Memorial Institute

             NWChem is an open-source computational chemistry package
                        distributed under the terms of the
                      Educational Community License (ECL) 2.0
             A copy of the license is included with this distribution
                              in the LICENSE.TXT file

                                  ACKNOWLEDGMENT
                                  --------------

            This software and its documentation were developed at the
            EMSL at Pacific Northwest National Laboratory, a multiprogram
            national laboratory, operated for the U.S. Department of Energy
            by Battelle under Contract Number DE-AC05-76RL01830. Support
            for this work was provided by the Department of Energy Office
            of Biological and Environmental Research, Office of Basic
            Energy Sciences, and the Office of Advanced Scientific Computing.


           Job information
           ---------------

    hostname        = r8n4.niserhpc.org
    program         = /home/bikashp/Code/nwchem-6.6_tpssloc/bin/LINUX64/nwchem
    date            = Mon Sep 24 19:01:38 2018

    compiled        = Tue_Sep_18_16:24:59_2018
    source          = /home/bikashp/Code/nwchem-6.6_tpssloc
    nwchem branch   = 6.6
    nwchem revision = 27746
    ga revision     = 10594
    input           = /storage/home/bikashp/nwchem_run/rabeet/ip13g2/nwip13g2/Si+.nw
    prefix          = Si+.
    data base       = ./Si+.db
    status          = startup
    nproc           =       16
    time left       =     -1s



           Memory information
           ------------------

    heap     =   13107196 doubles =    100.0 Mbytes
    stack    =   13107201 doubles =    100.0 Mbytes
    global   =   26214400 doubles =    200.0 Mbytes (distinct from heap & stack)
    total    =   52428797 doubles =    400.0 Mbytes
    verify   = yes
    hardfail = no 


           Directory information
           ---------------------

  0 permanent = .
  0 scratch   = .




                                NWChem Input Module
                                -------------------



 Scaling coordinates for geometry "geometry" by  1.889725989
 (inverse scale =  0.529177249)



                             Geometry "geometry" -> ""
                             -------------------------

 Output coordinates in angstroms (scale by  1.889725989 to convert to a.u.)

  No.       Tag          Charge          X              Y              Z
 ---- ---------------- ---------- -------------- -------------- --------------
    1 Si                  14.0000     0.00000000     0.00000000     0.00000000

      Atomic Mass 
      ----------- 

      Si                27.976930


 Effective nuclear repulsion energy (a.u.)       0.0000000000

            Nuclear Dipole moment (a.u.) 
            ----------------------------
        X                 Y               Z
 ---------------- ---------------- ----------------
     0.0000000000     0.0000000000     0.0000000000


            XYZ format geometry
            -------------------
     1
 geometry
 Si                    0.00000000     0.00000000     0.00000000



 Summary of "ao basis" -> "" (cartesian)
 ------------------------------------------------------------------------------
       Tag                 Description            Shells   Functions and Types
 ---------------- ------------------------------  ------  ---------------------
 *                     6-311++G(3df,3pd)              on all atoms 



                                 NWChem DFT Module
                                 -----------------


                      Basis "ao basis" -> "ao basis" (cartesian)
                      -----
  Si (Silicon)
  ------------
            Exponent  Coefficients 
       -------------- ---------------------------------------------------------
  1 S  6.93792300E+04  0.000757
  1 S  1.03549400E+04  0.005932
  1 S  2.33387960E+03  0.031088
  1 S  6.57142950E+02  0.124967
  1 S  2.14301130E+02  0.386897
  1 S  7.76291680E+01  0.554888

  2 S  7.76291680E+01  0.177881
  2 S  3.06308070E+01  0.627765
  2 S  1.28012950E+01  0.247623

  3 S  3.92686600E+00  1.000000

  4 S  1.45234300E+00  1.000000

  5 S  2.56234000E-01  1.000000

  6 S  9.42790000E-02  1.000000

  7 P  3.35483190E+02  0.008866
  7 P  7.89003660E+01  0.068299
  7 P  2.49881500E+01  0.290958
  7 P  9.21971100E+00  0.732117

  8 P  3.62114000E+00  0.619879
  8 P  1.45131000E+00  0.439148

  9 P  5.04977000E-01  1.000000

 10 P  1.86317000E-01  1.000000

 11 P  6.54320000E-02  1.000000

 12 S  3.31000000E-02  1.000000

 13 P  3.31000000E-02  1.000000

 14 D  1.80000000E+00  1.000000

 15 D  4.50000000E-01  1.000000

 16 D  1.12500000E-01  1.000000

 17 F  3.20000000E-01  1.000000



 Summary of "ao basis" -> "ao basis" (cartesian)
 ------------------------------------------------------------------------------
       Tag                 Description            Shells   Functions and Types
 ---------------- ------------------------------  ------  ---------------------
 Si                    6-311++G(3df,3pd)            17       53   7s6p3d1f




 Summary of "ao basis" -> "ao basis" (cartesian)
 ------------------------------------------------------------------------------
       Tag                 Description            Shells   Functions and Types
 ---------------- ------------------------------  ------  ---------------------
 Si                    6-311++G(3df,3pd)            17       53   7s6p3d1f


  Caching 1-el integrals 

            General Information
            -------------------
          SCF calculation type: DFT
          Wavefunction type:  spin polarized.
          No. of atoms     :     1
          No. of electrons :    13
           Alpha electrons :     7
            Beta electrons :     6
          Charge           :     1
          Spin multiplicity:     2
          Use of symmetry is: off; symmetry adaption is: off
          Maximum number of iterations: ***
          AO basis - number of functions:    53
                     number of shells:    17
          Convergence on energy requested: 1.00D-06
          Convergence on density requested: 1.00D-05
          Convergence on gradient requested: 5.00D-04

              XC Information
              --------------
                  TPSS metaGGA Exchange Functional  1.000          
             TPSS03 metaGGA Correlation Functional  1.000          

             Grid Information
             ----------------
          Grid used for XC integration:  medium    
          Radial quadrature: Mura-Knowles        
          Angular quadrature: Lebedev. 
          Tag              B.-S. Rad. Rad. Pts. Rad. Cut. Ang. Pts.
          ---              ---------- --------- --------- ---------
          Si                  1.10       88           9.0       590
          Grid pruning is: on 
          Number of quadrature shells:    88
          Spatial weights used:  Erf1

          Convergence Information
          -----------------------
          Convergence aids based upon iterative change in 
          total energy or number of iterations. 
          Levelshifting, if invoked, occurs when the 
          HOMO/LUMO gap drops below (HL_TOL): 1.00D-02
          DIIS, if invoked, will attempt to extrapolate 
          using up to (NFOCK): 10 stored Fock matrices.

                    Damping( 0%)  Levelshifting(0.5)       DIIS
                  --------------- ------------------- ---------------
          dE  on:    start            ASAP                start   
          dE off:    2 iters        *** iters           *** iters 


      Screening Tolerance Information
      -------------------------------
          Density screening/tol_rho: 1.00D-10
          AO Gaussian exp screening on grid/accAOfunc:  14
          CD Gaussian exp screening on grid/accCDfunc:  20
          XC Gaussian exp screening on grid/accXCfunc:  20
          Schwarz screening/accCoul: 1.00D-08


      Superposition of Atomic Density Guess
      -------------------------------------

 Sum of atomic energies:        -288.83675415

 Renormalizing density from      14.00 to     13

      Non-variational initial energy
      ------------------------------

 Total energy =    -275.423910
 1-e energy   =    -371.898149
 2-e energy   =      96.474239
 HOMO         =      -0.495612
 LUMO         =      -0.495612

   Time after variat. SCF:      0.6
   Time prior to 1st pass:      0.6

 #quartets = 1.178D+04 #integrals = 1.645D+05 #direct =  0.0% #cached =100.0%


 Integral file          = ./Si+.aoints.00
 Record size in doubles =    65536    No. of integs per rec  =    43688
 Max. records in memory =        4    Max. records in file   = 11667397
 No. of bits per label  =        8    No. of bits per value  =       64


File balance: exchanges=     0  moved=     0  time=   0.0


 Grid_pts file          = ./Si+.gridpts.00
 Record size in doubles =  12289        No. of grid_pts per rec  =   3070
 Max. records in memory =      3        Max. recs in file   =  62221060


           Memory utilization after 1st SCF pass: 
           Heap Space remaining (MW):       12.81            12805276
          Stack Space remaining (MW):       13.11            13106660

   convergence    iter        energy       DeltaE   RMS-Dens  Diis-err    time
 ---------------- ----- ----------------- --------- --------- ---------  ------
 d= 0,ls=0.0,diis     1   -288.9612601295 -2.89D+02  3.57D-02  2.06D+00     1.0
                                                     4.00D-02  2.09D+00
 d= 0,ls=0.5,diis     2   -289.0546215606 -9.34D-02  8.06D-03  5.91D-01     1.1
                                                     1.06D-02  5.88D-01
 d= 0,ls=0.5,diis     3   -289.1151215433 -6.05D-02  3.08D-03  3.74D-03     1.1
                                                     3.21D-03  3.50D-03
 d= 0,ls=0.5,diis     4   -289.1169823798 -1.86D-03  6.59D-04  7.23D-05     1.2
                                                     5.97D-04  3.49D-05
 d= 0,ls=0.5,diis     5   -289.1169316179  5.08D-05  2.15D-04  1.29D-05     1.3
                                                     2.35D-04  2.56D-06
  Resetting Diis
 d= 0,ls=0.5,diis     6   -289.1169229447  8.67D-06  7.78D-05  3.48D-06     1.4
                                                     9.21D-05  5.07D-07
 d= 0,ls=0.5,diis     7   -289.1169233548 -4.10D-07  2.85D-05  1.01D-06     1.5
                                                     1.09D-05  9.05D-08
 d= 0,ls=0.5,diis     8   -289.1169298058 -6.45D-06  2.60D-05  3.28D-07     1.6
                                                     3.07D-05  3.78D-08
 d= 0,ls=0.5,diis     9   -289.1169274002  2.41D-06  8.80D-06  1.08D-07     1.7
                                                     5.45D-06  1.48D-08
 d= 0,ls=0.5,diis    10   -289.1169292641 -1.86D-06  3.70D-06  3.25D-08     1.7
                                                     1.95D-06  2.91D-09
 d= 0,ls=0.5,diis    11   -289.1169295958 -3.32D-07  2.14D-06  1.03D-08     1.8
                                                     7.77D-07  7.99D-10


         Total DFT energy =     -289.116929883843
      One electron energy =     -395.458589261478
           Coulomb energy =      126.897719796886
          Exchange energy =      -20.060518438740
       Correlation energy =       -0.495541980511
 Nuclear repulsion energy =        0.000000000000

 Numeric. integr. density =       13.000000000017

     Total iterative time =      1.3s



                    DFT Final Alpha Molecular Orbital Analysis
                    ------------------------------------------

 Vector    1  Occ=1.000000D+00  E=-6.614348D+01
              MO Center=  3.3D-17,  2.9D-17, -3.1D-17, r^2= 4.7D-03
   Bfn.  Coefficient  Atom+Function         Bfn.  Coefficient  Atom+Function  
  ----- ------------  ---------------      ----- ------------  ---------------
     2      0.645795  1 Si s                  1      0.417982  1 Si s          

 Vector    2  Occ=1.000000D+00  E=-5.579719D+00
              MO Center= -3.1D-15, -1.3D-15, -1.5D-15, r^2= 1.1D-01
   Bfn.  Coefficient  Atom+Function         Bfn.  Coefficient  Atom+Function  
  ----- ------------  ---------------      ----- ------------  ---------------
     4      0.580764  1 Si s                  3      0.529438  1 Si s          
     2     -0.302568  1 Si s          

 Vector    3  Occ=1.000000D+00  E=-3.961314D+00
              MO Center=  1.6D-15, -1.1D-15, -1.0D-16, r^2= 1.0D-01
   Bfn.  Coefficient  Atom+Function         Bfn.  Coefficient  Atom+Function  
  ----- ------------  ---------------      ----- ------------  ---------------
    10      0.589868  1 Si px                 7      0.343020  1 Si px         
    11     -0.303470  1 Si py                12      0.195787  1 Si pz         
     8     -0.176474  1 Si py         

 Vector    4  Occ=1.000000D+00  E=-3.961314D+00
              MO Center= -3.0D-16, -1.3D-16,  8.2D-16, r^2= 1.0D-01
   Bfn.  Coefficient  Atom+Function         Bfn.  Coefficient  Atom+Function  
  ----- ------------  ---------------      ----- ------------  ---------------
    12      0.658062  1 Si pz                 9      0.382677  1 Si pz         
    10     -0.212595  1 Si px         

 Vector    5  Occ=1.000000D+00  E=-3.954308D+00
              MO Center=  8.2D-16,  2.2D-15,  6.7D-16, r^2= 1.0D-01
   Bfn.  Coefficient  Atom+Function         Bfn.  Coefficient  Atom+Function  
  ----- ------------  ---------------      ----- ------------  ---------------
    11      0.620394  1 Si py                 8      0.362211  1 Si py         
    10      0.291465  1 Si px                 7      0.170169  1 Si px         

 Vector    6  Occ=1.000000D+00  E=-7.598464D-01
              MO Center= -5.6D-15,  1.4D-14, -6.6D-15, r^2= 1.4D+00
   Bfn.  Coefficient  Atom+Function         Bfn.  Coefficient  Atom+Function  
  ----- ------------  ---------------      ----- ------------  ---------------
     6      0.847724  1 Si s                  5      0.520385  1 Si s          
     4     -0.322914  1 Si s                  3     -0.225524  1 Si s          

 Vector    7  Occ=1.000000D+00  E=-4.948908D-01
              MO Center= -1.6D-14, -2.9D-14, -8.7D-15, r^2= 1.9D+00
   Bfn.  Coefficient  Atom+Function         Bfn.  Coefficient  Atom+Function  
  ----- ------------  ---------------      ----- ------------  ---------------
    17      0.694112  1 Si py                16      0.326098  1 Si px         
    14      0.194105  1 Si py                20      0.174918  1 Si py         
    11     -0.166484  1 Si py         

 Vector    8  Occ=0.000000D+00  E=-4.865625D-01
              MO Center=  1.2D-15,  1.1D-14,  1.6D-14, r^2= 1.9D+00
   Bfn.  Coefficient  Atom+Function         Bfn.  Coefficient  Atom+Function  
  ----- ------------  ---------------      ----- ------------  ---------------
    18      0.508627  1 Si pz                15      0.259840  1 Si pz         
    21      0.229047  1 Si pz                12     -0.174133  1 Si pz         

 Vector    9  Occ=0.000000D+00  E=-4.865625D-01
              MO Center=  1.6D-15,  1.9D-14,  1.5D-14, r^2= 1.9D+00
   Bfn.  Coefficient  Atom+Function         Bfn.  Coefficient  Atom+Function  
  ----- ------------  ---------------      ----- ------------  ---------------
    16      0.458201  1 Si px                13      0.234079  1 Si px         
    17     -0.229699  1 Si py                19      0.206339  1 Si px         
    10     -0.156869  1 Si px         

 Vector   10  Occ=0.000000D+00  E=-1.665450D-01
              MO Center= -2.4D-15,  3.5D-14, -2.6D-14, r^2= 8.1D+00
   Bfn.  Coefficient  Atom+Function         Bfn.  Coefficient  Atom+Function  
  ----- ------------  ---------------      ----- ------------  ---------------
    22      1.271855  1 Si s                  6     -0.464243  1 Si s          
     5     -0.404015  1 Si s                 39      0.355545  1 Si dxy        
    41      0.240492  1 Si dyy        

 Vector   11  Occ=0.000000D+00  E=-1.587996D-01
              MO Center=  1.7D-14, -1.3D-14,  7.9D-15, r^2= 3.5D+00
   Bfn.  Coefficient  Atom+Function         Bfn.  Coefficient  Atom+Function  
  ----- ------------  ---------------      ----- ------------  ---------------
    39      0.908030  1 Si dxy               41     -0.566154  1 Si dyy        
    38      0.551559  1 Si dxx               33      0.283967  1 Si dxy        
    40      0.208940  1 Si dxz               35     -0.177053  1 Si dyy        
    32      0.172488  1 Si dxx        

 Vector   12  Occ=0.000000D+00  E=-1.587996D-01
              MO Center=  7.1D-15,  1.6D-14,  2.3D-14, r^2= 3.5D+00
   Bfn.  Coefficient  Atom+Function         Bfn.  Coefficient  Atom+Function  
  ----- ------------  ---------------      ----- ------------  ---------------
    42      1.280828  1 Si dyz               40      0.585495  1 Si dxz        
    36      0.400552  1 Si dyz               39     -0.211074  1 Si dxy        
    34      0.183101  1 Si dxz               43      0.174097  1 Si dzz        

 Vector   13  Occ=0.000000D+00  E=-1.546103D-01
              MO Center=  1.1D-14,  9.4D-15, -1.6D-14, r^2= 4.3D+00
   Bfn.  Coefficient  Atom+Function         Bfn.  Coefficient  Atom+Function  
  ----- ------------  ---------------      ----- ------------  ---------------
    39      0.879436  1 Si dxy               41      0.579695  1 Si dyy        
    22     -0.544849  1 Si s                  5      0.439486  1 Si s          
    43     -0.339330  1 Si dzz               33      0.291369  1 Si dxy        
    42      0.251901  1 Si dyz               37     -0.185734  1 Si dzz        

 Vector   14  Occ=0.000000D+00  E=-1.540020D-01
              MO Center=  1.9D-14, -6.4D-15,  1.2D-14, r^2= 3.4D+00
   Bfn.  Coefficient  Atom+Function         Bfn.  Coefficient  Atom+Function  
  ----- ------------  ---------------      ----- ------------  ---------------
    40      0.931340  1 Si dxz               43     -0.514270  1 Si dzz        
    39     -0.483029  1 Si dxy               38      0.380684  1 Si dxx        
    34      0.320804  1 Si dxz               42     -0.299144  1 Si dyz        
    37     -0.177142  1 Si dzz               33     -0.166382  1 Si dxy        

 Vector   15  Occ=0.000000D+00  E=-1.540020D-01
              MO Center=  4.3D-15,  8.4D-15, -2.4D-14, r^2= 3.4D+00
   Bfn.  Coefficient  Atom+Function         Bfn.  Coefficient  Atom+Function  
  ----- ------------  ---------------      ----- ------------  ---------------
    40      0.887934  1 Si dxz               42     -0.546745  1 Si dyz        
    43      0.481513  1 Si dzz               38     -0.447583  1 Si dxx        
    34      0.305853  1 Si dxz               39      0.301075  1 Si dxy        
    36     -0.188329  1 Si dyz               37      0.165859  1 Si dzz        
    32     -0.154173  1 Si dxx        

 Vector   16  Occ=0.000000D+00  E=-1.091008D-01
              MO Center= -1.7D-14, -8.2D-15, -1.0D-14, r^2= 1.2D+01
   Bfn.  Coefficient  Atom+Function         Bfn.  Coefficient  Atom+Function  
  ----- ------------  ---------------      ----- ------------  ---------------
    24      1.140162  1 Si py                23      0.535653  1 Si px         
    20     -0.288751  1 Si py                14     -0.227178  1 Si py         
    25      0.153427  1 Si pz         

 Vector   17  Occ=0.000000D+00  E=-1.040714D-01
              MO Center= -8.7D-15, -2.2D-14,  6.7D-14, r^2= 1.3D+01
   Bfn.  Coefficient  Atom+Function         Bfn.  Coefficient  Atom+Function  
  ----- ------------  ---------------      ----- ------------  ---------------
    25      1.294612  1 Si pz                21     -0.377714  1 Si pz         
    15     -0.264131  1 Si pz                53     -0.198185  1 Si fzzz       
    46     -0.194848  1 Si fxxz              51     -0.181801  1 Si fyyz       

 Vector   18  Occ=0.000000D+00  E=-1.040714D-01
              MO Center= -4.0D-15, -4.6D-15, -3.0D-15, r^2= 1.3D+01
   Bfn.  Coefficient  Atom+Function         Bfn.  Coefficient  Atom+Function  
  ----- ------------  ---------------      ----- ------------  ---------------
    23      1.179379  1 Si px                24     -0.556735  1 Si py         
    19     -0.344093  1 Si px                13     -0.240621  1 Si px         
    49     -0.180512  1 Si fxzz              44     -0.177375  1 Si fxxx       
    47     -0.172122  1 Si fxyy              20      0.162433  1 Si py         

 Vector   19  Occ=0.000000D+00  E= 5.045446D-02
              MO Center=  2.9D-14,  9.6D-14,  8.6D-14, r^2= 1.1D+01
   Bfn.  Coefficient  Atom+Function         Bfn.  Coefficient  Atom+Function  
  ----- ------------  ---------------      ----- ------------  ---------------
    22      2.499805  1 Si s                 38     -1.620745  1 Si dxx        
    41     -1.619110  1 Si dyy               43     -1.621170  1 Si dzz        
     6      1.486128  1 Si s                  4     -0.268221  1 Si s          
    37     -0.227144  1 Si dzz               32     -0.222414  1 Si dxx        
    35     -0.204224  1 Si dyy                3     -0.162462  1 Si s          

 Vector   20  Occ=0.000000D+00  E= 5.892548D-02
              MO Center= -6.2D-14, -1.1D-13, -2.7D-14, r^2= 1.4D+01
   Bfn.  Coefficient  Atom+Function         Bfn.  Coefficient  Atom+Function  
  ----- ------------  ---------------      ----- ------------  ---------------
    17      3.515007  1 Si py                20     -3.368112  1 Si py         
    24      2.104077  1 Si py                16      1.651332  1 Si px         
    19     -1.582323  1 Si px                45     -1.050184  1 Si fxxy       
    50     -1.052404  1 Si fyyy              52     -1.046192  1 Si fyzz       
    23      0.988486  1 Si px                14     -0.554739  1 Si py         

 Vector   21  Occ=0.000000D+00  E= 6.315176D-02
              MO Center=  2.5D-14, -1.7D-14, -2.2D-14, r^2= 1.4D+01
   Bfn.  Coefficient  Atom+Function         Bfn.  Coefficient  Atom+Function  
  ----- ------------  ---------------      ----- ------------  ---------------
    16      3.322643  1 Si px                19     -3.112459  1 Si px         
    23      1.922561  1 Si px                18     -1.906392  1 Si pz         
    21      1.785798  1 Si pz                17     -1.304431  1 Si py         
    20      1.221915  1 Si py                25     -1.103084  1 Si pz         
    47     -1.006777  1 Si fxyy              44     -0.997399  1 Si fxxx       

 Vector   22  Occ=0.000000D+00  E= 6.315177D-02
              MO Center= -2.1D-14,  9.1D-15, -3.8D-14, r^2= 1.4D+01
   Bfn.  Coefficient  Atom+Function         Bfn.  Coefficient  Atom+Function  
  ----- ------------  ---------------      ----- ------------  ---------------
    18      3.535835  1 Si pz                21     -3.312165  1 Si pz         
    25      2.045919  1 Si pz                16      1.555102  1 Si px         
    19     -1.456730  1 Si px                17     -1.206380  1 Si py         
    20      1.130066  1 Si py                51     -1.078112  1 Si fyyz       
    46     -1.062748  1 Si fxxz              53     -1.056470  1 Si fzzz       

 Vector   23  Occ=0.000000D+00  E= 4.054580D-01
              MO Center=  1.3D-15,  8.3D-15, -2.1D-15, r^2= 2.4D+00
   Bfn.  Coefficient  Atom+Function         Bfn.  Coefficient  Atom+Function  
  ----- ------------  ---------------      ----- ------------  ---------------
    33      1.139403  1 Si dxy               39     -0.841573  1 Si dxy        
    35      0.714355  1 Si dyy                6     -0.652573  1 Si s          
    43      0.566587  1 Si dzz               37     -0.476321  1 Si dzz        
     5      0.415896  1 Si s                 38      0.385115  1 Si dxx        
    36      0.326361  1 Si dyz               41     -0.312857  1 Si dyy        

 Vector   24  Occ=0.000000D+00  E= 4.077322D-01
              MO Center=  1.5D-15, -2.0D-15, -3.0D-15, r^2= 2.4D+00
   Bfn.  Coefficient  Atom+Function         Bfn.  Coefficient  Atom+Function  
  ----- ------------  ---------------      ----- ------------  ---------------
    34      1.167410  1 Si dxz               40     -0.873522  1 Si dxz        
    37     -0.602486  1 Si dzz               33     -0.572429  1 Si dxy        
    43      0.450814  1 Si dzz               32      0.442029  1 Si dxx        
    39      0.428323  1 Si dxy               36     -0.386308  1 Si dyz        
    38     -0.330751  1 Si dxx               42      0.289058  1 Si dyz        

 Vector   25  Occ=0.000000D+00  E= 4.077322D-01
              MO Center= -5.0D-16, -1.8D-15,  2.5D-15, r^2= 2.4D+00
   Bfn.  Coefficient  Atom+Function         Bfn.  Coefficient  Atom+Function  
  ----- ------------  ---------------      ----- ------------  ---------------
    34      1.035905  1 Si dxz               40     -0.775122  1 Si dxz        
    36     -0.649757  1 Si dyz               37      0.605960  1 Si dzz        
    32     -0.559036  1 Si dxx               42      0.486185  1 Si dyz        
    43     -0.453413  1 Si dzz               38      0.418303  1 Si dxx        
    33      0.385878  1 Si dxy               39     -0.288736  1 Si dxy        

 Vector   26  Occ=0.000000D+00  E= 4.096967D-01
              MO Center= -1.1D-15, -3.5D-15, -5.6D-15, r^2= 2.3D+00
   Bfn.  Coefficient  Atom+Function         Bfn.  Coefficient  Atom+Function  
  ----- ------------  ---------------      ----- ------------  ---------------
    36      1.132341  1 Si dyz               33     -0.899990  1 Si dxy        
    42     -0.826273  1 Si dyz               39      0.656725  1 Si dxy        
    32     -0.501239  1 Si dxx               34      0.365948  1 Si dxz        
    38      0.365756  1 Si dxx               35      0.355299  1 Si dyy        
    40     -0.267033  1 Si dxz               41     -0.259263  1 Si dyy        

 Vector   27  Occ=0.000000D+00  E= 4.096967D-01
              MO Center= -1.2D-15,  4.7D-15, -1.8D-15, r^2= 2.3D+00
   Bfn.  Coefficient  Atom+Function         Bfn.  Coefficient  Atom+Function  
  ----- ------------  ---------------      ----- ------------  ---------------
    36      1.029578  1 Si dyz               42     -0.751287  1 Si dyz        
    33      0.655775  1 Si dxy               34      0.646140  1 Si dxz        
    35     -0.586769  1 Si dyy               39     -0.478521  1 Si dxy        
    40     -0.471490  1 Si dxz               32      0.437596  1 Si dxx        
    41      0.428167  1 Si dyy               38     -0.319315  1 Si dxx        

 Vector   28  Occ=0.000000D+00  E= 4.772731D-01
              MO Center= -1.8D-13, -4.1D-13, -4.6D-14, r^2= 7.2D+00
   Bfn.  Coefficient  Atom+Function         Bfn.  Coefficient  Atom+Function  
  ----- ------------  ---------------      ----- ------------  ---------------
    17     12.376601  1 Si py                16      5.814586  1 Si px         
    45     -4.907277  1 Si fxxy              50     -4.914575  1 Si fyyy       
    52     -4.894146  1 Si fyzz              14     -4.028274  1 Si py         
    20     -3.666110  1 Si py                47     -2.329189  1 Si fxyy       
    44     -2.300982  1 Si fxxx              49     -2.299293  1 Si fxzz       

 Vector   29  Occ=0.000000D+00  E= 4.937018D-01
              MO Center= -1.1D-14, -7.7D-14,  5.9D-13, r^2= 7.0D+00
   Bfn.  Coefficient  Atom+Function         Bfn.  Coefficient  Atom+Function  
  ----- ------------  ---------------      ----- ------------  ---------------
    18     13.527601  1 Si pz                53     -5.407395  1 Si fzzz       
    46     -5.369897  1 Si fxxz              51     -5.230730  1 Si fyyz       
    15     -4.416547  1 Si pz                21     -3.979177  1 Si pz         
    17     -1.742252  1 Si py                25      1.525287  1 Si pz         
    52      0.746626  1 Si fyzz              45      0.689411  1 Si fxxy       

 Vector   30  Occ=0.000000D+00  E= 4.937018D-01
              MO Center= -5.2D-14,  1.8D-14,  6.2D-15, r^2= 7.0D+00
   Bfn.  Coefficient  Atom+Function         Bfn.  Coefficient  Atom+Function  
  ----- ------------  ---------------      ----- ------------  ---------------
    16     12.364547  1 Si px                17     -5.730063  1 Si py         
    49     -4.943508  1 Si fxzz              44     -4.907948  1 Si fxxx       
    47     -4.849333  1 Si fxyy              13     -4.036828  1 Si px         
    19     -3.637062  1 Si px                45      2.434652  1 Si fxxy       
    52      2.288307  1 Si fyzz              50      2.212910  1 Si fyyy       

 Vector   31  Occ=0.000000D+00  E= 5.542115D-01
              MO Center=  4.3D-15, -1.9D-15, -7.6D-16, r^2= 2.0D+00
   Bfn.  Coefficient  Atom+Function         Bfn.  Coefficient  Atom+Function  
  ----- ------------  ---------------      ----- ------------  ---------------
    49      1.982780  1 Si fxzz              52     -1.024770  1 Si fyzz       
    45      0.844202  1 Si fxxy              46     -0.783314  1 Si fxxz       
    44     -0.524184  1 Si fxxx              47     -0.410228  1 Si fxyy       
    53      0.230985  1 Si fzzz              48      0.202381  1 Si fxyz       


                     DFT Final Beta Molecular Orbital Analysis
                     -----------------------------------------

 Vector    1  Occ=1.000000D+00  E=-6.613954D+01
              MO Center= -3.5D-17, -1.1D-16, -1.3D-17, r^2= 4.7D-03
   Bfn.  Coefficient  Atom+Function         Bfn.  Coefficient  Atom+Function  
  ----- ------------  ---------------      ----- ------------  ---------------
     2      0.645805  1 Si s                  1      0.417997  1 Si s          

 Vector    2  Occ=1.000000D+00  E=-5.576480D+00
              MO Center= -8.8D-15,  4.2D-15, -5.3D-15, r^2= 1.1D-01
   Bfn.  Coefficient  Atom+Function         Bfn.  Coefficient  Atom+Function  
  ----- ------------  ---------------      ----- ------------  ---------------
     4      0.582036  1 Si s                  3      0.528148  1 Si s          
     2     -0.302433  1 Si s          

 Vector    3  Occ=1.000000D+00  E=-3.959770D+00
              MO Center=  5.3D-15, -3.3D-15,  4.6D-16, r^2= 1.0D-01
   Bfn.  Coefficient  Atom+Function         Bfn.  Coefficient  Atom+Function  
  ----- ------------  ---------------      ----- ------------  ---------------
    10      0.601400  1 Si px                 7      0.349569  1 Si px         
    11     -0.303632  1 Si py                 8     -0.176489  1 Si py         
    12      0.156735  1 Si pz         

 Vector    4  Occ=1.000000D+00  E=-3.959770D+00
              MO Center= -1.4D-15,  5.8D-16,  1.7D-15, r^2= 1.0D-01
   Bfn.  Coefficient  Atom+Function         Bfn.  Coefficient  Atom+Function  
  ----- ------------  ---------------      ----- ------------  ---------------
    12      0.668491  1 Si pz                 9      0.388566  1 Si pz         
    10     -0.177529  1 Si px         

 Vector    5  Occ=1.000000D+00  E=-3.943563D+00
              MO Center= -1.4D-15,  8.5D-16, -6.7D-16, r^2= 1.0D-01
   Bfn.  Coefficient  Atom+Function         Bfn.  Coefficient  Atom+Function  
  ----- ------------  ---------------      ----- ------------  ---------------
    11      0.621546  1 Si py                 8      0.361674  1 Si py         
    10      0.292006  1 Si px                 7      0.169916  1 Si px         

 Vector    6  Occ=1.000000D+00  E=-7.335700D-01
              MO Center=  6.7D-15,  3.6D-16,  8.2D-15, r^2= 1.4D+00
   Bfn.  Coefficient  Atom+Function         Bfn.  Coefficient  Atom+Function  
  ----- ------------  ---------------      ----- ------------  ---------------
     6      0.970186  1 Si s                  5      0.422977  1 Si s          
     4     -0.333724  1 Si s                  3     -0.211579  1 Si s          
    41     -0.152577  1 Si dyy        

 Vector    7  Occ=0.000000D+00  E=-4.865350D-01
              MO Center= -1.5D-15, -3.0D-15, -2.7D-15, r^2= 1.9D+00
   Bfn.  Coefficient  Atom+Function         Bfn.  Coefficient  Atom+Function  
  ----- ------------  ---------------      ----- ------------  ---------------
    18      0.509953  1 Si pz                15      0.264435  1 Si pz         
    21      0.228412  1 Si pz                12     -0.176681  1 Si pz         

 Vector    8  Occ=0.000000D+00  E=-4.865350D-01
              MO Center= -7.2D-15,  1.6D-14,  6.4D-15, r^2= 1.9D+00
   Bfn.  Coefficient  Atom+Function         Bfn.  Coefficient  Atom+Function  
  ----- ------------  ---------------      ----- ------------  ---------------
    16      0.464399  1 Si px                13      0.240813  1 Si px         
    17     -0.219647  1 Si py                19      0.208008  1 Si px         
    10     -0.160898  1 Si px         

 Vector    9  Occ=0.000000D+00  E=-4.351016D-01
              MO Center= -5.3D-15,  7.9D-15, -1.1D-14, r^2= 2.2D+00
   Bfn.  Coefficient  Atom+Function         Bfn.  Coefficient  Atom+Function  
  ----- ------------  ---------------      ----- ------------  ---------------
    17      0.871696  1 Si py                16      0.409528  1 Si px         
    20      0.198537  1 Si py         

 Vector   10  Occ=0.000000D+00  E=-1.566885D-01
              MO Center= -6.7D-15,  6.8D-15, -1.7D-14, r^2= 7.3D+00
   Bfn.  Coefficient  Atom+Function         Bfn.  Coefficient  Atom+Function  
  ----- ------------  ---------------      ----- ------------  ---------------
    22      1.149643  1 Si s                 39      0.488819  1 Si dxy        
     5     -0.440639  1 Si s                 41      0.278969  1 Si dyy        
    43     -0.231844  1 Si dzz                6     -0.188650  1 Si s          

 Vector   11  Occ=0.000000D+00  E=-1.562309D-01
              MO Center= -2.7D-15,  2.0D-15,  5.4D-15, r^2= 3.4D+00
   Bfn.  Coefficient  Atom+Function         Bfn.  Coefficient  Atom+Function  
  ----- ------------  ---------------      ----- ------------  ---------------
    40      1.221507  1 Si dxz               42     -0.510394  1 Si dyz        
    34      0.441598  1 Si dxz               39     -0.289766  1 Si dxy        
    43     -0.235859  1 Si dzz               36     -0.184517  1 Si dyz        

 Vector   12  Occ=0.000000D+00  E=-1.562309D-01
              MO Center=  6.2D-15,  1.7D-15, -5.7D-15, r^2= 3.4D+00
   Bfn.  Coefficient  Atom+Function         Bfn.  Coefficient  Atom+Function  
  ----- ------------  ---------------      ----- ------------  ---------------
    43      0.656451  1 Si dzz               38     -0.566249  1 Si dxx        
    39      0.483327  1 Si dxy               40      0.362108  1 Si dxz        
    42     -0.346793  1 Si dyz               37      0.237319  1 Si dzz        
    32     -0.204710  1 Si dxx               33      0.174732  1 Si dxy        

 Vector   13  Occ=0.000000D+00  E=-1.390585D-01
              MO Center= -2.1D-15, -6.9D-15, -4.2D-15, r^2= 3.6D+00
   Bfn.  Coefficient  Atom+Function         Bfn.  Coefficient  Atom+Function  
  ----- ------------  ---------------      ----- ------------  ---------------
    39      0.943285  1 Si dxy               38      0.568728  1 Si dxx        
    41     -0.568903  1 Si dyy               33      0.258239  1 Si dxy        
    40      0.163511  1 Si dxz               32      0.155698  1 Si dxx        
    35     -0.155746  1 Si dyy        

 Vector   14  Occ=0.000000D+00  E=-1.390585D-01
              MO Center=  8.5D-15,  1.7D-14,  9.3D-16, r^2= 3.6D+00
   Bfn.  Coefficient  Atom+Function         Bfn.  Coefficient  Atom+Function  
  ----- ------------  ---------------      ----- ------------  ---------------
    42      1.308142  1 Si dyz               40      0.614378  1 Si dxz        
    36      0.358123  1 Si dyz               43      0.178672  1 Si dzz        
    34      0.168195  1 Si dxz        

 Vector   15  Occ=0.000000D+00  E=-1.343171D-01
              MO Center= -7.4D-15,  8.2D-16, -7.0D-15, r^2= 5.3D+00
   Bfn.  Coefficient  Atom+Function         Bfn.  Coefficient  Atom+Function  
  ----- ------------  ---------------      ----- ------------  ---------------
    39     -0.860038  1 Si dxy               22      0.824183  1 Si s          
    41     -0.558531  1 Si dyy                5     -0.405176  1 Si s          
     6     -0.395489  1 Si s                 43      0.340206  1 Si dzz        
    42     -0.246340  1 Si dyz               33     -0.197293  1 Si dxy        
    38      0.154755  1 Si dxx        

 Vector   16  Occ=0.000000D+00  E=-9.657705D-02
              MO Center=  1.1D-14, -1.9D-14,  2.7D-14, r^2= 1.3D+01
   Bfn.  Coefficient  Atom+Function         Bfn.  Coefficient  Atom+Function  
  ----- ------------  ---------------      ----- ------------  ---------------
    25      1.150645  1 Si pz                23      0.581970  1 Si px         
    24     -0.428251  1 Si py                21     -0.406719  1 Si pz         
    18      0.267109  1 Si pz                15     -0.263658  1 Si pz         
    53     -0.231439  1 Si fzzz              46     -0.222300  1 Si fxxz       
    19     -0.205709  1 Si px                51     -0.201209  1 Si fyyz       

 Vector   17  Occ=0.000000D+00  E=-9.657705D-02
              MO Center= -3.6D-16, -2.4D-15, -1.2D-15, r^2= 1.3D+01
   Bfn.  Coefficient  Atom+Function         Bfn.  Coefficient  Atom+Function  
  ----- ------------  ---------------      ----- ------------  ---------------
    23      1.085575  1 Si px                25     -0.703636  1 Si pz         
    24     -0.415324  1 Si py                19     -0.383719  1 Si px         
    16      0.252004  1 Si px                13     -0.248748  1 Si px         
    21      0.248715  1 Si pz                49     -0.221001  1 Si fxzz       
    44     -0.211797  1 Si fxxx              47     -0.198218  1 Si fxyy       

 Vector   18  Occ=0.000000D+00  E=-8.442699D-02
              MO Center=  5.5D-16,  2.3D-15,  4.2D-15, r^2= 1.4D+01
   Bfn.  Coefficient  Atom+Function         Bfn.  Coefficient  Atom+Function  
  ----- ------------  ---------------      ----- ------------  ---------------
    24      1.336858  1 Si py                23      0.628064  1 Si px         
    20     -0.621809  1 Si py                17      0.355675  1 Si py         
    14     -0.294243  1 Si py                19     -0.292129  1 Si px         
    52     -0.275259  1 Si fyzz              45     -0.253580  1 Si fxxy       
    50     -0.241531  1 Si fyyy              25      0.179896  1 Si pz         

 Vector   19  Occ=0.000000D+00  E= 5.873186D-02
              MO Center= -8.9D-14,  2.5D-13, -5.9D-13, r^2= 1.1D+01
   Bfn.  Coefficient  Atom+Function         Bfn.  Coefficient  Atom+Function  
  ----- ------------  ---------------      ----- ------------  ---------------
    22      2.480721  1 Si s                 43     -1.636467  1 Si dzz        
    38     -1.618270  1 Si dxx               41     -1.548280  1 Si dyy        
     6      1.438085  1 Si s                  4     -0.279052  1 Si s          
    35     -0.229945  1 Si dyy               32     -0.221323  1 Si dxx        
    37     -0.219081  1 Si dzz                3     -0.167451  1 Si s          

 Vector   20  Occ=0.000000D+00  E= 6.786347D-02
              MO Center=  3.5D-13, -2.2D-13,  3.4D-13, r^2= 1.3D+01
   Bfn.  Coefficient  Atom+Function         Bfn.  Coefficient  Atom+Function  
  ----- ------------  ---------------      ----- ------------  ---------------
    16      2.616725  1 Si px                18      2.557816  1 Si pz         
    19     -2.473269  1 Si px                21     -2.417590  1 Si pz         
    17     -1.573549  1 Si py                23      1.517580  1 Si px         
    20      1.487283  1 Si py                25      1.483415  1 Si pz         
    24     -0.912586  1 Si py                47     -0.789964  1 Si fxyy       

 Vector   21  Occ=0.000000D+00  E= 6.786347D-02
              MO Center= -2.0D-13,  5.6D-14,  2.3D-13, r^2= 1.3D+01
   Bfn.  Coefficient  Atom+Function         Bfn.  Coefficient  Atom+Function  
  ----- ------------  ---------------      ----- ------------  ---------------
    18      3.015194  1 Si pz                21     -2.849893  1 Si pz         
    16     -2.488320  1 Si px                19      2.351903  1 Si px         
    25      1.748673  1 Si pz                23     -1.443111  1 Si px         
    51     -0.943977  1 Si fyyz              46     -0.893291  1 Si fxxz       
    53     -0.888058  1 Si fzzz              17      0.763284  1 Si py         

 Vector   22  Occ=0.000000D+00  E= 8.206395D-02
              MO Center= -4.4D-14, -8.9D-14, -9.5D-15, r^2= 1.3D+01
   Bfn.  Coefficient  Atom+Function         Bfn.  Coefficient  Atom+Function  
  ----- ------------  ---------------      ----- ------------  ---------------
    17      3.745662  1 Si py                20     -3.372587  1 Si py         
    24      2.007992  1 Si py                16      1.759735  1 Si px         
    19     -1.584462  1 Si px                50     -1.143295  1 Si fyyy       
    45     -1.119560  1 Si fxxy              52     -1.076857  1 Si fyzz       
    23      0.943367  1 Si px                47     -0.603139  1 Si fxyy       

 Vector   23  Occ=0.000000D+00  E= 4.052789D-01
              MO Center=  5.5D-16, -1.2D-15,  2.6D-15, r^2= 2.4D+00
   Bfn.  Coefficient  Atom+Function         Bfn.  Coefficient  Atom+Function  
  ----- ------------  ---------------      ----- ------------  ---------------
    34      1.509081  1 Si dxz               40     -1.145797  1 Si dxz        
    36     -0.640544  1 Si dyz               42      0.486344  1 Si dyz        
    33     -0.328895  1 Si dxy               37     -0.254266  1 Si dzz        
    39      0.249719  1 Si dxy               28      0.196796  1 Si dxz        
    43      0.193056  1 Si dzz        

 Vector   24  Occ=0.000000D+00  E= 4.052789D-01
              MO Center= -6.4D-15,  2.0D-15, -4.7D-15, r^2= 2.4D+00
   Bfn.  Coefficient  Atom+Function         Bfn.  Coefficient  Atom+Function  
  ----- ------------  ---------------      ----- ------------  ---------------
    37      0.813105  1 Si dzz               32     -0.697800  1 Si dxx        
    43     -0.617364  1 Si dzz               33      0.604600  1 Si dxy        
    38      0.529817  1 Si dxx               39     -0.459054  1 Si dxy        
    36     -0.397100  1 Si dyz               34      0.379448  1 Si dxz        
    42      0.301506  1 Si dyz               40     -0.288103  1 Si dxz        

 Vector   25  Occ=0.000000D+00  E= 4.458537D-01
              MO Center= -4.9D-15, -5.0D-15, -1.4D-15, r^2= 2.2D+00
   Bfn.  Coefficient  Atom+Function         Bfn.  Coefficient  Atom+Function  
  ----- ------------  ---------------      ----- ------------  ---------------
    33      1.094427  1 Si dxy               39     -0.771872  1 Si dxy        
    32      0.640116  1 Si dxx               36     -0.593178  1 Si dyz        
    35     -0.570627  1 Si dyy               38     -0.451458  1 Si dxx        
    42      0.418353  1 Si dyz               41      0.402449  1 Si dyy        
    27      0.156990  1 Si dxy        

 Vector   26  Occ=0.000000D+00  E= 4.458537D-01
              MO Center= -2.9D-15,  7.1D-15, -8.8D-15, r^2= 2.2D+00
   Bfn.  Coefficient  Atom+Function         Bfn.  Coefficient  Atom+Function  
  ----- ------------  ---------------      ----- ------------  ---------------
    36      1.413513  1 Si dyz               42     -0.996915  1 Si dyz        
    34      0.741420  1 Si dxz               40     -0.522905  1 Si dxz        
    35     -0.382697  1 Si dyy               41      0.269907  1 Si dyy        
    33      0.215169  1 Si dxy               30      0.202762  1 Si dyz        
    37      0.197141  1 Si dzz               32      0.185556  1 Si dxx        

 Vector   27  Occ=0.000000D+00  E= 4.562937D-01
              MO Center= -2.8D-15, -6.0D-15,  1.4D-15, r^2= 2.1D+00
   Bfn.  Coefficient  Atom+Function         Bfn.  Coefficient  Atom+Function  
  ----- ------------  ---------------      ----- ------------  ---------------
    33      1.143933  1 Si dxy               39     -0.786790  1 Si dxy        
    35      0.649438  1 Si dyy               37     -0.545969  1 Si dzz        
     5      0.461953  1 Si s                 41     -0.411261  1 Si dyy        
    43      0.410933  1 Si dzz               36      0.327656  1 Si dyz        
     6     -0.325742  1 Si s                 32     -0.299301  1 Si dxx        

 Vector   28  Occ=0.000000D+00  E= 4.904277D-01
              MO Center=  1.1D-13,  2.0D-13,  4.0D-14, r^2= 6.7D+00
   Bfn.  Coefficient  Atom+Function         Bfn.  Coefficient  Atom+Function  
  ----- ------------  ---------------      ----- ------------  ---------------
    17     11.845798  1 Si py                16      5.565214  1 Si px         
    52     -4.971768  1 Si fyzz              45     -4.721080  1 Si fxxy       
    50     -4.581740  1 Si fyyy              14     -3.891943  1 Si py         
    20     -3.528000  1 Si py                49     -2.335761  1 Si fxzz       
    44     -2.303520  1 Si fxxx              13     -1.828454  1 Si px         

 Vector   29  Occ=0.000000D+00  E= 4.953843D-01
              MO Center=  2.0D-13, -8.5D-14,  5.0D-14, r^2= 6.9D+00
   Bfn.  Coefficient  Atom+Function         Bfn.  Coefficient  Atom+Function  
  ----- ------------  ---------------      ----- ------------  ---------------
    16     11.786084  1 Si px                17     -5.887856  1 Si py         
    49     -4.747828  1 Si fxzz              44     -4.676224  1 Si fxxx       
    47     -4.549174  1 Si fxyy              13     -3.844711  1 Si px         
    19     -3.487510  1 Si px                45      2.721282  1 Si fxxy       
    18      2.606115  1 Si pz                52      2.401949  1 Si fyzz       

 Vector   30  Occ=0.000000D+00  E= 4.953843D-01
              MO Center=  1.0D-13,  4.7D-15, -4.2D-13, r^2= 6.9D+00
   Bfn.  Coefficient  Atom+Function         Bfn.  Coefficient  Atom+Function  
  ----- ------------  ---------------      ----- ------------  ---------------
    18     13.074484  1 Si pz                53     -5.279554  1 Si fzzz       
    46     -5.200836  1 Si fxxz              51     -4.836028  1 Si fyyz       
    15     -4.264997  1 Si pz                21     -3.868748  1 Si pz         
    16     -3.053320  1 Si px                25      1.480298  1 Si pz         
    49      1.290454  1 Si fxzz              44      1.211429  1 Si fxxx       

 Vector   31  Occ=0.000000D+00  E= 5.438612D-01
              MO Center=  5.5D-15, -2.1D-15, -3.4D-15, r^2= 2.0D+00
   Bfn.  Coefficient  Atom+Function         Bfn.  Coefficient  Atom+Function  
  ----- ------------  ---------------      ----- ------------  ---------------
    49      1.911559  1 Si fxzz              52     -1.016485  1 Si fyzz       
    46     -0.931966  1 Si fxxz              45      0.829066  1 Si fxxy       
    44     -0.499252  1 Si fxxx              47     -0.413804  1 Si fxyy       
    48      0.361223  1 Si fxyz              53      0.293344  1 Si fzzz       


   alpha - beta orbital overlaps 
   ----------------------------- 


   alpha      1      2      3      4      5      6      7      8      9     10
    beta      1      2      3      4      5      6      9      7      8     10
 overlap   1.000  1.000  0.998  0.998  1.000  0.998  0.997  0.982  0.982  0.987


   alpha     11     12     13     14     15     16     17     18     19     20
    beta     13     14     15     11     12     18     16     17     19     22
 overlap   0.996  0.996  0.983  0.890  0.890  0.994  0.845  0.845  0.998  0.994


   alpha     21     22     23     24     25     26     27     28     29     30
    beta     21     20     27     23     24     25     26     28     30     29
 overlap   0.931  0.931  0.996  0.887  0.887  0.906  0.906  0.970  0.965  0.965


   alpha     31     32     33     34     35     36     37     38     39     40
    beta     31     32     33     34     35     36     37     38     39     40
 overlap   0.996  0.996  0.991  0.991  1.000  0.723  0.723  0.970  0.816  0.816


   alpha     41     42     43     44     45     46     47     48     49     50
    beta     41     42     44     43     45     46     47     48     49     50
 overlap   1.000  1.000  0.954  0.954  0.934  0.934  1.000  1.000  0.985  0.985


   alpha     51     52     53
    beta     51     52     53
 overlap   1.000  1.000  1.000

     --------------------------
     Expectation value of S2:  
     --------------------------
      <S2> =      0.7550 (Exact =     0.7500)


 Parallel integral file used      16 records with       0 large values


 Task  times  cpu:        1.4s     wall:        1.9s


                                NWChem Input Module
                                -------------------


 Summary of allocated global arrays
-----------------------------------
  No active global arrays



                         GA Statistics for process    0
                         ------------------------------

       create   destroy   get      put      acc     scatter   gather  read&inc
calls:  331      331     1266      920      339        0        0       61     
number of processes/call 1.70e+00 1.51e+00 3.13e+00 0.00e+00 0.00e+00
bytes total:             1.87e+07 6.74e+06 7.62e+06 0.00e+00 0.00e+00 4.88e+02
bytes remote:            1.39e+06 5.56e+05 1.26e+06 0.00e+00 0.00e+00 0.00e+00
Max memory consumed for GA by this process: 1415736 bytes

MA_summarize_allocated_blocks: starting scan ...
MA_summarize_allocated_blocks: scan completed: 0 heap blocks, 0 stack blocks
MA usage statistics:

	allocation statistics:
					      heap	     stack
					      ----	     -----
	current number of blocks	         0	         0
	maximum number of blocks	        23	        51
	current total bytes		         0	         0
	maximum total bytes		   2415384	  22513064
	maximum total K-bytes		      2416	     22514
	maximum total M-bytes		         3	        23


                                     CITATION
                                     --------
                Please cite the following reference when publishing
                           results obtained with NWChem:

                 M. Valiev, E.J. Bylaska, N. Govind, K. Kowalski,
              T.P. Straatsma, H.J.J. van Dam, D. Wang, J. Nieplocha,
                        E. Apra, T.L. Windus, W.A. de Jong
                 "NWChem: a comprehensive and scalable open-source
                  solution for large scale molecular simulations"
                      Comput. Phys. Commun. 181, 1477 (2010)
                           doi:10.1016/j.cpc.2010.04.018

                                      AUTHORS
                                      -------
          E. Apra, E. J. Bylaska, W. A. de Jong, N. Govind, K. Kowalski,
       T. P. Straatsma, M. Valiev, H. J. J. van Dam, D. Wang, T. L. Windus,
        J. Hammond, J. Autschbach, K. Bhaskaran-Nair, J. Brabec, K. Lopata,
       S. A. Fischer, S. Krishnamoorthy, W. Ma, M. Klemm, O. Villa, Y. Chen,
    V. Anisimov, F. Aquino, S. Hirata, M. T. Hackler, T. Risthaus, M. Malagoli,
       A. Marenich, A. Otero-de-la-Roza, J. Mullin, P. Nichols, R. Peverati,
     J. Pittner, Y. Zhao, P.-D. Fan, A. Fonari, M. Williamson, R. J. Harrison,
       J. R. Rehr, M. Dupuis, D. Silverstein, D. M. A. Smith, J. Nieplocha,
        V. Tipparaju, M. Krishnan, B. E. Van Kuiken, A. Vazquez-Mayagoitia,
        L. Jensen, M. Swart, Q. Wu, T. Van Voorhis, A. A. Auer, M. Nooijen,
      L. D. Crosby, E. Brown, G. Cisneros, G. I. Fann, H. Fruchtl, J. Garza,
        K. Hirao, R. A. Kendall, J. A. Nichols, K. Tsemekhman, K. Wolinski,
     J. Anchell, D. E. Bernholdt, P. Borowski, T. Clark, D. Clerc, H. Dachsel,
   M. J. O. Deegan, K. Dyall, D. Elwood, E. Glendening, M. Gutowski, A. C. Hess,
         J. Jaffe, B. G. Johnson, J. Ju, R. Kobayashi, R. Kutteh, Z. Lin,
   R. Littlefield, X. Long, B. Meng, T. Nakajima, S. Niu, L. Pollack, M. Rosing,
   K. Glaesemann, G. Sandrone, M. Stave, H. Taylor, G. Thomas, J. H. van Lenthe,
                               A. T. Wong, Z. Zhang.

 Total times  cpu:        1.4s     wall:        2.0s
