[1537795888.839644] [r8n4:9144 :0]         sys.c:744  MXM  WARN  Conflicting CPU frequencies detected, using: 2300.00
[1537795888.839649] [r8n4:9145 :0]         sys.c:744  MXM  WARN  Conflicting CPU frequencies detected, using: 2300.00
[1537795888.845526] [r8n4:9146 :0]         sys.c:744  MXM  WARN  Conflicting CPU frequencies detected, using: 2300.00
[1537795888.849759] [r8n4:9150 :0]         sys.c:744  MXM  WARN  Conflicting CPU frequencies detected, using: 2300.00
[1537795888.850707] [r8n4:9148 :0]         sys.c:744  MXM  WARN  Conflicting CPU frequencies detected, using: 2300.00
[1537795888.850807] [r8n4:9149 :0]         sys.c:744  MXM  WARN  Conflicting CPU frequencies detected, using: 2300.00
[1537795888.850845] [r8n4:9147 :0]         sys.c:744  MXM  WARN  Conflicting CPU frequencies detected, using: 2300.00
[1537795888.850959] [r8n4:9152 :0]         sys.c:744  MXM  WARN  Conflicting CPU frequencies detected, using: 2300.00
[1537795888.870074] [r8n4:9158 :0]         sys.c:744  MXM  WARN  Conflicting CPU frequencies detected, using: 2300.00
[1537795888.870093] [r8n4:9154 :0]         sys.c:744  MXM  WARN  Conflicting CPU frequencies detected, using: 2300.00
[1537795888.870720] [r8n4:9156 :0]         sys.c:744  MXM  WARN  Conflicting CPU frequencies detected, using: 2300.00
[1537795888.893868] [r8n4:9166 :0]         sys.c:744  MXM  WARN  Conflicting CPU frequencies detected, using: 2300.00
[1537795888.893868] [r8n4:9162 :0]         sys.c:744  MXM  WARN  Conflicting CPU frequencies detected, using: 2300.00
[1537795888.893868] [r8n4:9164 :0]         sys.c:744  MXM  WARN  Conflicting CPU frequencies detected, using: 2300.00
[1537795888.893933] [r8n4:9168 :0]         sys.c:744  MXM  WARN  Conflicting CPU frequencies detected, using: 2300.00
[1537795888.893978] [r8n4:9160 :0]         sys.c:744  MXM  WARN  Conflicting CPU frequencies detected, using: 2300.00
 argument  1 = /storage/home/bikashp/nwchem_run/rabeet/ip13g2/nwip13g2/Si.nw
                                         
                                         


              Northwest Computational Chemistry Package (NWChem) 6.6
              ------------------------------------------------------


                    Environmental Molecular Sciences Laboratory
                       Pacific Northwest National Laboratory
                                Richland, WA 99352

                              Copyright (c) 1994-2015
                       Pacific Northwest National Laboratory
                            Battelle Memorial Institute

             NWChem is an open-source computational chemistry package
                        distributed under the terms of the
                      Educational Community License (ECL) 2.0
             A copy of the license is included with this distribution
                              in the LICENSE.TXT file

                                  ACKNOWLEDGMENT
                                  --------------

            This software and its documentation were developed at the
            EMSL at Pacific Northwest National Laboratory, a multiprogram
            national laboratory, operated for the U.S. Department of Energy
            by Battelle under Contract Number DE-AC05-76RL01830. Support
            for this work was provided by the Department of Energy Office
            of Biological and Environmental Research, Office of Basic
            Energy Sciences, and the Office of Advanced Scientific Computing.


           Job information
           ---------------

    hostname        = r8n4.niserhpc.org
    program         = /home/bikashp/Code/nwchem-6.6_tpssloc/bin/LINUX64/nwchem
    date            = Mon Sep 24 19:01:31 2018

    compiled        = Tue_Sep_18_16:24:59_2018
    source          = /home/bikashp/Code/nwchem-6.6_tpssloc
    nwchem branch   = 6.6
    nwchem revision = 27746
    ga revision     = 10594
    input           = /storage/home/bikashp/nwchem_run/rabeet/ip13g2/nwip13g2/Si.nw
    prefix          = Si.
    data base       = ./Si.db
    status          = startup
    nproc           =       16
    time left       =     -1s



           Memory information
           ------------------

    heap     =   13107196 doubles =    100.0 Mbytes
    stack    =   13107201 doubles =    100.0 Mbytes
    global   =   26214400 doubles =    200.0 Mbytes (distinct from heap & stack)
    total    =   52428797 doubles =    400.0 Mbytes
    verify   = yes
    hardfail = no 


           Directory information
           ---------------------

  0 permanent = .
  0 scratch   = .




                                NWChem Input Module
                                -------------------



 Scaling coordinates for geometry "geometry" by  1.889725989
 (inverse scale =  0.529177249)



                             Geometry "geometry" -> ""
                             -------------------------

 Output coordinates in angstroms (scale by  1.889725989 to convert to a.u.)

  No.       Tag          Charge          X              Y              Z
 ---- ---------------- ---------- -------------- -------------- --------------
    1 Si                  14.0000     0.00000000     0.00000000     0.00000000

      Atomic Mass 
      ----------- 

      Si                27.976930


 Effective nuclear repulsion energy (a.u.)       0.0000000000

            Nuclear Dipole moment (a.u.) 
            ----------------------------
        X                 Y               Z
 ---------------- ---------------- ----------------
     0.0000000000     0.0000000000     0.0000000000


            XYZ format geometry
            -------------------
     1
 geometry
 Si                    0.00000000     0.00000000     0.00000000



 Summary of "ao basis" -> "" (cartesian)
 ------------------------------------------------------------------------------
       Tag                 Description            Shells   Functions and Types
 ---------------- ------------------------------  ------  ---------------------
 *                     6-311++G(3df,3pd)              on all atoms 



                                 NWChem DFT Module
                                 -----------------


                      Basis "ao basis" -> "ao basis" (cartesian)
                      -----
  Si (Silicon)
  ------------
            Exponent  Coefficients 
       -------------- ---------------------------------------------------------
  1 S  6.93792300E+04  0.000757
  1 S  1.03549400E+04  0.005932
  1 S  2.33387960E+03  0.031088
  1 S  6.57142950E+02  0.124967
  1 S  2.14301130E+02  0.386897
  1 S  7.76291680E+01  0.554888

  2 S  7.76291680E+01  0.177881
  2 S  3.06308070E+01  0.627765
  2 S  1.28012950E+01  0.247623

  3 S  3.92686600E+00  1.000000

  4 S  1.45234300E+00  1.000000

  5 S  2.56234000E-01  1.000000

  6 S  9.42790000E-02  1.000000

  7 P  3.35483190E+02  0.008866
  7 P  7.89003660E+01  0.068299
  7 P  2.49881500E+01  0.290958
  7 P  9.21971100E+00  0.732117

  8 P  3.62114000E+00  0.619879
  8 P  1.45131000E+00  0.439148

  9 P  5.04977000E-01  1.000000

 10 P  1.86317000E-01  1.000000

 11 P  6.54320000E-02  1.000000

 12 S  3.31000000E-02  1.000000

 13 P  3.31000000E-02  1.000000

 14 D  1.80000000E+00  1.000000

 15 D  4.50000000E-01  1.000000

 16 D  1.12500000E-01  1.000000

 17 F  3.20000000E-01  1.000000



 Summary of "ao basis" -> "ao basis" (cartesian)
 ------------------------------------------------------------------------------
       Tag                 Description            Shells   Functions and Types
 ---------------- ------------------------------  ------  ---------------------
 Si                    6-311++G(3df,3pd)            17       53   7s6p3d1f




 Summary of "ao basis" -> "ao basis" (cartesian)
 ------------------------------------------------------------------------------
       Tag                 Description            Shells   Functions and Types
 ---------------- ------------------------------  ------  ---------------------
 Si                    6-311++G(3df,3pd)            17       53   7s6p3d1f


  Caching 1-el integrals 

            General Information
            -------------------
          SCF calculation type: DFT
          Wavefunction type:  spin polarized.
          No. of atoms     :     1
          No. of electrons :    14
           Alpha electrons :     8
            Beta electrons :     6
          Charge           :     0
          Spin multiplicity:     3
          Use of symmetry is: off; symmetry adaption is: off
          Maximum number of iterations: ***
          AO basis - number of functions:    53
                     number of shells:    17
          Convergence on energy requested: 1.00D-06
          Convergence on density requested: 1.00D-05
          Convergence on gradient requested: 5.00D-04

              XC Information
              --------------
                  TPSS metaGGA Exchange Functional  1.000          
             TPSS03 metaGGA Correlation Functional  1.000          

             Grid Information
             ----------------
          Grid used for XC integration:  medium    
          Radial quadrature: Mura-Knowles        
          Angular quadrature: Lebedev. 
          Tag              B.-S. Rad. Rad. Pts. Rad. Cut. Ang. Pts.
          ---              ---------- --------- --------- ---------
          Si                  1.10       88           9.0       590
          Grid pruning is: on 
          Number of quadrature shells:    88
          Spatial weights used:  Erf1

          Convergence Information
          -----------------------
          Convergence aids based upon iterative change in 
          total energy or number of iterations. 
          Levelshifting, if invoked, occurs when the 
          HOMO/LUMO gap drops below (HL_TOL): 1.00D-02
          DIIS, if invoked, will attempt to extrapolate 
          using up to (NFOCK): 10 stored Fock matrices.

                    Damping( 0%)  Levelshifting(0.5)       DIIS
                  --------------- ------------------- ---------------
          dE  on:    start            ASAP                start   
          dE off:    2 iters        *** iters           *** iters 


      Screening Tolerance Information
      -------------------------------
          Density screening/tol_rho: 1.00D-10
          AO Gaussian exp screening on grid/accAOfunc:  14
          CD Gaussian exp screening on grid/accCDfunc:  20
          XC Gaussian exp screening on grid/accXCfunc:  20
          Schwarz screening/accCoul: 1.00D-08


      Superposition of Atomic Density Guess
      -------------------------------------

 Sum of atomic energies:        -288.83675415

      Non-variational initial energy
      ------------------------------

 Total energy =    -288.618416
 1-e energy   =    -400.505699
 2-e energy   =     111.887283
 HOMO         =      -0.075219
 LUMO         =      -0.075219

   Time after variat. SCF:      0.2
   Time prior to 1st pass:      0.2

 #quartets = 1.177D+04 #integrals = 1.640D+05 #direct =  0.0% #cached =100.0%


 Integral file          = ./Si.aoints.00
 Record size in doubles =    65536    No. of integs per rec  =    43688
 Max. records in memory =        4    Max. records in file   = 11667380
 No. of bits per label  =        8    No. of bits per value  =       64


File balance: exchanges=     0  moved=     0  time=   0.0


 Grid_pts file          = ./Si.gridpts.00
 Record size in doubles =  12289        No. of grid_pts per rec  =   3070
 Max. records in memory =      3        Max. recs in file   =  62220969


           Memory utilization after 1st SCF pass: 
           Heap Space remaining (MW):       12.81            12805276
          Stack Space remaining (MW):       13.11            13106660

   convergence    iter        energy       DeltaE   RMS-Dens  Diis-err    time
 ---------------- ----- ----------------- --------- --------- ---------  ------
 d= 0,ls=0.0,diis     1   -289.3963057015 -2.89D+02  2.20D-02  1.32D-01     0.5
                                                     1.05D-02  1.18D-01
 d= 0,ls=0.5,diis     2   -289.4146698809 -1.84D-02  9.23D-03  1.02D-02     0.6
                                                     6.11D-03  2.36D-02
 d= 0,ls=0.5,diis     3   -289.4186098152 -3.94D-03  6.16D-03  1.29D-03     0.7
                                                     2.43D-03  3.02D-03
 d= 0,ls=0.5,diis     4   -289.4184764763  1.33D-04  1.53D-03  1.84D-04     0.8
                                                     6.85D-04  4.93D-04
 d= 0,ls=0.5,diis     5   -289.4180789216  3.98D-04  4.28D-04  4.71D-05     1.0
                                                     3.38D-04  1.00D-04
  Resetting Diis
 d= 0,ls=0.5,diis     6   -289.4180157343  6.32D-05  1.99D-04  1.19D-05     1.1
                                                     1.58D-04  2.04D-05
 d= 0,ls=0.5,diis     7   -289.4179632082  5.25D-05  9.01D-05  4.04D-06     1.2
                                                     7.34D-05  4.57D-06
 d= 0,ls=0.5,diis     8   -289.4179230818  4.01D-05  7.46D-05  1.61D-06     1.2
                                                     6.05D-05  1.15D-06
 d= 0,ls=0.5,diis     9   -289.4179376997 -1.46D-05  4.09D-05  6.82D-07     1.3
                                                     1.87D-05  4.02D-07
 d= 0,ls=0.5,diis    10   -289.4179369765  7.23D-07  2.77D-05  2.61D-07     1.4
                                                     1.25D-05  9.65D-08
 d= 0,ls=0.5,diis    11   -289.4179371811 -2.05D-07  2.03D-05  1.14D-07     1.5
                                                     5.18D-06  2.42D-08
 d= 0,ls=0.5,diis    12   -289.4179372979 -1.17D-07  1.39D-05  4.88D-08     1.6
                                                     2.91D-06  5.53D-09
 d= 0,ls=0.5,diis    13   -289.4179379915 -6.94D-07  1.01D-05  2.11D-08     1.7
                                                     9.77D-07  1.39D-09
 d= 0,ls=0.5,diis    14   -289.4179384640 -4.72D-07  7.22D-06  9.34D-09     1.8
                                                     1.23D-06  4.18D-10


         Total DFT energy =     -289.417938926920
      One electron energy =     -400.108914384085
           Coulomb energy =      131.497835962208
          Exchange energy =      -20.285393534449
       Correlation energy =       -0.521466970594
 Nuclear repulsion energy =        0.000000000000

 Numeric. integr. density =       14.000000000685

     Total iterative time =      1.6s



                    DFT Final Alpha Molecular Orbital Analysis
                    ------------------------------------------

 Vector    1  Occ=1.000000D+00  E=-6.578761D+01
              MO Center= -1.8D-17, -7.4D-17, -1.6D-16, r^2= 4.7D-03
   Bfn.  Coefficient  Atom+Function         Bfn.  Coefficient  Atom+Function  
  ----- ------------  ---------------      ----- ------------  ---------------
     2      0.645781  1 Si s                  1      0.417978  1 Si s          

 Vector    2  Occ=1.000000D+00  E=-5.230949D+00
              MO Center=  2.3D-15, -1.1D-14,  2.3D-15, r^2= 1.1D-01
   Bfn.  Coefficient  Atom+Function         Bfn.  Coefficient  Atom+Function  
  ----- ------------  ---------------      ----- ------------  ---------------
     4      0.578667  1 Si s                  3      0.528028  1 Si s          
     2     -0.302449  1 Si s          

 Vector    3  Occ=1.000000D+00  E=-3.613974D+00
              MO Center= -8.6D-15, -1.1D-16, -2.9D-15, r^2= 1.0D-01
   Bfn.  Coefficient  Atom+Function         Bfn.  Coefficient  Atom+Function  
  ----- ------------  ---------------      ----- ------------  ---------------
    10      0.636634  1 Si px                 7      0.370090  1 Si px         
    12      0.268784  1 Si pz                 9      0.156250  1 Si pz         

 Vector    4  Occ=1.000000D+00  E=-3.608580D+00
              MO Center=  3.3D-16,  7.7D-15,  1.1D-15, r^2= 1.0D-01
   Bfn.  Coefficient  Atom+Function         Bfn.  Coefficient  Atom+Function  
  ----- ------------  ---------------      ----- ------------  ---------------
    11      0.679803  1 Si py                 8      0.396449  1 Si py         

 Vector    5  Occ=1.000000D+00  E=-3.608580D+00
              MO Center=  1.5D-15, -5.1D-15,  1.1D-15, r^2= 1.0D-01
   Bfn.  Coefficient  Atom+Function         Bfn.  Coefficient  Atom+Function  
  ----- ------------  ---------------      ----- ------------  ---------------
    12      0.626597  1 Si pz                 9      0.365420  1 Si pz         
    10     -0.263685  1 Si px                 7     -0.153776  1 Si px         

 Vector    6  Occ=1.000000D+00  E=-4.606658D-01
              MO Center=  4.8D-14,  2.2D-14, -1.7D-14, r^2= 1.6D+00
   Bfn.  Coefficient  Atom+Function         Bfn.  Coefficient  Atom+Function  
  ----- ------------  ---------------      ----- ------------  ---------------
     6      0.750198  1 Si s                  5      0.722785  1 Si s          
     4     -0.317489  1 Si s                  3     -0.238674  1 Si s          

 Vector    7  Occ=1.000000D+00  E=-2.119951D-01
              MO Center=  1.4D-14,  1.5D-14,  3.4D-14, r^2= 2.5D+00
   Bfn.  Coefficient  Atom+Function         Bfn.  Coefficient  Atom+Function  
  ----- ------------  ---------------      ----- ------------  ---------------
    18      0.966730  1 Si pz                16     -0.406821  1 Si px         
    21      0.236546  1 Si pz                51     -0.203857  1 Si fyyz       
    53     -0.200399  1 Si fzzz              46     -0.191408  1 Si fxxz       
    17     -0.183091  1 Si py                12     -0.150640  1 Si pz         

 Vector    8  Occ=1.000000D+00  E=-2.119948D-01
              MO Center=  1.8D-14,  2.2D-14,  1.1D-14, r^2= 2.5D+00
   Bfn.  Coefficient  Atom+Function         Bfn.  Coefficient  Atom+Function  
  ----- ------------  ---------------      ----- ------------  ---------------
    17      1.048750  1 Si py                20      0.256757  1 Si py         
    50     -0.221104  1 Si fyyy              52     -0.217356  1 Si fyzz       
    45     -0.200212  1 Si fxxy              18      0.165942  1 Si pz         
    11     -0.163441  1 Si py         

 Vector    9  Occ=0.000000D+00  E=-2.106792D-01
              MO Center=  1.0D-14,  9.7D-14,  9.7D-15, r^2= 2.4D+00
   Bfn.  Coefficient  Atom+Function         Bfn.  Coefficient  Atom+Function  
  ----- ------------  ---------------      ----- ------------  ---------------
    16      0.822093  1 Si px                18      0.347084  1 Si pz         
    19      0.257436  1 Si px         

 Vector   10  Occ=0.000000D+00  E=-5.660743D-03
              MO Center=  5.1D-13,  2.1D-13, -1.4D-13, r^2= 1.1D+01
   Bfn.  Coefficient  Atom+Function         Bfn.  Coefficient  Atom+Function  
  ----- ------------  ---------------      ----- ------------  ---------------
    22      1.801401  1 Si s                  5     -0.552889  1 Si s          
    38     -0.293794  1 Si dxx               43     -0.263024  1 Si dzz        
     6     -0.261164  1 Si s                 41     -0.256350  1 Si dyy        

 Vector   11  Occ=0.000000D+00  E= 3.366168D-02
              MO Center= -1.3D-13,  8.5D-14,  3.0D-13, r^2= 1.5D+01
   Bfn.  Coefficient  Atom+Function         Bfn.  Coefficient  Atom+Function  
  ----- ------------  ---------------      ----- ------------  ---------------
    25      1.646783  1 Si pz                21     -1.153200  1 Si pz         
    18      0.801478  1 Si pz                23     -0.693069  1 Si px         
    19      0.485339  1 Si px                46     -0.382722  1 Si fxxz       
    51     -0.378402  1 Si fyyz              53     -0.379602  1 Si fzzz       
    15     -0.369577  1 Si pz                16     -0.337313  1 Si px         

 Vector   12  Occ=0.000000D+00  E= 3.366221D-02
              MO Center= -2.2D-14, -1.7D-13, -5.4D-14, r^2= 1.5D+01
   Bfn.  Coefficient  Atom+Function         Bfn.  Coefficient  Atom+Function  
  ----- ------------  ---------------      ----- ------------  ---------------
    24      1.786643  1 Si py                20     -1.251099  1 Si py         
    17      0.869665  1 Si py                45     -0.417818  1 Si fxxy       
    50     -0.410571  1 Si fyyy              52     -0.411871  1 Si fyzz       
    14     -0.400954  1 Si py                25      0.278681  1 Si pz         
    21     -0.195146  1 Si pz         

 Vector   13  Occ=0.000000D+00  E= 3.627422D-02
              MO Center= -4.3D-13,  4.7D-14, -1.3D-13, r^2= 1.5D+01
   Bfn.  Coefficient  Atom+Function         Bfn.  Coefficient  Atom+Function  
  ----- ------------  ---------------      ----- ------------  ---------------
    23      1.667505  1 Si px                19     -1.158581  1 Si px         
    16      0.792226  1 Si px                25      0.704049  1 Si pz         
    21     -0.489172  1 Si pz                44     -0.383577  1 Si fxxx       
    49     -0.377777  1 Si fxzz              47     -0.371113  1 Si fxyy       
    13     -0.357614  1 Si px                18      0.334491  1 Si pz         

 Vector   14  Occ=0.000000D+00  E= 7.086179D-02
              MO Center=  3.8D-15,  1.7D-14,  1.9D-14, r^2= 3.9D+00
   Bfn.  Coefficient  Atom+Function         Bfn.  Coefficient  Atom+Function  
  ----- ------------  ---------------      ----- ------------  ---------------
    40      1.084459  1 Si dxz               38     -0.555035  1 Si dxx        
    43      0.556788  1 Si dzz               39     -0.245917  1 Si dxy        
    34      0.190441  1 Si dxz        

 Vector   15  Occ=0.000000D+00  E= 7.086183D-02
              MO Center=  5.3D-14, -5.6D-14,  8.8D-15, r^2= 3.9D+00
   Bfn.  Coefficient  Atom+Function         Bfn.  Coefficient  Atom+Function  
  ----- ------------  ---------------      ----- ------------  ---------------
    39      1.430052  1 Si dxy               42      0.605665  1 Si dyz        
    33      0.251130  1 Si dxy               40      0.175693  1 Si dxz        

 Vector   16  Occ=0.000000D+00  E= 7.361407D-02
              MO Center=  3.9D-15, -5.5D-15,  1.3D-14, r^2= 3.9D+00
   Bfn.  Coefficient  Atom+Function         Bfn.  Coefficient  Atom+Function  
  ----- ------------  ---------------      ----- ------------  ---------------
    41      0.751814  1 Si dyy               43     -0.639245  1 Si dzz        
    40      0.536658  1 Si dxz               42      0.431741  1 Si dyz        
    39     -0.193181  1 Si dxy        

 Vector   17  Occ=0.000000D+00  E= 7.361407D-02
              MO Center=  1.5D-14,  2.7D-14,  9.4D-15, r^2= 3.9D+00
   Bfn.  Coefficient  Atom+Function         Bfn.  Coefficient  Atom+Function  
  ----- ------------  ---------------      ----- ------------  ---------------
    42      1.386506  1 Si dyz               39     -0.581948  1 Si dxy        
    36      0.241237  1 Si dyz               41     -0.236437  1 Si dyy        
    43      0.197076  1 Si dzz               40     -0.176461  1 Si dxz        

 Vector   18  Occ=0.000000D+00  E= 7.487776D-02
              MO Center= -3.1D-14,  3.9D-14, -4.7D-14, r^2= 3.8D+00
   Bfn.  Coefficient  Atom+Function         Bfn.  Coefficient  Atom+Function  
  ----- ------------  ---------------      ----- ------------  ---------------
    40      0.967076  1 Si dxz               38      0.574623  1 Si dxx        
    41     -0.570641  1 Si dyy               43     -0.366523  1 Si dzz        
     6      0.284487  1 Si s                  5     -0.223702  1 Si s          
    34      0.187364  1 Si dxz        

 Vector   19  Occ=0.000000D+00  E= 2.099294D-01
              MO Center=  1.7D-12,  2.3D-12, -1.7D-12, r^2= 9.5D+00
   Bfn.  Coefficient  Atom+Function         Bfn.  Coefficient  Atom+Function  
  ----- ------------  ---------------      ----- ------------  ---------------
     6      2.410287  1 Si s                 22      2.315330  1 Si s          
    38     -1.861741  1 Si dxx               41     -1.843679  1 Si dyy        
    43     -1.846899  1 Si dzz                5     -0.433393  1 Si s          
     4     -0.291169  1 Si s                 32     -0.274879  1 Si dxx        
    37     -0.256892  1 Si dzz               35     -0.252992  1 Si dyy        

 Vector   20  Occ=0.000000D+00  E= 2.248454D-01
              MO Center= -9.5D-13, -5.5D-13,  2.3D-12, r^2= 1.1D+01
   Bfn.  Coefficient  Atom+Function         Bfn.  Coefficient  Atom+Function  
  ----- ------------  ---------------      ----- ------------  ---------------
    18      4.540810  1 Si pz                21     -3.503618  1 Si pz         
    16     -1.910975  1 Si px                25      1.884455  1 Si pz         
    19      1.474477  1 Si px                46     -1.407276  1 Si fxxz       
    51     -1.410865  1 Si fyyz              53     -1.409868  1 Si fzzz       
    17     -0.850320  1 Si py                15     -0.814450  1 Si pz         

 Vector   21  Occ=0.000000D+00  E= 2.248457D-01
              MO Center=  1.5D-13, -2.0D-12, -2.9D-13, r^2= 1.1D+01
   Bfn.  Coefficient  Atom+Function         Bfn.  Coefficient  Atom+Function  
  ----- ------------  ---------------      ----- ------------  ---------------
    17      4.926408  1 Si py                20     -3.801154  1 Si py         
    24      2.044489  1 Si py                45     -1.524644  1 Si fxxy       
    50     -1.530666  1 Si fyyy              52     -1.529586  1 Si fyzz       
    14     -0.883614  1 Si py                18      0.770574  1 Si pz         
    21     -0.594566  1 Si pz                16     -0.361068  1 Si px         

 Vector   22  Occ=0.000000D+00  E= 2.298439D-01
              MO Center= -8.0D-13, -6.5D-14, -3.8D-13, r^2= 1.1D+01
   Bfn.  Coefficient  Atom+Function         Bfn.  Coefficient  Atom+Function  
  ----- ------------  ---------------      ----- ------------  ---------------
    16      4.814981  1 Si px                19     -3.614518  1 Si px         
    18      2.032894  1 Si pz                23      1.931700  1 Si px         
    21     -1.526057  1 Si pz                47     -1.528403  1 Si fxyy       
    49     -1.516994  1 Si fxzz              44     -1.507066  1 Si fxxx       
    13     -0.898834  1 Si px                25      0.815568  1 Si pz         

 Vector   23  Occ=0.000000D+00  E= 6.798503D-01
              MO Center=  1.7D-12,  3.8D-12, -1.8D-12, r^2= 6.6D+00
   Bfn.  Coefficient  Atom+Function         Bfn.  Coefficient  Atom+Function  
  ----- ------------  ---------------      ----- ------------  ---------------
    18     12.775354  1 Si pz                16     -5.375922  1 Si px         
    51     -5.199761  1 Si fyyz              53     -5.186381  1 Si fzzz       
    46     -5.151591  1 Si fxxz              15     -4.134394  1 Si pz         
    21     -3.532277  1 Si pz                17     -2.453635  1 Si py         
    49      2.245432  1 Si fxzz              47      2.187836  1 Si fxyy       


                     DFT Final Beta Molecular Orbital Analysis
                     -----------------------------------------

 Vector    1  Occ=1.000000D+00  E=-6.578134D+01
              MO Center= -2.7D-17, -4.6D-17,  7.9D-17, r^2= 4.7D-03
   Bfn.  Coefficient  Atom+Function         Bfn.  Coefficient  Atom+Function  
  ----- ------------  ---------------      ----- ------------  ---------------
     2      0.645798  1 Si s                  1      0.418000  1 Si s          

 Vector    2  Occ=1.000000D+00  E=-5.225473D+00
              MO Center= -1.2D-15,  9.8D-15,  6.7D-16, r^2= 1.1D-01
   Bfn.  Coefficient  Atom+Function         Bfn.  Coefficient  Atom+Function  
  ----- ------------  ---------------      ----- ------------  ---------------
     4      0.581398  1 Si s                  3      0.526705  1 Si s          
     2     -0.302270  1 Si s          

 Vector    3  Occ=1.000000D+00  E=-3.611246D+00
              MO Center=  8.8D-16, -6.5D-17, -4.1D-17, r^2= 1.0D-01
   Bfn.  Coefficient  Atom+Function         Bfn.  Coefficient  Atom+Function  
  ----- ------------  ---------------      ----- ------------  ---------------
    10      0.636907  1 Si px                 7      0.369895  1 Si px         
    12      0.268899  1 Si pz                 9      0.156168  1 Si pz         

 Vector    4  Occ=1.000000D+00  E=-3.598340D+00
              MO Center=  2.2D-15, -4.5D-15,  1.2D-15, r^2= 1.0D-01
   Bfn.  Coefficient  Atom+Function         Bfn.  Coefficient  Atom+Function  
  ----- ------------  ---------------      ----- ------------  ---------------
    11      0.681137  1 Si py                 8      0.395912  1 Si py         

 Vector    5  Occ=1.000000D+00  E=-3.598340D+00
              MO Center= -2.7D-15, -5.1D-16, -1.2D-15, r^2= 1.0D-01
   Bfn.  Coefficient  Atom+Function         Bfn.  Coefficient  Atom+Function  
  ----- ------------  ---------------      ----- ------------  ---------------
    12      0.627826  1 Si pz                 9      0.364925  1 Si pz         
    10     -0.264203  1 Si px                 7     -0.153568  1 Si px         

 Vector    6  Occ=1.000000D+00  E=-4.111052D-01
              MO Center=  3.8D-14,  1.6D-14,  2.5D-14, r^2= 1.7D+00
   Bfn.  Coefficient  Atom+Function         Bfn.  Coefficient  Atom+Function  
  ----- ------------  ---------------      ----- ------------  ---------------
     6      0.901642  1 Si s                  5      0.681044  1 Si s          
     4     -0.339006  1 Si s                  3     -0.223960  1 Si s          
    35     -0.151504  1 Si dyy        

 Vector    7  Occ=0.000000D+00  E=-2.081218D-01
              MO Center= -1.7D-15,  2.9D-15, -2.7D-16, r^2= 2.4D+00
   Bfn.  Coefficient  Atom+Function         Bfn.  Coefficient  Atom+Function  
  ----- ------------  ---------------      ----- ------------  ---------------
    16      0.897565  1 Si px                18      0.378948  1 Si pz         
    19      0.250373  1 Si px                47     -0.192344  1 Si fxyy       
    49     -0.153285  1 Si fxzz       

 Vector    8  Occ=0.000000D+00  E=-1.668969D-01
              MO Center=  2.7D-15,  4.2D-14,  5.6D-15, r^2= 2.9D+00
   Bfn.  Coefficient  Atom+Function         Bfn.  Coefficient  Atom+Function  
  ----- ------------  ---------------      ----- ------------  ---------------
    18      1.333770  1 Si pz                16     -0.561281  1 Si px         
    51     -0.403158  1 Si fyyz              53     -0.392713  1 Si fzzz       
    46     -0.365550  1 Si fxxz              17     -0.252396  1 Si py         
    21      0.244576  1 Si pz                49      0.214439  1 Si fxzz       
    47      0.169470  1 Si fxyy       

 Vector    9  Occ=0.000000D+00  E=-1.668969D-01
              MO Center=  4.2D-14, -4.2D-15,  2.9D-14, r^2= 2.9D+00
   Bfn.  Coefficient  Atom+Function         Bfn.  Coefficient  Atom+Function  
  ----- ------------  ---------------      ----- ------------  ---------------
    17      1.447027  1 Si py                50     -0.437320  1 Si fyyy       
    52     -0.425999  1 Si fyzz              45     -0.374207  1 Si fxxy       
    20      0.265344  1 Si py                18      0.228768  1 Si pz         

 Vector   10  Occ=0.000000D+00  E= 1.278369D-02
              MO Center=  4.9D-13, -4.7D-14,  1.7D-15, r^2= 9.8D+00
   Bfn.  Coefficient  Atom+Function         Bfn.  Coefficient  Atom+Function  
  ----- ------------  ---------------      ----- ------------  ---------------
    22      1.660890  1 Si s                  5     -0.466503  1 Si s          
     6     -0.351310  1 Si s                 38     -0.324935  1 Si dxx        
    40     -0.186891  1 Si dxz        

 Vector   11  Occ=0.000000D+00  E= 5.064279D-02
              MO Center= -4.0D-13, -7.2D-14, -2.2D-13, r^2= 1.6D+01
   Bfn.  Coefficient  Atom+Function         Bfn.  Coefficient  Atom+Function  
  ----- ------------  ---------------      ----- ------------  ---------------
    23      1.684896  1 Si px                19     -1.197843  1 Si px         
    16      0.917275  1 Si px                25      0.711355  1 Si pz         
    21     -0.505724  1 Si pz                44     -0.441744  1 Si fxxx       
    49     -0.425942  1 Si fxzz              47     -0.407785  1 Si fxyy       
    13     -0.388112  1 Si px                18      0.387269  1 Si pz         

 Vector   12  Occ=0.000000D+00  E= 6.180832D-02
              MO Center= -5.8D-15,  2.5D-13, -3.7D-14, r^2= 1.6D+01
   Bfn.  Coefficient  Atom+Function         Bfn.  Coefficient  Atom+Function  
  ----- ------------  ---------------      ----- ------------  ---------------
    24      1.891812  1 Si py                20     -1.470666  1 Si py         
    17      1.057442  1 Si py                45     -0.504428  1 Si fxxy       
    52     -0.475121  1 Si fyzz              50     -0.468715  1 Si fyyy       
    14     -0.438936  1 Si py                25      0.298787  1 Si pz         
    21     -0.232273  1 Si pz                18      0.167009  1 Si pz         

 Vector   13  Occ=0.000000D+00  E= 6.180838D-02
              MO Center= -9.1D-14, -1.6D-13,  2.3D-13, r^2= 1.6D+01
   Bfn.  Coefficient  Atom+Function         Bfn.  Coefficient  Atom+Function  
  ----- ------------  ---------------      ----- ------------  ---------------
    25      1.743744  1 Si pz                21     -1.355561  1 Si pz         
    18      0.974680  1 Si pz                23     -0.733810  1 Si px         
    19      0.570453  1 Si px                46     -0.453273  1 Si fxxz       
    53     -0.437902  1 Si fzzz              51     -0.431992  1 Si fyyz       
    16     -0.410169  1 Si px                15     -0.404581  1 Si pz         

 Vector   14  Occ=0.000000D+00  E= 7.259706D-02
              MO Center=  6.9D-15, -1.6D-13, -1.5D-13, r^2= 4.5D+00
   Bfn.  Coefficient  Atom+Function         Bfn.  Coefficient  Atom+Function  
  ----- ------------  ---------------      ----- ------------  ---------------
    40      0.962643  1 Si dxz               41     -0.719390  1 Si dyy        
    22      0.628868  1 Si s                 43     -0.516244  1 Si dzz        
    38      0.420589  1 Si dxx                5     -0.412813  1 Si s          
     6      0.224913  1 Si s          

 Vector   15  Occ=0.000000D+00  E= 7.755298D-02
              MO Center= -2.2D-14,  4.9D-14,  7.5D-15, r^2= 4.0D+00
   Bfn.  Coefficient  Atom+Function         Bfn.  Coefficient  Atom+Function  
  ----- ------------  ---------------      ----- ------------  ---------------
    39      1.461850  1 Si dxy               42      0.619204  1 Si dyz        
    33      0.194692  1 Si dxy               40      0.186470  1 Si dxz        

 Vector   16  Occ=0.000000D+00  E= 7.755313D-02
              MO Center= -2.7D-14,  1.4D-14,  1.4D-14, r^2= 4.0D+00
   Bfn.  Coefficient  Atom+Function         Bfn.  Coefficient  Atom+Function  
  ----- ------------  ---------------      ----- ------------  ---------------
    40      1.108639  1 Si dxz               38     -0.567330  1 Si dxx        
    43      0.569188  1 Si dzz               39     -0.260459  1 Si dxy        

 Vector   17  Occ=0.000000D+00  E= 8.169275D-02
              MO Center= -3.2D-14,  3.0D-14,  6.7D-14, r^2= 4.1D+00
   Bfn.  Coefficient  Atom+Function         Bfn.  Coefficient  Atom+Function  
  ----- ------------  ---------------      ----- ------------  ---------------
    41      0.772000  1 Si dyy               43     -0.656661  1 Si dzz        
    40      0.550489  1 Si dxz               42      0.550492  1 Si dyz        
    39     -0.243610  1 Si dxy        

 Vector   18  Occ=0.000000D+00  E= 8.169275D-02
              MO Center= -1.8D-14,  4.7D-14,  2.8D-14, r^2= 4.1D+00
   Bfn.  Coefficient  Atom+Function         Bfn.  Coefficient  Atom+Function  
  ----- ------------  ---------------      ----- ------------  ---------------
    42      1.424005  1 Si dyz               39     -0.596844  1 Si dxy        
    41     -0.300943  1 Si dyy               43      0.251729  1 Si dzz        
    40     -0.222882  1 Si dxz        

 Vector   19  Occ=0.000000D+00  E= 2.205629D-01
              MO Center=  1.6D-12, -6.5D-13, -3.2D-13, r^2= 9.5D+00
   Bfn.  Coefficient  Atom+Function         Bfn.  Coefficient  Atom+Function  
  ----- ------------  ---------------      ----- ------------  ---------------
    22      2.325103  1 Si s                  6      2.288138  1 Si s          
    38     -1.895050  1 Si dxx               43     -1.772329  1 Si dzz        
    41     -1.745717  1 Si dyy                5     -0.441478  1 Si s          
     4     -0.303033  1 Si s                 32     -0.233217  1 Si dxx        
    37     -0.225207  1 Si dzz               35     -0.223468  1 Si dyy        

 Vector   20  Occ=0.000000D+00  E= 2.392543D-01
              MO Center= -1.2D-12,  1.9D-14, -4.9D-13, r^2= 1.1D+01
   Bfn.  Coefficient  Atom+Function         Bfn.  Coefficient  Atom+Function  
  ----- ------------  ---------------      ----- ------------  ---------------
    16      4.653086  1 Si px                19     -3.566960  1 Si px         
    18      1.964511  1 Si pz                23      1.909516  1 Si px         
    21     -1.505954  1 Si pz                47     -1.489959  1 Si fxyy       
    49     -1.453026  1 Si fxzz              44     -1.420883  1 Si fxxx       
    13     -0.851214  1 Si px                25      0.806189  1 Si pz         

 Vector   21  Occ=0.000000D+00  E= 2.529661D-01
              MO Center= -1.6D-14,  7.8D-13,  1.4D-13, r^2= 1.0D+01
   Bfn.  Coefficient  Atom+Function         Bfn.  Coefficient  Atom+Function  
  ----- ------------  ---------------      ----- ------------  ---------------
    17      4.975298  1 Si py                20     -3.710975  1 Si py         
    24      1.947866  1 Si py                50     -1.544694  1 Si fyyy       
    52     -1.530834  1 Si fyzz              45     -1.467423  1 Si fxxy       
    14     -0.872780  1 Si py                18      0.786551  1 Si pz         
    21     -0.586673  1 Si pz                16     -0.368151  1 Si px         

 Vector   22  Occ=0.000000D+00  E= 2.529666D-01
              MO Center= -2.6D-13, -1.2D-13,  7.5D-13, r^2= 1.0D+01
   Bfn.  Coefficient  Atom+Function         Bfn.  Coefficient  Atom+Function  
  ----- ------------  ---------------      ----- ------------  ---------------
    18      4.585901  1 Si pz                21     -3.420527  1 Si pz         
    16     -1.929854  1 Si px                25      1.795410  1 Si pz         
    19      1.439437  1 Si px                51     -1.423881  1 Si fyyz       
    53     -1.411092  1 Si fzzz              46     -1.377835  1 Si fxxz       
    17     -0.867792  1 Si py                15     -0.804473  1 Si pz         

 Vector   23  Occ=0.000000D+00  E= 6.841350D-01
              MO Center=  1.1D-13,  2.2D-13, -3.9D-15, r^2= 6.5D+00
   Bfn.  Coefficient  Atom+Function         Bfn.  Coefficient  Atom+Function  
  ----- ------------  ---------------      ----- ------------  ---------------
    17     13.842580  1 Si py                45     -5.755377  1 Si fxxy       
    52     -5.622563  1 Si fyzz              50     -5.593541  1 Si fyyy       
    14     -4.491055  1 Si py                20     -3.846628  1 Si py         
    18      2.146232  1 Si pz                24      1.421211  1 Si py         
    16     -1.006490  1 Si px                46     -0.882425  1 Si fxxz       


   alpha - beta orbital overlaps 
   ----------------------------- 


   alpha      1      2      3      4      5      6      7      8      9     10
    beta      1      2      3      4      5      6      8      9      7     10
 overlap   1.000  1.000  1.000  1.000  1.000  0.997  0.994  0.994  1.000  0.984


   alpha     11     12     13     14     15     16     17     18     19     20
    beta     13     12     11     16     15     17     18     14     19     22
 overlap   0.996  0.996  1.000  0.999  0.999  0.995  0.995  0.979  0.994  0.995


   alpha     21     22     23     24     25     26     27     28     29     30
    beta     21     20     24     23     29     30     26     28     27     25
 overlap   0.995  1.000  0.994  0.994  0.994  0.994  0.998  0.999  0.999  0.996


   alpha     31     32     33     34     35     36     37     38     39     40
    beta     31     32     33     34     36     35     37     38     39     41
 overlap   1.000  0.996  0.995  0.995  0.985  0.985  0.998  0.998  1.000  1.000


   alpha     41     42     43     44     45     46     47     48     49     50
    beta     40     42     43     44     45     47     46     48     49     50
 overlap   1.000  1.000  1.000  1.000  1.000  0.993  0.993  1.000  1.000  1.000


   alpha     51     52     53
    beta     51     52     53
 overlap   1.000  1.000  1.000

     --------------------------
     Expectation value of S2:  
     --------------------------
      <S2> =      2.0068 (Exact =     2.0000)


 Parallel integral file used      16 records with       0 large values


 Task  times  cpu:        1.7s     wall:        2.5s


                                NWChem Input Module
                                -------------------


 Summary of allocated global arrays
-----------------------------------
  No active global arrays



                         GA Statistics for process    0
                         ------------------------------

       create   destroy   get      put      acc     scatter   gather  read&inc
calls:  385      385     1418     1026      398        0        0       59     
number of processes/call 1.75e+00 1.54e+00 3.27e+00 0.00e+00 0.00e+00
bytes total:             2.19e+07 8.44e+06 8.94e+06 0.00e+00 0.00e+00 4.72e+02
bytes remote:            1.64e+06 6.81e+05 1.51e+06 0.00e+00 0.00e+00 0.00e+00
Max memory consumed for GA by this process: 1415736 bytes

MA_summarize_allocated_blocks: starting scan ...
MA_summarize_allocated_blocks: scan completed: 0 heap blocks, 0 stack blocks
MA usage statistics:

	allocation statistics:
					      heap	     stack
					      ----	     -----
	current number of blocks	         0	         0
	maximum number of blocks	        23	        51
	current total bytes		         0	         0
	maximum total bytes		   2415384	  22513064
	maximum total K-bytes		      2416	     22514
	maximum total M-bytes		         3	        23


                                     CITATION
                                     --------
                Please cite the following reference when publishing
                           results obtained with NWChem:

                 M. Valiev, E.J. Bylaska, N. Govind, K. Kowalski,
              T.P. Straatsma, H.J.J. van Dam, D. Wang, J. Nieplocha,
                        E. Apra, T.L. Windus, W.A. de Jong
                 "NWChem: a comprehensive and scalable open-source
                  solution for large scale molecular simulations"
                      Comput. Phys. Commun. 181, 1477 (2010)
                           doi:10.1016/j.cpc.2010.04.018

                                      AUTHORS
                                      -------
          E. Apra, E. J. Bylaska, W. A. de Jong, N. Govind, K. Kowalski,
       T. P. Straatsma, M. Valiev, H. J. J. van Dam, D. Wang, T. L. Windus,
        J. Hammond, J. Autschbach, K. Bhaskaran-Nair, J. Brabec, K. Lopata,
       S. A. Fischer, S. Krishnamoorthy, W. Ma, M. Klemm, O. Villa, Y. Chen,
    V. Anisimov, F. Aquino, S. Hirata, M. T. Hackler, T. Risthaus, M. Malagoli,
       A. Marenich, A. Otero-de-la-Roza, J. Mullin, P. Nichols, R. Peverati,
     J. Pittner, Y. Zhao, P.-D. Fan, A. Fonari, M. Williamson, R. J. Harrison,
       J. R. Rehr, M. Dupuis, D. Silverstein, D. M. A. Smith, J. Nieplocha,
        V. Tipparaju, M. Krishnan, B. E. Van Kuiken, A. Vazquez-Mayagoitia,
        L. Jensen, M. Swart, Q. Wu, T. Van Voorhis, A. A. Auer, M. Nooijen,
      L. D. Crosby, E. Brown, G. Cisneros, G. I. Fann, H. Fruchtl, J. Garza,
        K. Hirao, R. A. Kendall, J. A. Nichols, K. Tsemekhman, K. Wolinski,
     J. Anchell, D. E. Bernholdt, P. Borowski, T. Clark, D. Clerc, H. Dachsel,
   M. J. O. Deegan, K. Dyall, D. Elwood, E. Glendening, M. Gutowski, A. C. Hess,
         J. Jaffe, B. G. Johnson, J. Ju, R. Kobayashi, R. Kutteh, Z. Lin,
   R. Littlefield, X. Long, B. Meng, T. Nakajima, S. Niu, L. Pollack, M. Rosing,
   K. Glaesemann, G. Sandrone, M. Stave, H. Taylor, G. Thomas, J. H. van Lenthe,
                               A. T. Wong, Z. Zhang.

 Total times  cpu:        1.7s     wall:        2.7s
