[1537857085.929442] [r8n4:10464:0]         sys.c:744  MXM  WARN  Conflicting CPU frequencies detected, using: 2095.70
[1537857085.939154] [r8n4:10467:0]         sys.c:744  MXM  WARN  Conflicting CPU frequencies detected, using: 2095.70
[1537857085.939713] [r8n4:10472:0]         sys.c:744  MXM  WARN  Conflicting CPU frequencies detected, using: 2095.70
[1537857085.940105] [r8n4:10469:0]         sys.c:744  MXM  WARN  Conflicting CPU frequencies detected, using: 2095.70
[1537857085.940223] [r8n4:10466:0]         sys.c:744  MXM  WARN  Conflicting CPU frequencies detected, using: 2095.70
[1537857085.940308] [r8n4:10470:0]         sys.c:744  MXM  WARN  Conflicting CPU frequencies detected, using: 2095.70
[1537857085.940623] [r8n4:10468:0]         sys.c:744  MXM  WARN  Conflicting CPU frequencies detected, using: 2095.70
[1537857085.940791] [r8n4:10465:0]         sys.c:744  MXM  WARN  Conflicting CPU frequencies detected, using: 2095.70
[1537857085.946416] [r8n4:10474:0]         sys.c:744  MXM  WARN  Conflicting CPU frequencies detected, using: 2095.70
[1537857085.946575] [r8n4:10476:0]         sys.c:744  MXM  WARN  Conflicting CPU frequencies detected, using: 2095.70
[1537857085.991660] [r8n4:10488:0]         sys.c:744  MXM  WARN  Conflicting CPU frequencies detected, using: 2194.88
[1537857085.991749] [r8n4:10480:0]         sys.c:744  MXM  WARN  Conflicting CPU frequencies detected, using: 2194.88
[1537857085.992387] [r8n4:10478:0]         sys.c:744  MXM  WARN  Conflicting CPU frequencies detected, using: 2194.88
[1537857085.993487] [r8n4:10484:0]         sys.c:744  MXM  WARN  Conflicting CPU frequencies detected, using: 2293.44
[1537857085.993560] [r8n4:10482:0]         sys.c:744  MXM  WARN  Conflicting CPU frequencies detected, using: 2293.44
[1537857085.993855] [r8n4:10486:0]         sys.c:744  MXM  WARN  Conflicting CPU frequencies detected, using: 2293.44
 argument  1 = /storage/home/bikashp/nwchem_run/rabeet/mgbl19/nwmgbl19/C2H2.xyz.nw
                                         
                                         


              Northwest Computational Chemistry Package (NWChem) 6.6
              ------------------------------------------------------


                    Environmental Molecular Sciences Laboratory
                       Pacific Northwest National Laboratory
                                Richland, WA 99352

                              Copyright (c) 1994-2015
                       Pacific Northwest National Laboratory
                            Battelle Memorial Institute

             NWChem is an open-source computational chemistry package
                        distributed under the terms of the
                      Educational Community License (ECL) 2.0
             A copy of the license is included with this distribution
                              in the LICENSE.TXT file

                                  ACKNOWLEDGMENT
                                  --------------

            This software and its documentation were developed at the
            EMSL at Pacific Northwest National Laboratory, a multiprogram
            national laboratory, operated for the U.S. Department of Energy
            by Battelle under Contract Number DE-AC05-76RL01830. Support
            for this work was provided by the Department of Energy Office
            of Biological and Environmental Research, Office of Basic
            Energy Sciences, and the Office of Advanced Scientific Computing.


           Job information
           ---------------

    hostname        = r8n4.niserhpc.org
    program         = /home/bikashp/Code/nwchem-6.6_tpssloc/bin/LINUX64/nwchem
    date            = Tue Sep 25 12:01:28 2018

    compiled        = Tue_Sep_18_16:24:59_2018
    source          = /home/bikashp/Code/nwchem-6.6_tpssloc
    nwchem branch   = 6.6
    nwchem revision = 27746
    ga revision     = 10594
    input           = /storage/home/bikashp/nwchem_run/rabeet/mgbl19/nwmgbl19/C2H2.xyz.nw
    prefix          = C2H2.xyz.
    data base       = ./C2H2.xyz.db
    status          = startup
    nproc           =       16
    time left       =     -1s



           Memory information
           ------------------

    heap     =   13107196 doubles =    100.0 Mbytes
    stack    =   13107201 doubles =    100.0 Mbytes
    global   =   26214400 doubles =    200.0 Mbytes (distinct from heap & stack)
    total    =   52428797 doubles =    400.0 Mbytes
    verify   = yes
    hardfail = no 


           Directory information
           ---------------------

  0 permanent = .
  0 scratch   = .




                                NWChem Input Module
                                -------------------



 Scaling coordinates for geometry "geometry" by  1.889725989
 (inverse scale =  0.529177249)



                             Geometry "geometry" -> ""
                             -------------------------

 Output coordinates in angstroms (scale by  1.889725989 to convert to a.u.)

  No.       Tag          Charge          X              Y              Z
 ---- ---------------- ---------- -------------- -------------- --------------
    1 C                    6.0000     0.00000000     0.00000000     0.60808000
    2 C                    6.0000     0.00000000     0.00000000    -0.60808000
    3 H                    1.0000     0.00000000     0.00000000    -1.67399000
    4 H                    1.0000     0.00000000     0.00000000     1.67399000

      Atomic Mass 
      ----------- 

      C                 12.000000
      H                  1.007825


 Effective nuclear repulsion energy (a.u.)      24.5625165013

            Nuclear Dipole moment (a.u.) 
            ----------------------------
        X                 Y               Z
 ---------------- ---------------- ----------------
     0.0000000000     0.0000000000     0.0000000000


            XYZ format geometry
            -------------------
     4
 geometry
 C                     0.00000000     0.00000000     0.60808000
 C                     0.00000000     0.00000000    -0.60808000
 H                     0.00000000     0.00000000    -1.67399000
 H                     0.00000000     0.00000000     1.67399000

 ==============================================================================
                                internuclear distances
 ------------------------------------------------------------------------------
       center one      |      center two      | atomic units |  angstroms
 ------------------------------------------------------------------------------
    2 C                |   1 C                |     2.29821  |     1.21616
    3 H                |   2 C                |     2.01428  |     1.06591
    4 H                |   1 C                |     2.01428  |     1.06591
 ------------------------------------------------------------------------------
                         number of included internuclear distances:          3
 ==============================================================================



 ==============================================================================
                                 internuclear angles
 ------------------------------------------------------------------------------
        center 1       |       center 2       |       center 3       |  degrees
 ------------------------------------------------------------------------------
    2 C                |   1 C                |   4 H                |   180.00
    1 C                |   2 C                |   3 H                |   180.00
 ------------------------------------------------------------------------------
                            number of included internuclear angles:          2
 ==============================================================================





 Summary of "ao basis" -> "" (cartesian)
 ------------------------------------------------------------------------------
       Tag                 Description            Shells   Functions and Types
 ---------------- ------------------------------  ------  ---------------------
 *                     6-311++G(3df,3pd)              on all atoms 




                           NWChem Geometry Optimization
                           ----------------------------



                                 NWChem DFT Module
                                 -----------------


                      Basis "ao basis" -> "ao basis" (cartesian)
                      -----
  C (Carbon)
  ----------
            Exponent  Coefficients 
       -------------- ---------------------------------------------------------
  1 S  4.56324000E+03  0.001967
  1 S  6.82024000E+02  0.015231
  1 S  1.54973000E+02  0.076127
  1 S  4.44553000E+01  0.260801
  1 S  1.30290000E+01  0.616462
  1 S  1.82773000E+00  0.221006

  2 S  2.09642000E+01  0.114660
  2 S  4.80331000E+00  0.919999
  2 S  1.45933000E+00 -0.003031

  3 P  2.09642000E+01  0.040249
  3 P  4.80331000E+00  0.237594
  3 P  1.45933000E+00  0.815854

  4 S  4.83456000E-01  1.000000

  5 P  4.83456000E-01  1.000000

  6 S  1.45585000E-01  1.000000

  7 P  1.45585000E-01  1.000000

  8 S  4.38000000E-02  1.000000

  9 P  4.38000000E-02  1.000000

 10 D  2.50400000E+00  1.000000

 11 D  6.26000000E-01  1.000000

 12 D  1.56500000E-01  1.000000

 13 F  8.00000000E-01  1.000000

  H (Hydrogen)
  ------------
            Exponent  Coefficients 
       -------------- ---------------------------------------------------------
  1 S  3.38650000E+01  0.025494
  1 S  5.09479000E+00  0.190373
  1 S  1.15879000E+00  0.852161

  2 S  3.25840000E-01  1.000000

  3 S  1.02741000E-01  1.000000

  4 S  3.60000000E-02  1.000000

  5 P  3.00000000E+00  1.000000

  6 P  7.50000000E-01  1.000000

  7 P  1.87500000E-01  1.000000

  8 D  1.00000000E+00  1.000000



 Summary of "ao basis" -> "ao basis" (cartesian)
 ------------------------------------------------------------------------------
       Tag                 Description            Shells   Functions and Types
 ---------------- ------------------------------  ------  ---------------------
 C                     6-311++G(3df,3pd)            13       45   5s4p3d1f
 H                     6-311++G(3df,3pd)             8       19   4s3p1d




 Summary of "ao basis" -> "ao basis" (cartesian)
 ------------------------------------------------------------------------------
       Tag                 Description            Shells   Functions and Types
 ---------------- ------------------------------  ------  ---------------------
 C                     6-311++G(3df,3pd)            13       45   5s4p3d1f
 H                     6-311++G(3df,3pd)             8       19   4s3p1d


  Caching 1-el integrals 

            General Information
            -------------------
          SCF calculation type: DFT
          Wavefunction type:  closed shell.
          No. of atoms     :     4
          No. of electrons :    14
           Alpha electrons :     7
            Beta electrons :     7
          Charge           :     0
          Spin multiplicity:     1
          Use of symmetry is: off; symmetry adaption is: off
          Maximum number of iterations: ***
          AO basis - number of functions:   128
                     number of shells:    42
          Convergence on energy requested: 1.00D-06
          Convergence on density requested: 1.00D-05
          Convergence on gradient requested: 5.00D-04

              XC Information
              --------------
                  TPSS metaGGA Exchange Functional  1.000          
             TPSS03 metaGGA Correlation Functional  1.000          

             Grid Information
             ----------------
          Grid used for XC integration:  medium    
          Radial quadrature: Mura-Knowles        
          Angular quadrature: Lebedev. 
          Tag              B.-S. Rad. Rad. Pts. Rad. Cut. Ang. Pts.
          ---              ---------- --------- --------- ---------
          C                   0.70       49          12.0       434
          H                   0.35       45          13.0       434
          Grid pruning is: on 
          Number of quadrature shells:   188
          Spatial weights used:  Erf1

          Convergence Information
          -----------------------
          Convergence aids based upon iterative change in 
          total energy or number of iterations. 
          Levelshifting, if invoked, occurs when the 
          HOMO/LUMO gap drops below (HL_TOL): 1.00D-02
          DIIS, if invoked, will attempt to extrapolate 
          using up to (NFOCK): 10 stored Fock matrices.

                    Damping( 0%)  Levelshifting(0.5)       DIIS
                  --------------- ------------------- ---------------
          dE  on:    start            ASAP                start   
          dE off:    2 iters        *** iters           *** iters 


      Screening Tolerance Information
      -------------------------------
          Density screening/tol_rho: 1.00D-10
          AO Gaussian exp screening on grid/accAOfunc:  14
          CD Gaussian exp screening on grid/accCDfunc:  20
          XC Gaussian exp screening on grid/accXCfunc:  20
          Schwarz screening/accCoul: 1.00D-08


 WARNING : Found     2 linear dependencies 
 S eigenvalue threshold:     1.00000E-05
 Smallest S eigenvalue :     3.09192E-07
 Largest  S eigenvalue :     6.64010E-06


 !! The overlap matrix has   2 vectors deemed linearly dependent with
    eigenvalues:
 3.09D-07 6.64D-06


      Superposition of Atomic Density Guess
      -------------------------------------

 Sum of atomic energies:         -76.33787208

      Non-variational initial energy
      ------------------------------

 Total energy =     -77.140647
 1-e energy   =    -149.574931
 2-e energy   =      47.871767
 HOMO         =      -0.363081
 LUMO         =       0.037584

   Time after variat. SCF:      0.7
   Time prior to 1st pass:      0.7

 Integral file          = ./C2H2.xyz.aoints.00
 Record size in doubles =    65536    No. of integs per rec  =    43688
 Max. records in memory =       68    Max. records in file   = 11666428
 No. of bits per label  =        8    No. of bits per value  =       64


 #quartets = 3.966D+05 #integrals = 8.856D+06 #direct =  0.0% #cached =100.0%


File balance: exchanges=     8  moved=     8  time=   0.0


 Grid_pts file          = ./C2H2.xyz.gridpts.00
 Record size in doubles =  12289        No. of grid_pts per rec  =   3070
 Max. records in memory =      3        Max. recs in file   =  62215893

 Grid integrated density:      13.992200364737
 Requested integration accuracy:   0.10E-05

           Memory utilization after 1st SCF pass: 
           Heap Space remaining (MW):        8.61             8610108
          Stack Space remaining (MW):       13.11            13106420

   convergence    iter        energy       DeltaE   RMS-Dens  Diis-err    time
 ---------------- ----- ----------------- --------- --------- ---------  ------
 d= 0,ls=0.0,diis     1    -77.2768745802 -1.02D+02  3.90D+01  5.71D-01     1.2
 Grid integrated density:      14.000025065426
 Requested integration accuracy:   0.10E-05
 d= 0,ls=0.5,diis     2    -73.5136801560  3.76D+00  3.36D-01  6.16D+01     1.4
 Grid integrated density:      14.000025135169
 Requested integration accuracy:   0.10E-05
 d= 0,ls=0.5,diis     3    -73.6049801553 -9.13D-02  5.97D-01  5.95D+01     1.6
 Grid integrated density:      14.000025187054
 Requested integration accuracy:   0.10E-05
 d= 0,ls=0.5,diis     4    -73.7445537991 -1.40D-01  9.07D-02  5.64D+01     1.8
 Grid integrated density:      14.000025153743
 Requested integration accuracy:   0.10E-05
 d= 0,ls=0.5,diis     5    -73.7342781673  1.03D-02  6.79D-01  5.71D+01     1.9
 Grid integrated density:      14.000023770714
 Requested integration accuracy:   0.10E-05
 d= 0,ls=0.5,diis     6    -73.9240123205 -1.90D-01  1.21D+00  5.30D+01     2.1
 Grid integrated density:      14.000023781928
 Requested integration accuracy:   0.10E-05
 d= 0,ls=0.5,diis     7    -74.1831144400 -2.59D-01  2.31D+00  4.73D+01     2.3
 Grid integrated density:      14.000023402608
 Requested integration accuracy:   0.10E-05
 d= 0,ls=0.5,diis     8    -74.5696840816 -3.87D-01  2.75D+00  3.83D+01     2.5
 Grid integrated density:      14.000022384724
 Requested integration accuracy:   0.10E-05
 d= 0,ls=0.5,diis     9    -74.8996403924 -3.30D-01  2.59D+00  3.14D+01     2.7
 Grid integrated density:      14.000021052899
 Requested integration accuracy:   0.10E-05
 d= 0,ls=0.5,diis    10    -75.1157258313 -2.16D-01  2.81D+00  2.72D+01     2.9
 Grid integrated density:      14.000019418082
 Requested integration accuracy:   0.10E-05
 d= 0,ls=0.5,diis    11    -75.3192540207 -2.04D-01  2.88D+01  2.31D+01     3.1
 d= 0,ls=0.5,diis    12    -77.1934234658 -1.87D+00  4.71D-03  1.40D+00     3.3
 d= 0,ls=0.5,diis    13    -77.3119142782 -1.18D-01  3.41D-03  3.96D-01     3.5
  Resetting Diis
 d= 0,ls=0.5,diis    14    -77.3505086014 -3.86D-02  1.61D-03  5.18D-02     3.7
 d= 0,ls=0.5,diis    15    -77.3509512669 -4.43D-04  5.39D-04  7.78D-03     3.9
 d= 0,ls=0.5,diis    16    -77.3479232429  3.03D-03  3.10D-04  2.77D-03     4.1
 d= 0,ls=0.5,diis    17    -77.3483190338 -3.96D-04  1.89D-04  5.02D-04     4.3
 d= 0,ls=0.5,diis    18    -77.3487264657 -4.07D-04  5.11D-05  1.07D-04     4.5
 d= 0,ls=0.5,diis    19    -77.3487822051 -5.57D-05  2.47D-05  1.23D-05     4.8
 d= 0,ls=0.5,diis    20    -77.3488080676 -2.59D-05  1.31D-05  3.94D-06     5.0
 d= 0,ls=0.5,diis    21    -77.3488096347 -1.57D-06  6.15D-06  1.30D-06     5.2
 d= 0,ls=0.5,diis    22    -77.3488077601  1.87D-06  3.13D-06  3.75D-07     5.4
 d= 0,ls=0.5,diis    23    -77.3488057655  1.99D-06  1.72D-06  1.22D-07     5.6
 d= 0,ls=0.5,diis    24    -77.3488036748  2.09D-06  9.27D-07  3.95D-08     5.8
 d= 0,ls=0.5,diis    25    -77.3488021152  1.56D-06  5.11D-07  1.32D-08     6.0
 d= 0,ls=0.5,diis    26    -77.3488012385  8.77D-07  2.83D-07  4.80D-09     6.2


         Total DFT energy =      -77.348800604031
      One electron energy =     -150.998280723754
           Coulomb energy =       60.493857256083
          Exchange energy =      -10.980091570755
       Correlation energy =       -0.426802066937
 Nuclear repulsion energy =       24.562516501333

 Numeric. integr. density =       14.000000645786

     Total iterative time =      5.6s



                       DFT Final Molecular Orbital Analysis
                       ------------------------------------

 Vector    1  Occ=2.000000D+00  E=-1.008092D+01
              MO Center=  6.9D-16,  1.5D-16,  1.7D-06, r^2= 4.0D-01
   Bfn.  Coefficient  Atom+Function         Bfn.  Coefficient  Atom+Function  
  ----- ------------  ---------------      ----- ------------  ---------------
     1      0.397302  1 C  s                 46      0.397301  2 C  s          
     2      0.329191  1 C  s                 47      0.329191  2 C  s          

 Vector    2  Occ=2.000000D+00  E=-1.007902D+01
              MO Center=  7.5D-16,  1.2D-16, -1.7D-06, r^2= 4.0D-01
   Bfn.  Coefficient  Atom+Function         Bfn.  Coefficient  Atom+Function  
  ----- ------------  ---------------      ----- ------------  ---------------
     1      0.397479  1 C  s                 46     -0.397480  2 C  s          
     2      0.329406  1 C  s                 47     -0.329407  2 C  s          

 Vector    3  Occ=2.000000D+00  E=-7.565321D-01
              MO Center= -1.7D-14, -2.3D-14,  2.8D-07, r^2= 9.0D-01
   Bfn.  Coefficient  Atom+Function         Bfn.  Coefficient  Atom+Function  
  ----- ------------  ---------------      ----- ------------  ---------------
    10      0.324745  1 C  s                 55      0.324745  2 C  s          
     6      0.312922  1 C  s                 51      0.312922  2 C  s          
     2     -0.152463  1 C  s                 47     -0.152463  2 C  s          

 Vector    4  Occ=2.000000D+00  E=-5.851273D-01
              MO Center= -3.4D-15, -4.1D-15,  5.6D-07, r^2= 2.2D+00
   Bfn.  Coefficient  Atom+Function         Bfn.  Coefficient  Atom+Function  
  ----- ------------  ---------------      ----- ------------  ---------------
     6      0.196760  1 C  s                 51     -0.196760  2 C  s          
    13      0.194073  1 C  pz                58      0.194073  2 C  pz         
    92     -0.160546  3 H  s                111      0.160546  4 H  s          

 Vector    5  Occ=2.000000D+00  E=-5.097175D-01
              MO Center= -2.0D-15, -1.1D-15, -1.7D-06, r^2= 2.0D+00
   Bfn.  Coefficient  Atom+Function         Bfn.  Coefficient  Atom+Function  
  ----- ------------  ---------------      ----- ------------  ---------------
    92      0.247349  3 H  s                111      0.247348  4 H  s          
     9      0.219047  1 C  pz                54     -0.219047  2 C  pz         
     5      0.191574  1 C  pz                50     -0.191574  2 C  pz         
    13      0.150266  1 C  pz                58     -0.150266  2 C  pz         
    93      0.150669  3 H  s                112      0.150668  4 H  s          

 Vector    6  Occ=2.000000D+00  E=-3.362251D-01
              MO Center= -2.8D-15,  8.5D-15, -6.4D-07, r^2= 1.4D+00
   Bfn.  Coefficient  Atom+Function         Bfn.  Coefficient  Atom+Function  
  ----- ------------  ---------------      ----- ------------  ---------------
     8      0.264567  1 C  py                53      0.264567  2 C  py         
    12      0.240465  1 C  py                57      0.240465  2 C  py         
     4      0.188018  1 C  py                49      0.188018  2 C  py         

 Vector    7  Occ=2.000000D+00  E=-3.362251D-01
              MO Center=  1.7D-14, -3.3D-15, -7.8D-07, r^2= 1.4D+00
   Bfn.  Coefficient  Atom+Function         Bfn.  Coefficient  Atom+Function  
  ----- ------------  ---------------      ----- ------------  ---------------
     7      0.264568  1 C  px                52      0.264568  2 C  px         
    11      0.240469  1 C  px                56      0.240469  2 C  px         
     3      0.188019  1 C  px                48      0.188019  2 C  px         

 Vector    8  Occ=0.000000D+00  E=-8.191114D-02
              MO Center= -1.5D-14, -3.0D-14,  5.1D-07, r^2= 2.6D+00
   Bfn.  Coefficient  Atom+Function         Bfn.  Coefficient  Atom+Function  
  ----- ------------  ---------------      ----- ------------  ---------------
    12      0.493172  1 C  py                57     -0.493172  2 C  py         
    16      0.279882  1 C  py                61     -0.279882  2 C  py         
     8      0.265280  1 C  py                53     -0.265279  2 C  py         
     4      0.182295  1 C  py                49     -0.182295  2 C  py         

 Vector    9  Occ=0.000000D+00  E=-8.191112D-02
              MO Center= -2.3D-14, -1.0D-14,  6.4D-07, r^2= 2.6D+00
   Bfn.  Coefficient  Atom+Function         Bfn.  Coefficient  Atom+Function  
  ----- ------------  ---------------      ----- ------------  ---------------
    11      0.493172  1 C  px                56     -0.493172  2 C  px         
    15      0.279882  1 C  px                60     -0.279882  2 C  px         
     7      0.265280  1 C  px                52     -0.265279  2 C  px         
     3      0.182295  1 C  px                48     -0.182295  2 C  px         

 Vector   10  Occ=0.000000D+00  E=-4.463574D-03
              MO Center= -2.6D-14, -5.6D-14,  7.8D-05, r^2= 1.1D+01
   Bfn.  Coefficient  Atom+Function         Bfn.  Coefficient  Atom+Function  
  ----- ------------  ---------------      ----- ------------  ---------------
    94      1.948026  3 H  s                113     -1.948123  4 H  s          
    17      0.759164  1 C  pz                62      0.759110  2 C  pz         
    93      0.619183  3 H  s                112     -0.619205  4 H  s          
    14      0.559061  1 C  s                 59     -0.558975  2 C  s          
    13      0.357194  1 C  pz                58      0.357188  2 C  pz         

 Vector   11  Occ=0.000000D+00  E=-1.599102D-03
              MO Center= -7.7D-14, -1.3D-13, -7.2D-05, r^2= 1.3D+01
   Bfn.  Coefficient  Atom+Function         Bfn.  Coefficient  Atom+Function  
  ----- ------------  ---------------      ----- ------------  ---------------
    94      2.615970  3 H  s                113      2.615900  4 H  s          
    14     -2.295192  1 C  s                 59     -2.295212  2 C  s          
    17     -1.526780  1 C  pz                62      1.526808  2 C  pz         
    93      0.579327  3 H  s                112      0.579302  4 H  s          
    10     -0.394012  1 C  s                 55     -0.394020  2 C  s          

 Vector   12  Occ=0.000000D+00  E= 2.763998D-02
              MO Center= -5.2D-14, -5.0D-14, -4.2D-06, r^2= 7.4D+00
   Bfn.  Coefficient  Atom+Function         Bfn.  Coefficient  Atom+Function  
  ----- ------------  ---------------      ----- ------------  ---------------
    14      1.532377  1 C  s                 59      1.532378  2 C  s          
    94     -1.023585  3 H  s                113     -1.023583  4 H  s          
    93     -0.920270  3 H  s                112     -0.920270  4 H  s          
    10      0.489601  1 C  s                 55      0.489602  2 C  s          
    92     -0.321004  3 H  s                111     -0.321004  4 H  s          

 Vector   13  Occ=0.000000D+00  E= 5.814158D-02
              MO Center= -2.8D-16,  1.6D-13,  2.9D-06, r^2= 9.3D+00
   Bfn.  Coefficient  Atom+Function         Bfn.  Coefficient  Atom+Function  
  ----- ------------  ---------------      ----- ------------  ---------------
    16      0.596299  1 C  py                61      0.596294  2 C  py         
    12     -0.246182  1 C  py                57     -0.246181  2 C  py         

 Vector   14  Occ=0.000000D+00  E= 5.814158D-02
              MO Center=  1.2D-13, -8.6D-15,  2.9D-06, r^2= 9.4D+00
   Bfn.  Coefficient  Atom+Function         Bfn.  Coefficient  Atom+Function  
  ----- ------------  ---------------      ----- ------------  ---------------
    15      0.596299  1 C  px                60      0.596294  2 C  px         
    11     -0.246178  1 C  px                56     -0.246177  2 C  px         

 Vector   15  Occ=0.000000D+00  E= 7.953607D-02
              MO Center=  8.8D-14,  6.4D-14,  4.0D-06, r^2= 1.3D+01
   Bfn.  Coefficient  Atom+Function         Bfn.  Coefficient  Atom+Function  
  ----- ------------  ---------------      ----- ------------  ---------------
    94      2.518984  3 H  s                113     -2.518994  4 H  s          
    93     -1.888376  3 H  s                112      1.888377  4 H  s          
    13     -1.060923  1 C  pz                58     -1.060923  2 C  pz         
    17      0.720356  1 C  pz                62      0.720350  2 C  pz         
    92     -0.564420  3 H  s                111      0.564420  4 H  s          

 Vector   16  Occ=0.000000D+00  E= 1.100751D-01
              MO Center= -1.1D-14, -6.0D-15, -2.2D-06, r^2= 2.0D+01
   Bfn.  Coefficient  Atom+Function         Bfn.  Coefficient  Atom+Function  
  ----- ------------  ---------------      ----- ------------  ---------------
    14      9.746712  1 C  s                 59      9.746710  2 C  s          
    94     -7.937651  3 H  s                113     -7.937652  4 H  s          
    17      6.025963  1 C  pz                62     -6.025961  2 C  pz         
    93     -2.605218  3 H  s                112     -2.605224  4 H  s          
    10      0.916240  1 C  s                 55      0.916239  2 C  s          

 Vector   17  Occ=0.000000D+00  E= 1.145660D-01
              MO Center=  6.3D-16, -1.7D-13, -2.6D-06, r^2= 1.2D+01
   Bfn.  Coefficient  Atom+Function         Bfn.  Coefficient  Atom+Function  
  ----- ------------  ---------------      ----- ------------  ---------------
    16      2.367672  1 C  py                61     -2.367673  2 C  py         
    12     -0.351331  1 C  py                57      0.351332  2 C  py         
    34     -0.234932  1 C  dyz               79     -0.234932  2 C  dyz        

 Vector   18  Occ=0.000000D+00  E= 1.145660D-01
              MO Center= -1.6D-13, -3.4D-17, -2.7D-06, r^2= 1.2D+01
   Bfn.  Coefficient  Atom+Function         Bfn.  Coefficient  Atom+Function  
  ----- ------------  ---------------      ----- ------------  ---------------
    15      2.367672  1 C  px                60     -2.367673  2 C  px         
    11     -0.351331  1 C  px                56      0.351332  2 C  px         
    32     -0.234932  1 C  dxz               77     -0.234932  2 C  dxz        

 Vector   19  Occ=0.000000D+00  E= 1.360113D-01
              MO Center=  9.4D-14,  1.5D-13, -1.4D-06, r^2= 1.5D+01
   Bfn.  Coefficient  Atom+Function         Bfn.  Coefficient  Atom+Function  
  ----- ------------  ---------------      ----- ------------  ---------------
    94      6.107681  3 H  s                113     -6.107676  4 H  s          
    17      4.189762  1 C  pz                62      4.189767  2 C  pz         
    93      2.549660  3 H  s                112     -2.549660  4 H  s          
    14      2.424810  1 C  s                 59     -2.424815  2 C  s          
    13      1.038264  1 C  pz                58      1.038265  2 C  pz         

 Vector   20  Occ=0.000000D+00  E= 2.049654D-01
              MO Center=  8.0D-15, -8.0D-15, -4.5D-07, r^2= 1.2D+01
   Bfn.  Coefficient  Atom+Function         Bfn.  Coefficient  Atom+Function  
  ----- ------------  ---------------      ----- ------------  ---------------
    17      7.073206  1 C  pz                62     -7.073202  2 C  pz         
    14      6.637486  1 C  s                 59      6.637484  2 C  s          
    94     -5.183219  3 H  s                113     -5.183225  4 H  s          
    93     -4.418927  3 H  s                112     -4.418924  4 H  s          
    10      1.614446  1 C  s                 55      1.614447  2 C  s          

 Vector   21  Occ=0.000000D+00  E= 2.104699D-01
              MO Center=  1.3D-14, -3.1D-14, -5.7D-07, r^2= 3.3D+00
   Bfn.  Coefficient  Atom+Function         Bfn.  Coefficient  Atom+Function  
  ----- ------------  ---------------      ----- ------------  ---------------
    30      0.466568  1 C  dxx               33     -0.466568  1 C  dyy        
    75      0.466569  2 C  dxx               78     -0.466568  2 C  dyy        

 Vector   22  Occ=0.000000D+00  E= 2.104721D-01
              MO Center=  1.1D-15, -5.9D-15, -5.7D-07, r^2= 3.3D+00
   Bfn.  Coefficient  Atom+Function         Bfn.  Coefficient  Atom+Function  
  ----- ------------  ---------------      ----- ------------  ---------------
    31      0.933134  1 C  dxy               76      0.933136  2 C  dxy        

 Vector   23  Occ=0.000000D+00  E= 2.876505D-01
              MO Center= -5.5D-15,  1.2D-13, -3.4D-07, r^2= 5.1D+00
   Bfn.  Coefficient  Atom+Function         Bfn.  Coefficient  Atom+Function  
  ----- ------------  ---------------      ----- ------------  ---------------
   102      0.650527  3 H  py               121      0.650527  4 H  py         
    34      0.466879  1 C  dyz               79     -0.466882  2 C  dyz        
    16     -0.234282  1 C  py                61     -0.234283  2 C  py         

 Vector   24  Occ=0.000000D+00  E= 2.876505D-01
              MO Center= -1.8D-13,  9.1D-16, -3.5D-07, r^2= 5.1D+00
   Bfn.  Coefficient  Atom+Function         Bfn.  Coefficient  Atom+Function  
  ----- ------------  ---------------      ----- ------------  ---------------
   101      0.650527  3 H  px               120      0.650527  4 H  px         
    32      0.466879  1 C  dxz               77     -0.466882  2 C  dxz        
    15     -0.234282  1 C  px                60     -0.234283  2 C  px         

 Vector   25  Occ=0.000000D+00  E= 2.894863D-01
              MO Center=  9.1D-15,  2.3D-14,  1.4D-05, r^2= 1.1D+01
   Bfn.  Coefficient  Atom+Function         Bfn.  Coefficient  Atom+Function  
  ----- ------------  ---------------      ----- ------------  ---------------
    93      8.419820  3 H  s                112     -8.419931  4 H  s          
    13      4.518035  1 C  pz                58      4.518008  2 C  pz         
    17      2.596890  1 C  pz                62      2.596790  2 C  pz         
    14      2.505689  1 C  s                 59     -2.505546  2 C  s          
    10      2.099612  1 C  s                 55     -2.099567  2 C  s          

 Vector   26  Occ=0.000000D+00  E= 2.962390D-01
              MO Center=  1.5D-13, -1.7D-13, -1.4D-05, r^2= 1.2D+01
   Bfn.  Coefficient  Atom+Function         Bfn.  Coefficient  Atom+Function  
  ----- ------------  ---------------      ----- ------------  ---------------
    14     12.667935  1 C  s                 59     12.667964  2 C  s          
    93     -9.460475  3 H  s                112     -9.460382  4 H  s          
    17      8.717039  1 C  pz                62     -8.717070  2 C  pz         
    94     -8.287692  3 H  s                113     -8.287667  4 H  s          
    10      3.908128  1 C  s                 55      3.908151  2 C  s          

 Vector   27  Occ=0.000000D+00  E= 4.044969D-01
              MO Center= -1.5D-14, -7.0D-15,  5.5D-07, r^2= 4.2D+00
   Bfn.  Coefficient  Atom+Function         Bfn.  Coefficient  Atom+Function  
  ----- ------------  ---------------      ----- ------------  ---------------
    30      1.046524  1 C  dxx               33     -1.046523  1 C  dyy        
    75     -1.046523  2 C  dxx               78      1.046522  2 C  dyy        

 Vector   28  Occ=0.000000D+00  E= 4.044975D-01
              MO Center= -1.0D-14, -2.6D-15,  5.5D-07, r^2= 4.2D+00
   Bfn.  Coefficient  Atom+Function         Bfn.  Coefficient  Atom+Function  
  ----- ------------  ---------------      ----- ------------  ---------------
    31      2.093046  1 C  dxy               76     -2.093045  2 C  dxy        

 Vector   29  Occ=0.000000D+00  E= 4.321331D-01
              MO Center= -4.2D-14,  1.4D-14, -1.0D-06, r^2= 4.8D+00
   Bfn.  Coefficient  Atom+Function         Bfn.  Coefficient  Atom+Function  
  ----- ------------  ---------------      ----- ------------  ---------------
    11      1.505294  1 C  px                56      1.505296  2 C  px         
    32      0.900357  1 C  dxz               77     -0.900357  2 C  dxz        
   101     -0.782056  3 H  px               120     -0.782057  4 H  px         
     7     -0.593727  1 C  px                52     -0.593728  2 C  px         
    15     -0.428762  1 C  px                60     -0.428765  2 C  px         

 Vector   30  Occ=0.000000D+00  E= 4.321331D-01
              MO Center=  8.5D-15,  1.7D-14, -1.0D-06, r^2= 4.8D+00
   Bfn.  Coefficient  Atom+Function         Bfn.  Coefficient  Atom+Function  
  ----- ------------  ---------------      ----- ------------  ---------------
    12      1.505294  1 C  py                57      1.505296  2 C  py         
    34      0.900357  1 C  dyz               79     -0.900357  2 C  dyz        
   102     -0.782056  3 H  py               121     -0.782057  4 H  py         
     8     -0.593727  1 C  py                53     -0.593728  2 C  py         
    16     -0.428762  1 C  py                61     -0.428765  2 C  py         

 Vector   31  Occ=0.000000D+00  E= 4.395918D-01
              MO Center= -7.5D-13, -2.7D-13, -8.9D-07, r^2= 9.8D+00
   Bfn.  Coefficient  Atom+Function         Bfn.  Coefficient  Atom+Function  
  ----- ------------  ---------------      ----- ------------  ---------------
    94      4.152510  3 H  s                113     -4.152507  4 H  s          
    17      2.832273  1 C  pz                62      2.832277  2 C  pz         
    30     -1.779859  1 C  dxx               33     -1.779860  1 C  dyy        
    75      1.779859  2 C  dxx               78      1.779859  2 C  dyy        
    93     -1.750674  3 H  s                112      1.750675  4 H  s          

 Vector   32  Occ=0.000000D+00  E= 4.427988D-01
              MO Center=  8.5D-16,  2.2D-13,  8.4D-07, r^2= 6.0D+00
   Bfn.  Coefficient  Atom+Function         Bfn.  Coefficient  Atom+Function  
  ----- ------------  ---------------      ----- ------------  ---------------
    16      1.237472  1 C  py                61     -1.237472  2 C  py         
   102      1.190450  3 H  py               121     -1.190449  4 H  py         
    12      0.448033  1 C  py                57     -0.448035  2 C  py         
     8      0.364483  1 C  py                53     -0.364482  2 C  py         
    34      0.224289  1 C  dyz               79      0.224290  2 C  dyz        

 Vector   33  Occ=0.000000D+00  E= 4.427988D-01
              MO Center=  7.1D-13, -6.2D-15,  8.6D-07, r^2= 6.0D+00
   Bfn.  Coefficient  Atom+Function         Bfn.  Coefficient  Atom+Function  
  ----- ------------  ---------------      ----- ------------  ---------------
    15      1.237472  1 C  px                60     -1.237472  2 C  px         
   101      1.190450  3 H  px               120     -1.190449  4 H  px         
    11      0.448033  1 C  px                56     -0.448035  2 C  px         
     7      0.364483  1 C  px                52     -0.364482  2 C  px         
    32      0.224289  1 C  dxz               77      0.224290  2 C  dxz        

 Vector   34  Occ=0.000000D+00  E= 4.892066D-01
              MO Center=  2.7D-14,  9.7D-14, -7.7D-07, r^2= 1.0D+01
   Bfn.  Coefficient  Atom+Function         Bfn.  Coefficient  Atom+Function  
  ----- ------------  ---------------      ----- ------------  ---------------
    93     11.378497  3 H  s                112     11.378494  4 H  s          
    17     -6.804309  1 C  pz                62      6.804310  2 C  pz         
    14     -6.413248  1 C  s                 59     -6.413249  2 C  s          
    35     -5.608113  1 C  dzz               80     -5.608113  2 C  dzz        
    94      3.931104  3 H  s                113      3.931103  4 H  s          

 Vector   35  Occ=0.000000D+00  E= 5.638459D-01
              MO Center=  4.7D-14,  2.1D-14,  3.6D-07, r^2= 6.5D+00
   Bfn.  Coefficient  Atom+Function         Bfn.  Coefficient  Atom+Function  
  ----- ------------  ---------------      ----- ------------  ---------------
    14      5.848019  1 C  s                 59      5.848018  2 C  s          
    10      4.376494  1 C  s                 17      4.376102  1 C  pz         
    55      4.376494  2 C  s                 62     -4.376100  2 C  pz         
    94     -4.089319  3 H  s                113     -4.089322  4 H  s          
    93     -3.905674  3 H  s                112     -3.905673  4 H  s          


 center of mass
 --------------
 x =   0.00000000 y =   0.00000000 z =   0.00000000

 moments of inertia (a.u.)
 ------------------
          51.861177890914           0.000000000000           0.000000000000
           0.000000000000          51.861177890914           0.000000000000
           0.000000000000           0.000000000000           0.000000000000

     Multipole analysis of the density
     ---------------------------------

     L   x y z        total         alpha         beta         nuclear
     -   - - -        -----         -----         ----         -------
     0   0 0 0     -0.000000     -7.000000     -7.000000     14.000000

     1   1 0 0      0.000000      0.000000      0.000000      0.000000
     1   0 1 0      0.000000      0.000000      0.000000      0.000000
     1   0 0 1      0.000009      0.000004      0.000004      0.000000

     2   2 0 0    -10.703604     -5.351802     -5.351802      0.000000
     2   1 1 0      0.000000      0.000000      0.000000      0.000000
     2   1 0 1      0.000000      0.000000      0.000000      0.000000
     2   0 2 0    -10.703690     -5.351845     -5.351845      0.000000
     2   0 1 1     -0.000000     -0.000000     -0.000000      0.000000
     2   0 0 2     -5.280884    -20.570078    -20.570078     35.859273


 Parallel integral file used     211 records with       0 large values


            General Information
            -------------------
          SCF calculation type: DFT
          Wavefunction type:  closed shell.
          No. of atoms     :     4
          No. of electrons :    14
           Alpha electrons :     7
            Beta electrons :     7
          Charge           :     0
          Spin multiplicity:     1
          Use of symmetry is: off; symmetry adaption is: off
          Maximum number of iterations: ***
          AO basis - number of functions:   128
                     number of shells:    42
          Convergence on energy requested: 1.00D-06
          Convergence on density requested: 1.00D-05
          Convergence on gradient requested: 5.00D-04

              XC Information
              --------------
                  TPSS metaGGA Exchange Functional  1.000          
             TPSS03 metaGGA Correlation Functional  1.000          

             Grid Information
             ----------------
          Grid used for XC integration:  medium    
          Radial quadrature: Mura-Knowles        
          Angular quadrature: Lebedev. 
          Tag              B.-S. Rad. Rad. Pts. Rad. Cut. Ang. Pts.
          ---              ---------- --------- --------- ---------
          C                   0.70       49          12.0       434
          H                   0.35       45          13.0       434
          Grid pruning is: on 
          Number of quadrature shells:   188
          Spatial weights used:  Erf1

          Convergence Information
          -----------------------
          Convergence aids based upon iterative change in 
          total energy or number of iterations. 
          Levelshifting, if invoked, occurs when the 
          HOMO/LUMO gap drops below (HL_TOL): 1.00D-02
          DIIS, if invoked, will attempt to extrapolate 
          using up to (NFOCK): 10 stored Fock matrices.

                    Damping( 0%)  Levelshifting(0.5)       DIIS
                  --------------- ------------------- ---------------
          dE  on:    start            ASAP                start   
          dE off:    2 iters        *** iters           *** iters 


      Screening Tolerance Information
      -------------------------------
          Density screening/tol_rho: 1.00D-10
          AO Gaussian exp screening on grid/accAOfunc:  14
          CD Gaussian exp screening on grid/accCDfunc:  20
          XC Gaussian exp screening on grid/accXCfunc:  20
          Schwarz screening/accCoul: 1.00D-08



                            NWChem DFT Gradient Module
                            --------------------------



  charge          =   0.00
  wavefunction    = closed shell



                         DFT ENERGY GRADIENTS

    atom               coordinates                        gradient
                 x          y          z           x          y          z
   1 C       0.000000   0.000000   1.149105    0.000000   0.000000   0.032149
   2 C       0.000000   0.000000  -1.149105   -0.000000   0.000000  -0.032149
   3 H       0.000000   0.000000  -3.163382    0.000000  -0.000000  -0.002113
   4 H       0.000000   0.000000   3.163382   -0.000000  -0.000000   0.002113

                 ----------------------------------------
                 |  Time  |  1-e(secs)   |  2-e(secs)   |
                 ----------------------------------------
                 |  CPU   |       0.00   |       0.47   |
                 ----------------------------------------
                 |  WALL  |       0.00   |       0.48   |
                 ----------------------------------------
                               NWChem STEPPER Module
                               ---------------------


   Step sought for minimum. 
   Update Hessian used. 
   Nuclear Hessian initialized with UNIT matrix. 
   Dependent rotation vector no.                    3
   found in ECKART; linear geometry  assumed. 
   Number of modes removed with force (in the spectral representation)
   less than:   0.000000 is:    4
   PARTIT has partitioned the input hessian 
   and gradient into two subspaces;  An 
   "external" hessian and gradient composed 
   of                     5  independent translations 
   and rotations, and an "internal" hessian 
   and gradient with a dimension of                     3
               e-diff         g-norm     g-max   
 value      -77.3488006040  0.045563  0.032149
 thres        0.0001000000  0.010000  0.000800
  trust radius =     0.10
   Calculating the Newton-Raphson step. 
  The length (norm) of the STEP is   0.045563

  The lowest few components in the bases 
  generated by the spectral decomposition 
  of the internal hessian (non-zero force). 

  Component  Hessian     Grad      Step   Scaled-Step
  ---------  --------  --------  -------- -----------
       1     0.10D+01  -.26D-01  0.26D-01  0.26D-01
       2     0.10D+01  -.30D-02  0.30D-02  0.30D-02
       3     0.10D+01  0.37D-01  -.37D-01  -.37D-01

  Clean-up the step; truncate at:   0.000001
  In cartesian coordinates; norm of this step is:   0.045564
         Walk statistics for step:   1
     Previous actual total energy:   0.000000000000D+00
      Current actual total energy:  -0.773488006040D+02
         Actual energy difference:  -0.773488006040D+02 threshold:         0.100000D-03
    Second order energy predicted:   0.000000000000D+00
             Ratio of differences:   0.000000000000D+00
               Fixed trust radius:   0.100000000000D+00
   Number of negative eigenvalues:   0
   Max absolute value of Gradient:   0.321487075398D-01 threshold:         0.800000D-03
                    Gradient norm:   0.455632255835D-01 threshold:         0.100000D-01
                RMS Gradient norm:   0.227816127918D-01
  Largest component of step v-tor:   0.371220000000D-01
  New 2nd order energy prediction:  -0.103800376268D-02



  ------------------- New geometry -------------------


                         Geometry "g-1-step" -> "g-1-step"
                         ---------------------------------

 Output coordinates in angstroms (scale by  1.889725989 to convert to a.u.)

  No.       Tag          Charge          X              Y              Z
 ---- ---------------- ---------- -------------- -------------- --------------
    1 C                    6.0000     0.00000000     0.00000000     0.59106748
    2 C                    6.0000     0.00000000     0.00000000    -0.59106748
    3 H                    1.0000     0.00000000     0.00000000    -1.67287185
    4 H                    1.0000     0.00000000     0.00000000     1.67287185

      Atomic Mass 
      ----------- 

      C                 12.000000
      H                  1.007825


 Effective nuclear repulsion energy (a.u.)      24.9482396531

            Nuclear Dipole moment (a.u.) 
            ----------------------------
        X                 Y               Z
 ---------------- ---------------- ----------------
     0.0000000000     0.0000000000     0.0000000000

 ==============================================================================
                                internuclear distances
 ------------------------------------------------------------------------------
       center one      |      center two      | atomic units |  angstroms
 ------------------------------------------------------------------------------
    2 C                |   1 C                |     2.23391  |     1.18213
    3 H                |   2 C                |     2.04431  |     1.08180
    4 H                |   1 C                |     2.04431  |     1.08180
 ------------------------------------------------------------------------------
                         number of included internuclear distances:          3
 ==============================================================================



 ==============================================================================
                                 internuclear angles
 ------------------------------------------------------------------------------
        center 1       |       center 2       |       center 3       |  degrees
 ------------------------------------------------------------------------------
    2 C                |   1 C                |   4 H                |   180.00
    1 C                |   2 C                |   3 H                |   180.00
 ------------------------------------------------------------------------------
                            number of included internuclear angles:          2
 ==============================================================================




                                 NWChem DFT Module
                                 -----------------




 Summary of "ao basis" -> "ao basis" (cartesian)
 ------------------------------------------------------------------------------
       Tag                 Description            Shells   Functions and Types
 ---------------- ------------------------------  ------  ---------------------
 C                     6-311++G(3df,3pd)            13       45   5s4p3d1f
 H                     6-311++G(3df,3pd)             8       19   4s3p1d


  Caching 1-el integrals 

            General Information
            -------------------
          SCF calculation type: DFT
          Wavefunction type:  closed shell.
          No. of atoms     :     4
          No. of electrons :    14
           Alpha electrons :     7
            Beta electrons :     7
          Charge           :     0
          Spin multiplicity:     1
          Use of symmetry is: off; symmetry adaption is: off
          Maximum number of iterations: ***
          AO basis - number of functions:   128
                     number of shells:    42
          Convergence on energy requested: 1.00D-06
          Convergence on density requested: 1.00D-05
          Convergence on gradient requested: 5.00D-04

              XC Information
              --------------
                  TPSS metaGGA Exchange Functional  1.000          
             TPSS03 metaGGA Correlation Functional  1.000          

             Grid Information
             ----------------
          Grid used for XC integration:  medium    
          Radial quadrature: Mura-Knowles        
          Angular quadrature: Lebedev. 
          Tag              B.-S. Rad. Rad. Pts. Rad. Cut. Ang. Pts.
          ---              ---------- --------- --------- ---------
          C                   0.70       49          12.0       434
          H                   0.35       45          13.0       434
          Grid pruning is: on 
          Number of quadrature shells:   188
          Spatial weights used:  Erf1

          Convergence Information
          -----------------------
          Convergence aids based upon iterative change in 
          total energy or number of iterations. 
          Levelshifting, if invoked, occurs when the 
          HOMO/LUMO gap drops below (HL_TOL): 1.00D-02
          DIIS, if invoked, will attempt to extrapolate 
          using up to (NFOCK): 10 stored Fock matrices.

                    Damping( 0%)  Levelshifting(0.5)       DIIS
                  --------------- ------------------- ---------------
          dE  on:    start            ASAP                start   
          dE off:    2 iters        *** iters           *** iters 


      Screening Tolerance Information
      -------------------------------
          Density screening/tol_rho: 1.00D-10
          AO Gaussian exp screening on grid/accAOfunc:  14
          CD Gaussian exp screening on grid/accCDfunc:  20
          XC Gaussian exp screening on grid/accXCfunc:  20
          Schwarz screening/accCoul: 1.00D-08


 WARNING : Found     2 linear dependencies 
 S eigenvalue threshold:     1.00000E-05
 Smallest S eigenvalue :     2.56521E-07
 Largest  S eigenvalue :     5.43447E-06


 !! The overlap matrix has   2 vectors deemed linearly dependent with
    eigenvalues:
 2.57D-07 5.43D-06


 Loading old vectors from job with title :



   Time after variat. SCF:      7.2
   Time prior to 1st pass:      7.2

 Integral file          = ./C2H2.xyz.aoints.00
 Record size in doubles =    65536    No. of integs per rec  =    43688
 Max. records in memory =       68    Max. records in file   = 11666350
 No. of bits per label  =        8    No. of bits per value  =       64


 #quartets = 3.975D+05 #integrals = 8.867D+06 #direct =  0.0% #cached =100.0%


File balance: exchanges=     8  moved=     6  time=   0.0


 Grid_pts file          = ./C2H2.xyz.gridpts.00
 Record size in doubles =  12289        No. of grid_pts per rec  =   3070
 Max. records in memory =      3        Max. recs in file   =  62215477


           Memory utilization after 1st SCF pass: 
           Heap Space remaining (MW):        8.61             8610108
          Stack Space remaining (MW):       13.11            13106420

   convergence    iter        energy       DeltaE   RMS-Dens  Diis-err    time
 ---------------- ----- ----------------- --------- --------- ---------  ------
 d= 0,ls=0.0,diis     1    -77.3466544924 -1.02D+02  1.31D-03  7.71D-03     7.8
 d= 0,ls=0.0,diis     2    -77.3496330329 -2.98D-03  2.90D-04  3.19D-03     8.0
 d= 0,ls=0.0,diis     3    -77.3472065901  2.43D-03  1.11D-04  4.60D-04     8.2
 d= 0,ls=0.0,diis     4    -77.3480772124 -8.71D-04  1.48D-05  3.99D-06     8.4
 d= 0,ls=0.0,diis     5    -77.3479931056  8.41D-05  4.68D-06  1.51D-07     8.6
 d= 0,ls=0.0,diis     6    -77.3479982859 -5.18D-06  4.61D-07  2.27D-09     8.8
 d= 0,ls=0.0,diis     7    -77.3479985298 -2.44D-07  2.19D-07  6.72D-09     9.0


         Total DFT energy =      -77.347998529768
      One electron energy =     -151.792025907542
           Coulomb energy =       60.924919428388
          Exchange energy =      -11.001189295362
       Correlation energy =       -0.427942408310
 Nuclear repulsion energy =       24.948239653057

 Numeric. integr. density =       13.999999668166

     Total iterative time =      1.8s



                       DFT Final Molecular Orbital Analysis
                       ------------------------------------

 Vector    1  Occ=2.000000D+00  E=-1.007192D+01
              MO Center=  1.5D-18, -2.9D-17,  1.1D-04, r^2= 3.8D-01
   Bfn.  Coefficient  Atom+Function         Bfn.  Coefficient  Atom+Function  
  ----- ------------  ---------------      ----- ------------  ---------------
     1      0.397239  1 C  s                 46      0.397167  2 C  s          
     2      0.329199  1 C  s                 47      0.329140  2 C  s          

 Vector    2  Occ=2.000000D+00  E=-1.006935D+01
              MO Center= -2.8D-17, -6.8D-18, -1.1D-04, r^2= 3.8D-01
   Bfn.  Coefficient  Atom+Function         Bfn.  Coefficient  Atom+Function  
  ----- ------------  ---------------      ----- ------------  ---------------
     1      0.397407  1 C  s                 46     -0.397479  2 C  s          
     2      0.329404  1 C  s                 47     -0.329464  2 C  s          

 Vector    3  Occ=2.000000D+00  E=-7.612374D-01
              MO Center=  4.1D-16,  7.7D-16,  4.9D-07, r^2= 8.5D-01
   Bfn.  Coefficient  Atom+Function         Bfn.  Coefficient  Atom+Function  
  ----- ------------  ---------------      ----- ------------  ---------------
    10      0.321168  1 C  s                 55      0.321168  2 C  s          
     6      0.311591  1 C  s                 51      0.311591  2 C  s          
     2     -0.154169  1 C  s                 47     -0.154169  2 C  s          

 Vector    4  Occ=2.000000D+00  E=-5.763844D-01
              MO Center=  7.8D-16,  1.3D-15,  2.8D-06, r^2= 2.2D+00
   Bfn.  Coefficient  Atom+Function         Bfn.  Coefficient  Atom+Function  
  ----- ------------  ---------------      ----- ------------  ---------------
    13      0.203708  1 C  pz                58      0.203708  2 C  pz         
     6      0.172966  1 C  s                 51     -0.172966  2 C  s          
     9      0.162583  1 C  pz                54      0.162582  2 C  pz         
    92     -0.150100  3 H  s                111      0.150101  4 H  s          

 Vector    5  Occ=2.000000D+00  E=-5.060256D-01
              MO Center=  2.0D-16,  4.0D-16, -3.3D-06, r^2= 2.0D+00
   Bfn.  Coefficient  Atom+Function         Bfn.  Coefficient  Atom+Function  
  ----- ------------  ---------------      ----- ------------  ---------------
    92      0.244059  3 H  s                111      0.244058  4 H  s          
     9      0.220724  1 C  pz                54     -0.220725  2 C  pz         
     5      0.191411  1 C  pz                50     -0.191411  2 C  pz         
    13      0.160953  1 C  pz                58     -0.160954  2 C  pz         

 Vector    6  Occ=2.000000D+00  E=-3.401520D-01
              MO Center=  1.7D-16,  5.3D-16,  4.7D-07, r^2= 1.4D+00
   Bfn.  Coefficient  Atom+Function         Bfn.  Coefficient  Atom+Function  
  ----- ------------  ---------------      ----- ------------  ---------------
     7      0.266234  1 C  px                52      0.266234  2 C  px         
    11      0.236018  1 C  px                56      0.236018  2 C  px         
     3      0.189047  1 C  px                48      0.189047  2 C  px         

 Vector    7  Occ=2.000000D+00  E=-3.401520D-01
              MO Center=  1.2D-15,  3.4D-15,  4.7D-07, r^2= 1.4D+00
   Bfn.  Coefficient  Atom+Function         Bfn.  Coefficient  Atom+Function  
  ----- ------------  ---------------      ----- ------------  ---------------
     8      0.266234  1 C  py                53      0.266234  2 C  py         
    12      0.236018  1 C  py                57      0.236018  2 C  py         
     4      0.189047  1 C  py                49      0.189047  2 C  py         

 Vector    8  Occ=0.000000D+00  E=-7.222990D-02
              MO Center=  3.1D-15,  1.9D-15, -3.9D-07, r^2= 2.7D+00
   Bfn.  Coefficient  Atom+Function         Bfn.  Coefficient  Atom+Function  
  ----- ------------  ---------------      ----- ------------  ---------------
    11      0.464625  1 C  px                56     -0.464626  2 C  px         
    15      0.322528  1 C  px                60     -0.322528  2 C  px         
     7      0.259049  1 C  px                52     -0.259049  2 C  px         
     3      0.178130  1 C  px                48     -0.178130  2 C  px         

 Vector    9  Occ=0.000000D+00  E=-7.222990D-02
              MO Center=  6.2D-16,  6.2D-15, -3.9D-07, r^2= 2.7D+00
   Bfn.  Coefficient  Atom+Function         Bfn.  Coefficient  Atom+Function  
  ----- ------------  ---------------      ----- ------------  ---------------
    12      0.464625  1 C  py                57     -0.464626  2 C  py         
    16      0.322528  1 C  py                61     -0.322528  2 C  py         
     8      0.259049  1 C  py                53     -0.259049  2 C  py         
     4      0.178130  1 C  py                49     -0.178130  2 C  py         

 Vector   10  Occ=0.000000D+00  E=-4.736271D-03
              MO Center=  2.3D-15,  3.6D-16,  3.1D-05, r^2= 1.1D+01
   Bfn.  Coefficient  Atom+Function         Bfn.  Coefficient  Atom+Function  
  ----- ------------  ---------------      ----- ------------  ---------------
    94      1.911781  3 H  s                113     -1.911815  4 H  s          
    17      0.747652  1 C  pz                62      0.747633  2 C  pz         
    93      0.598967  3 H  s                112     -0.598976  4 H  s          
    14      0.503355  1 C  s                 59     -0.503324  2 C  s          
    13      0.343981  1 C  pz                58      0.343978  2 C  pz         

 Vector   11  Occ=0.000000D+00  E=-6.884979D-04
              MO Center=  3.5D-14, -2.5D-15, -2.7D-05, r^2= 1.3D+01
   Bfn.  Coefficient  Atom+Function         Bfn.  Coefficient  Atom+Function  
  ----- ------------  ---------------      ----- ------------  ---------------
    94      2.656246  3 H  s                113      2.656219  4 H  s          
    14     -2.351949  1 C  s                 59     -2.351956  2 C  s          
    17     -1.578589  1 C  pz                62      1.578600  2 C  pz         
    93      0.610849  3 H  s                112      0.610841  4 H  s          
    10     -0.408231  1 C  s                 55     -0.408234  2 C  s          

 Vector   12  Occ=0.000000D+00  E= 2.523518D-02
              MO Center= -7.4D-15,  6.7D-15, -3.5D-06, r^2= 6.9D+00
   Bfn.  Coefficient  Atom+Function         Bfn.  Coefficient  Atom+Function  
  ----- ------------  ---------------      ----- ------------  ---------------
    14      1.277665  1 C  s                 59      1.277666  2 C  s          
    93     -0.852005  3 H  s                112     -0.852005  4 H  s          
    94     -0.781355  3 H  s                113     -0.781349  4 H  s          
    10      0.455163  1 C  s                 55      0.455163  2 C  s          
    92     -0.316155  3 H  s                111     -0.316155  4 H  s          

 Vector   13  Occ=0.000000D+00  E= 5.783638D-02
              MO Center= -2.6D-14,  6.8D-16,  1.2D-06, r^2= 9.3D+00
   Bfn.  Coefficient  Atom+Function         Bfn.  Coefficient  Atom+Function  
  ----- ------------  ---------------      ----- ------------  ---------------
    15      0.592517  1 C  px                60      0.592516  2 C  px         
    11     -0.239564  1 C  px                56     -0.239564  2 C  px         

 Vector   14  Occ=0.000000D+00  E= 5.783638D-02
              MO Center=  6.5D-16, -4.1D-15,  1.2D-06, r^2= 9.3D+00
   Bfn.  Coefficient  Atom+Function         Bfn.  Coefficient  Atom+Function  
  ----- ------------  ---------------      ----- ------------  ---------------
    16      0.592517  1 C  py                61      0.592516  2 C  py         
    12     -0.239564  1 C  py                57     -0.239564  2 C  py         

 Vector   15  Occ=0.000000D+00  E= 8.143341D-02
              MO Center= -6.5D-15, -1.5D-14,  3.7D-06, r^2= 1.3D+01
   Bfn.  Coefficient  Atom+Function         Bfn.  Coefficient  Atom+Function  
  ----- ------------  ---------------      ----- ------------  ---------------
    94      2.626564  3 H  s                113     -2.626574  4 H  s          
    93     -1.875361  3 H  s                112      1.875358  4 H  s          
    13     -1.047697  1 C  pz                58     -1.047697  2 C  pz         
    17      0.783656  1 C  pz                62      0.783650  2 C  pz         
    92     -0.550175  3 H  s                111      0.550175  4 H  s          

 Vector   16  Occ=0.000000D+00  E= 1.096623D-01
              MO Center= -1.3D-15,  2.0D-15,  4.2D-08, r^2= 2.0D+01
   Bfn.  Coefficient  Atom+Function         Bfn.  Coefficient  Atom+Function  
  ----- ------------  ---------------      ----- ------------  ---------------
    14      9.626226  1 C  s                 59      9.626223  2 C  s          
    94     -7.830597  3 H  s                113     -7.830601  4 H  s          
    17      6.079939  1 C  pz                62     -6.079935  2 C  pz         
    93     -2.565475  3 H  s                112     -2.565481  4 H  s          
    10      0.853827  1 C  s                 55      0.853826  2 C  s          

 Vector   17  Occ=0.000000D+00  E= 1.166592D-01
              MO Center=  1.7D-14,  4.7D-16, -1.1D-06, r^2= 1.2D+01
   Bfn.  Coefficient  Atom+Function         Bfn.  Coefficient  Atom+Function  
  ----- ------------  ---------------      ----- ------------  ---------------
    15      2.432428  1 C  px                60     -2.432428  2 C  px         
    11     -0.424077  1 C  px                56      0.424077  2 C  px         
    32     -0.161617  1 C  dxz               77     -0.161617  2 C  dxz        

 Vector   18  Occ=0.000000D+00  E= 1.166592D-01
              MO Center= -9.1D-17,  6.6D-15, -1.1D-06, r^2= 1.2D+01
   Bfn.  Coefficient  Atom+Function         Bfn.  Coefficient  Atom+Function  
  ----- ------------  ---------------      ----- ------------  ---------------
    16      2.432428  1 C  py                61     -2.432428  2 C  py         
    12     -0.424077  1 C  py                57      0.424077  2 C  py         
    34     -0.161617  1 C  dyz               79     -0.161617  2 C  dyz        

 Vector   19  Occ=0.000000D+00  E= 1.377070D-01
              MO Center= -1.2D-14,  9.4D-15, -3.1D-06, r^2= 1.5D+01
   Bfn.  Coefficient  Atom+Function         Bfn.  Coefficient  Atom+Function  
  ----- ------------  ---------------      ----- ------------  ---------------
    94      5.949558  3 H  s                113     -5.949548  4 H  s          
    17      4.169006  1 C  pz                62      4.169014  2 C  pz         
    93      2.614133  3 H  s                112     -2.614130  4 H  s          
    14      2.233814  1 C  s                 59     -2.233827  2 C  s          
    13      1.065920  1 C  pz                58      1.065920  2 C  pz         

 Vector   20  Occ=0.000000D+00  E= 2.030700D-01
              MO Center= -2.9D-15,  1.7D-15, -2.1D-07, r^2= 1.2D+01
   Bfn.  Coefficient  Atom+Function         Bfn.  Coefficient  Atom+Function  
  ----- ------------  ---------------      ----- ------------  ---------------
    17      7.370413  1 C  pz                62     -7.370414  2 C  pz         
    14      6.775165  1 C  s                 59      6.775166  2 C  s          
    94     -5.306277  3 H  s                113     -5.306277  4 H  s          
    93     -4.346742  3 H  s                112     -4.346738  4 H  s          
    10      1.550861  1 C  s                 55      1.550862  2 C  s          

 Vector   21  Occ=0.000000D+00  E= 2.124886D-01
              MO Center= -1.3D-15,  3.7D-15,  3.0D-07, r^2= 3.3D+00
   Bfn.  Coefficient  Atom+Function         Bfn.  Coefficient  Atom+Function  
  ----- ------------  ---------------      ----- ------------  ---------------
    30      0.464048  1 C  dxx               33     -0.464048  1 C  dyy        
    75      0.464047  2 C  dxx               78     -0.464047  2 C  dyy        

 Vector   22  Occ=0.000000D+00  E= 2.124907D-01
              MO Center=  3.0D-15, -1.2D-15,  3.0D-07, r^2= 3.3D+00
   Bfn.  Coefficient  Atom+Function         Bfn.  Coefficient  Atom+Function  
  ----- ------------  ---------------      ----- ------------  ---------------
    31      0.928095  1 C  dxy               76      0.928094  2 C  dxy        

 Vector   23  Occ=0.000000D+00  E= 2.889113D-01
              MO Center=  2.6D-14,  1.2D-15,  7.1D-07, r^2= 5.2D+00
   Bfn.  Coefficient  Atom+Function         Bfn.  Coefficient  Atom+Function  
  ----- ------------  ---------------      ----- ------------  ---------------
   101      0.649410  3 H  px               120      0.649411  4 H  px         
    32      0.467051  1 C  dxz               77     -0.467051  2 C  dxz        
    15     -0.248701  1 C  px                60     -0.248700  2 C  px         

 Vector   24  Occ=0.000000D+00  E= 2.889113D-01
              MO Center= -1.9D-16,  9.4D-15,  7.1D-07, r^2= 5.2D+00
   Bfn.  Coefficient  Atom+Function         Bfn.  Coefficient  Atom+Function  
  ----- ------------  ---------------      ----- ------------  ---------------
   102      0.649410  3 H  py               121      0.649411  4 H  py         
    34      0.467051  1 C  dyz               79     -0.467051  2 C  dyz        
    16     -0.248701  1 C  py                61     -0.248700  2 C  py         

 Vector   25  Occ=0.000000D+00  E= 2.950403D-01
              MO Center=  1.2D-14, -9.0D-15,  1.7D-05, r^2= 1.1D+01
   Bfn.  Coefficient  Atom+Function         Bfn.  Coefficient  Atom+Function  
  ----- ------------  ---------------      ----- ------------  ---------------
    93      8.367150  3 H  s                112     -8.367287  4 H  s          
    13      4.497225  1 C  pz                58      4.497195  2 C  pz         
    17      2.556401  1 C  pz                62      2.556270  2 C  pz         
    14      2.254744  1 C  s                 59     -2.254562  2 C  s          
    10      2.012077  1 C  s                 55     -2.012024  2 C  s          

 Vector   26  Occ=0.000000D+00  E= 2.971944D-01
              MO Center= -1.5D-14,  4.9D-15, -1.6D-05, r^2= 1.2D+01
   Bfn.  Coefficient  Atom+Function         Bfn.  Coefficient  Atom+Function  
  ----- ------------  ---------------      ----- ------------  ---------------
    14     12.528321  1 C  s                 59     12.528353  2 C  s          
    93     -9.354025  3 H  s                112     -9.353905  4 H  s          
    17      8.928533  1 C  pz                62     -8.928568  2 C  pz         
    94     -8.187931  3 H  s                113     -8.187906  4 H  s          
    10      3.650728  1 C  s                 55      3.650757  2 C  s          

 Vector   27  Occ=0.000000D+00  E= 4.084018D-01
              MO Center= -2.4D-15,  6.0D-15, -2.9D-07, r^2= 4.2D+00
   Bfn.  Coefficient  Atom+Function         Bfn.  Coefficient  Atom+Function  
  ----- ------------  ---------------      ----- ------------  ---------------
    30      1.071461  1 C  dxx               33     -1.071461  1 C  dyy        
    75     -1.071461  2 C  dxx               78      1.071461  2 C  dyy        

 Vector   28  Occ=0.000000D+00  E= 4.084025D-01
              MO Center=  1.2D-15,  2.6D-15, -2.9D-07, r^2= 4.2D+00
   Bfn.  Coefficient  Atom+Function         Bfn.  Coefficient  Atom+Function  
  ----- ------------  ---------------      ----- ------------  ---------------
    31      2.142921  1 C  dxy               76     -2.142922  2 C  dxy        

 Vector   29  Occ=0.000000D+00  E= 4.311790D-01
              MO Center= -7.4D-15, -1.0D-15,  8.7D-07, r^2= 4.8D+00
   Bfn.  Coefficient  Atom+Function         Bfn.  Coefficient  Atom+Function  
  ----- ------------  ---------------      ----- ------------  ---------------
    11      1.492690  1 C  px                56      1.492690  2 C  px         
    32      0.903809  1 C  dxz               77     -0.903810  2 C  dxz        
   101     -0.792013  3 H  px               120     -0.792009  4 H  px         
     7     -0.585581  1 C  px                52     -0.585579  2 C  px         
    15     -0.421248  1 C  px                60     -0.421243  2 C  px         

 Vector   30  Occ=0.000000D+00  E= 4.311790D-01
              MO Center= -5.2D-15, -3.3D-14,  8.7D-07, r^2= 4.8D+00
   Bfn.  Coefficient  Atom+Function         Bfn.  Coefficient  Atom+Function  
  ----- ------------  ---------------      ----- ------------  ---------------
    12      1.492690  1 C  py                57      1.492690  2 C  py         
    34      0.903809  1 C  dyz               79     -0.903810  2 C  dyz        
   102     -0.792013  3 H  py               121     -0.792009  4 H  py         
     8     -0.585581  1 C  py                53     -0.585579  2 C  py         
    16     -0.421248  1 C  py                61     -0.421243  2 C  py         

 Vector   31  Occ=0.000000D+00  E= 4.404043D-01
              MO Center= -3.6D-14,  5.0D-14,  2.4D-06, r^2= 9.7D+00
   Bfn.  Coefficient  Atom+Function         Bfn.  Coefficient  Atom+Function  
  ----- ------------  ---------------      ----- ------------  ---------------
    94      4.083789  3 H  s                113     -4.083782  4 H  s          
    17      2.805241  1 C  pz                62      2.805253  2 C  pz         
    30     -1.815530  1 C  dxx               33     -1.815530  1 C  dyy        
    75      1.815529  2 C  dxx               78      1.815529  2 C  dyy        
    35     -1.741218  1 C  dzz               80      1.741207  2 C  dzz        

 Vector   32  Occ=0.000000D+00  E= 4.445549D-01
              MO Center=  3.9D-14,  7.6D-16, -1.0D-06, r^2= 6.0D+00
   Bfn.  Coefficient  Atom+Function         Bfn.  Coefficient  Atom+Function  
  ----- ------------  ---------------      ----- ------------  ---------------
   101      1.304430  3 H  px               120     -1.304433  4 H  px         
    15      1.258172  1 C  px                60     -1.258174  2 C  px         
    32      0.741090  1 C  dxz               77      0.741085  2 C  dxz        
     7      0.355921  1 C  px                52     -0.355923  2 C  px         
     3      0.150930  1 C  px                48     -0.150930  2 C  px         

 Vector   33  Occ=0.000000D+00  E= 4.445549D-01
              MO Center=  7.4D-16, -3.7D-14, -1.0D-06, r^2= 6.0D+00
   Bfn.  Coefficient  Atom+Function         Bfn.  Coefficient  Atom+Function  
  ----- ------------  ---------------      ----- ------------  ---------------
   102      1.304430  3 H  py               121     -1.304433  4 H  py         
    16      1.258172  1 C  py                61     -1.258174  2 C  py         
    34      0.741090  1 C  dyz               79      0.741085  2 C  dyz        
     8      0.355921  1 C  py                53     -0.355923  2 C  py         
     4      0.150930  1 C  py                49     -0.150930  2 C  py         

 Vector   34  Occ=0.000000D+00  E= 4.871884D-01
              MO Center=  2.0D-15,  5.8D-15, -2.5D-06, r^2= 1.0D+01
   Bfn.  Coefficient  Atom+Function         Bfn.  Coefficient  Atom+Function  
  ----- ------------  ---------------      ----- ------------  ---------------
    93     11.142674  3 H  s                112     11.142670  4 H  s          
    17     -6.964328  1 C  pz                62      6.964324  2 C  pz         
    14     -6.313852  1 C  s                 59     -6.313850  2 C  s          
    35     -5.783962  1 C  dzz               80     -5.783966  2 C  dzz        
    94      3.877662  3 H  s                113      3.877668  4 H  s          

 Vector   35  Occ=0.000000D+00  E= 5.670697D-01
              MO Center= -6.1D-16, -2.3D-15,  5.9D-08, r^2= 6.5D+00
   Bfn.  Coefficient  Atom+Function         Bfn.  Coefficient  Atom+Function  
  ----- ------------  ---------------      ----- ------------  ---------------
    14      5.926468  1 C  s                 59      5.926468  2 C  s          
    10      4.615521  1 C  s                 55      4.615521  2 C  s          
    17      4.592105  1 C  pz                62     -4.592106  2 C  pz         
    93     -4.126709  3 H  s                 94     -4.124286  3 H  s          
   112     -4.126711  4 H  s                113     -4.124285  4 H  s          


 center of mass
 --------------
 x =   0.00000000 y =   0.00000000 z =   0.00000000

 moments of inertia (a.u.)
 ------------------
          50.085803133232           0.000000000000           0.000000000000
           0.000000000000          50.085803133232           0.000000000000
           0.000000000000           0.000000000000           0.000000000000

     Multipole analysis of the density
     ---------------------------------

     L   x y z        total         alpha         beta         nuclear
     -   - - -        -----         -----         ----         -------
     0   0 0 0     -0.000000     -7.000000     -7.000000     14.000000

     1   1 0 0     -0.000000     -0.000000     -0.000000      0.000000
     1   0 1 0     -0.000000     -0.000000     -0.000000      0.000000
     1   0 0 1     -0.000004     -0.000002     -0.000002      0.000000

     2   2 0 0    -10.619135     -5.309568     -5.309568      0.000000
     2   1 1 0      0.000000      0.000000      0.000000      0.000000
     2   1 0 1      0.000000      0.000000      0.000000      0.000000
     2   0 2 0    -10.619135     -5.309568     -5.309568      0.000000
     2   0 1 1      0.000000      0.000000      0.000000      0.000000
     2   0 0 2     -5.263667    -20.110997    -20.110997     34.958326


 Parallel integral file used     210 records with       0 large values


            General Information
            -------------------
          SCF calculation type: DFT
          Wavefunction type:  closed shell.
          No. of atoms     :     4
          No. of electrons :    14
           Alpha electrons :     7
            Beta electrons :     7
          Charge           :     0
          Spin multiplicity:     1
          Use of symmetry is: off; symmetry adaption is: off
          Maximum number of iterations: ***
          AO basis - number of functions:   128
                     number of shells:    42
          Convergence on energy requested: 1.00D-06
          Convergence on density requested: 1.00D-05
          Convergence on gradient requested: 5.00D-04

              XC Information
              --------------
                  TPSS metaGGA Exchange Functional  1.000          
             TPSS03 metaGGA Correlation Functional  1.000          

             Grid Information
             ----------------
          Grid used for XC integration:  medium    
          Radial quadrature: Mura-Knowles        
          Angular quadrature: Lebedev. 
          Tag              B.-S. Rad. Rad. Pts. Rad. Cut. Ang. Pts.
          ---              ---------- --------- --------- ---------
          C                   0.70       49          12.0       434
          H                   0.35       45          13.0       434
          Grid pruning is: on 
          Number of quadrature shells:   188
          Spatial weights used:  Erf1

          Convergence Information
          -----------------------
          Convergence aids based upon iterative change in 
          total energy or number of iterations. 
          Levelshifting, if invoked, occurs when the 
          HOMO/LUMO gap drops below (HL_TOL): 1.00D-02
          DIIS, if invoked, will attempt to extrapolate 
          using up to (NFOCK): 10 stored Fock matrices.

                    Damping( 0%)  Levelshifting(0.5)       DIIS
                  --------------- ------------------- ---------------
          dE  on:    start            ASAP                start   
          dE off:    2 iters        *** iters           *** iters 


      Screening Tolerance Information
      -------------------------------
          Density screening/tol_rho: 1.00D-10
          AO Gaussian exp screening on grid/accAOfunc:  14
          CD Gaussian exp screening on grid/accCDfunc:  20
          XC Gaussian exp screening on grid/accXCfunc:  20
          Schwarz screening/accCoul: 1.00D-08



                            NWChem DFT Gradient Module
                            --------------------------



  charge          =   0.00
  wavefunction    = closed shell



                         DFT ENERGY GRADIENTS

    atom               coordinates                        gradient
                 x          y          z           x          y          z
   1 C       0.000000   0.000000   1.116956    0.000000  -0.000000  -0.049687
   2 C       0.000000   0.000000  -1.116956   -0.000000   0.000000   0.049687
   3 H       0.000000   0.000000  -3.161269   -0.000000  -0.000000  -0.013811
   4 H       0.000000   0.000000   3.161269   -0.000000  -0.000000   0.013811

                 ----------------------------------------
                 |  Time  |  1-e(secs)   |  2-e(secs)   |
                 ----------------------------------------
                 |  CPU   |       0.00   |       0.47   |
                 ----------------------------------------
                 |  WALL  |       0.00   |       0.48   |
                 ----------------------------------------
                               NWChem STEPPER Module
                               ---------------------


   Step sought for minimum. 
  Energy ratio, actual to predicted =   0.772708
   Update Hessian used. 
   Dependent rotation vector no.                    3
   found in ECKART; linear geometry  assumed. 
   Number of modes removed with force (in the spectral representation)
   less than:   0.000000 is:    4
   PARTIT has partitioned the input hessian 
   and gradient into two subspaces;  An 
   "external" hessian and gradient composed 
   of                     5  independent translations 
   and rotations, and an "internal" hessian 
   and gradient with a dimension of                     3
               e-diff         g-norm     g-max   
 value        0.0008020743  0.072932  0.049687
 thres        0.0001000000  0.010000  0.000800
[...]

 Vector   25  Occ=0.000000D+00  E= 2.929052D-01
              MO Center=  9.5D-16, -1.0D-14, -2.6D-05, r^2= 1.0D+01
   Bfn.  Coefficient  Atom+Function         Bfn.  Coefficient  Atom+Function  
  ----- ------------  ---------------      ----- ------------  ---------------
    93      8.515885  3 H  s                112     -8.515719  4 H  s          
    13      4.570080  1 C  pz                58      4.570114  2 C  pz         
    17      2.650049  1 C  pz                62      2.650215  2 C  pz         
    14      2.466366  1 C  s                 59     -2.466571  2 C  s          
    10      2.088317  1 C  s                 55     -2.088354  2 C  s          

 Vector   26  Occ=0.000000D+00  E= 2.980676D-01
              MO Center= -2.8D-14, -2.3D-15,  2.4D-05, r^2= 1.2D+01
   Bfn.  Coefficient  Atom+Function         Bfn.  Coefficient  Atom+Function  
  ----- ------------  ---------------      ----- ------------  ---------------
    14     12.839804  1 C  s                 59     12.839726  2 C  s          
    93     -9.581355  3 H  s                112     -9.581559  4 H  s          
    17      8.889638  1 C  pz                62     -8.889564  2 C  pz         
    94     -8.415786  3 H  s                113     -8.415881  4 H  s          
    10      3.902787  1 C  s                 55      3.902734  2 C  s          

 Vector   27  Occ=0.000000D+00  E= 4.069346D-01
              MO Center=  3.4D-15, -9.1D-16,  1.3D-06, r^2= 4.2D+00
   Bfn.  Coefficient  Atom+Function         Bfn.  Coefficient  Atom+Function  
  ----- ------------  ---------------      ----- ------------  ---------------
    30      1.059109  1 C  dxx               33     -1.059109  1 C  dyy        
    75     -1.059109  2 C  dxx               78      1.059109  2 C  dyy        

 Vector   28  Occ=0.000000D+00  E= 4.069348D-01
              MO Center= -3.7D-15, -2.6D-16,  1.3D-06, r^2= 4.2D+00
   Bfn.  Coefficient  Atom+Function         Bfn.  Coefficient  Atom+Function  
  ----- ------------  ---------------      ----- ------------  ---------------
    31      2.118218  1 C  dxy               76     -2.118217  2 C  dxy        

 Vector   29  Occ=0.000000D+00  E= 4.311612D-01
              MO Center= -1.8D-15, -5.9D-15,  1.2D-06, r^2= 4.8D+00
   Bfn.  Coefficient  Atom+Function         Bfn.  Coefficient  Atom+Function  
  ----- ------------  ---------------      ----- ------------  ---------------
    12      1.438944  1 C  py                57      1.438972  2 C  py         
    34      0.877081  1 C  dyz               79     -0.877034  2 C  dyz        
   102     -0.765118  3 H  py               121     -0.765133  4 H  py         
     8     -0.556378  1 C  py                53     -0.556379  2 C  py         
    11      0.484341  1 C  px                56      0.484351  2 C  px         

 Vector   30  Occ=0.000000D+00  E= 4.311612D-01
              MO Center=  2.9D-15,  6.3D-16,  1.2D-06, r^2= 4.8D+00
   Bfn.  Coefficient  Atom+Function         Bfn.  Coefficient  Atom+Function  
  ----- ------------  ---------------      ----- ------------  ---------------
    11      1.438944  1 C  px                56      1.438972  2 C  px         
    32      0.877081  1 C  dxz               77     -0.877034  2 C  dxz        
   101     -0.765118  3 H  px               120     -0.765133  4 H  px         
     7     -0.556378  1 C  px                52     -0.556379  2 C  px         
    12     -0.484341  1 C  py                57     -0.484351  2 C  py         

 Vector   31  Occ=0.000000D+00  E= 4.410184D-01
              MO Center=  2.3D-14, -1.1D-15, -2.1D-05, r^2= 9.8D+00
   Bfn.  Coefficient  Atom+Function         Bfn.  Coefficient  Atom+Function  
  ----- ------------  ---------------      ----- ------------  ---------------
    94      4.154361  3 H  s                113     -4.154423  4 H  s          
    17      2.813707  1 C  pz                62      2.813614  2 C  pz         
    93     -1.814438  3 H  s                112      1.814279  4 H  s          
    30     -1.797210  1 C  dxx               33     -1.797210  1 C  dyy        
    75      1.797225  2 C  dxx               78      1.797225  2 C  dyy        

 Vector   32  Occ=0.000000D+00  E= 4.469341D-01
              MO Center= -1.1D-15, -2.1D-15,  5.5D-06, r^2= 6.0D+00
   Bfn.  Coefficient  Atom+Function         Bfn.  Coefficient  Atom+Function  
  ----- ------------  ---------------      ----- ------------  ---------------
    16      1.153554  1 C  py                61     -1.153553  2 C  py         
   102      1.149109  3 H  py               121     -1.149110  4 H  py         
    15      0.455588  1 C  px                60     -0.455588  2 C  px         
   101      0.453832  3 H  px               120     -0.453833  4 H  px         
    12      0.347176  1 C  py                34      0.345526  1 C  dyz        

 Vector   33  Occ=0.000000D+00  E= 4.469341D-01
              MO Center= -9.2D-15,  2.8D-15,  5.5D-06, r^2= 6.0D+00
   Bfn.  Coefficient  Atom+Function         Bfn.  Coefficient  Atom+Function  
  ----- ------------  ---------------      ----- ------------  ---------------
    15      1.153554  1 C  px                60     -1.153553  2 C  px         
   101      1.149109  3 H  px               120     -1.149110  4 H  px         
    16     -0.455588  1 C  py                61      0.455588  2 C  py         
   102     -0.453832  3 H  py               121      0.453833  4 H  py         
    11      0.347176  1 C  px                32      0.345526  1 C  dxz        

 Vector   34  Occ=0.000000D+00  E= 4.922419D-01
              MO Center= -7.6D-15,  1.2D-14,  2.5D-05, r^2= 1.0D+01
   Bfn.  Coefficient  Atom+Function         Bfn.  Coefficient  Atom+Function  
  ----- ------------  ---------------      ----- ------------  ---------------
    93     11.430703  3 H  s                112     11.430806  4 H  s          
    17     -6.889748  1 C  pz                62      6.889767  2 C  pz         
    14     -6.485794  1 C  s                 59     -6.485778  2 C  s          
    35     -5.761012  1 C  dzz               80     -5.760975  2 C  dzz        
    94      3.985102  3 H  s                113      3.985080  4 H  s          

 Vector   35  Occ=0.000000D+00  E= 5.661306D-01
              MO Center= -6.0D-15, -6.5D-15, -7.8D-06, r^2= 6.5D+00
   Bfn.  Coefficient  Atom+Function         Bfn.  Coefficient  Atom+Function  
  ----- ------------  ---------------      ----- ------------  ---------------
    14      5.852609  1 C  s                 59      5.852616  2 C  s          
    10      4.579192  1 C  s                 55      4.579213  2 C  s          
    17      4.403851  1 C  pz                62     -4.403860  2 C  pz         
    94     -4.087216  3 H  s                113     -4.087223  4 H  s          
    93     -3.979945  3 H  s                112     -3.979891  4 H  s          


 center of mass
 --------------
 x =   0.00000000 y =   0.00000000 z =   0.00000127

 moments of inertia (a.u.)
 ------------------
          50.648338288324           0.000000000000           0.000000000000
           0.000000000000          50.648338288324           0.000000000000
           0.000000000000           0.000000000000           0.000000000000

     Multipole analysis of the density
     ---------------------------------

     L   x y z        total         alpha         beta         nuclear
     -   - - -        -----         -----         ----         -------
     0   0 0 0     -0.000000     -7.000000     -7.000000     14.000000

     1   1 0 0      0.000000      0.000000      0.000000      0.000000
     1   0 1 0      0.000000      0.000000      0.000000      0.000000
     1   0 0 1      0.000001     -0.000007     -0.000007      0.000015

     2   2 0 0    -10.632169     -5.316085     -5.316085      0.000000
     2   1 1 0      0.000000      0.000000      0.000000      0.000000
     2   1 0 1      0.000000      0.000000      0.000000      0.000000
     2   0 2 0    -10.632169     -5.316085     -5.316085      0.000000
     2   0 1 1      0.000000      0.000000      0.000000      0.000000
     2   0 0 2     -5.330806    -20.218967    -20.218967     35.107128


 Parallel integral file used     212 records with       0 large values


            General Information
            -------------------
          SCF calculation type: DFT
          Wavefunction type:  closed shell.
          No. of atoms     :     4
          No. of electrons :    14
           Alpha electrons :     7
            Beta electrons :     7
          Charge           :     0
          Spin multiplicity:     1
          Use of symmetry is: off; symmetry adaption is: off
          Maximum number of iterations: ***
          AO basis - number of functions:   128
                     number of shells:    42
          Convergence on energy requested: 1.00D-06
          Convergence on density requested: 1.00D-05
          Convergence on gradient requested: 5.00D-04

              XC Information
              --------------
                  TPSS metaGGA Exchange Functional  1.000          
             TPSS03 metaGGA Correlation Functional  1.000          

             Grid Information
             ----------------
          Grid used for XC integration:  medium    
          Radial quadrature: Mura-Knowles        
          Angular quadrature: Lebedev. 
          Tag              B.-S. Rad. Rad. Pts. Rad. Cut. Ang. Pts.
          ---              ---------- --------- --------- ---------
          C                   0.70       49          12.0       434
          H                   0.35       45          13.0       434
          Grid pruning is: on 
          Number of quadrature shells:   188
          Spatial weights used:  Erf1

          Convergence Information
          -----------------------
          Convergence aids based upon iterative change in 
          total energy or number of iterations. 
          Levelshifting, if invoked, occurs when the 
          HOMO/LUMO gap drops below (HL_TOL): 1.00D-02
          DIIS, if invoked, will attempt to extrapolate 
          using up to (NFOCK): 10 stored Fock matrices.

                    Damping( 0%)  Levelshifting(0.5)       DIIS
                  --------------- ------------------- ---------------
          dE  on:    start            ASAP                start   
          dE off:    2 iters        *** iters           *** iters 


      Screening Tolerance Information
      -------------------------------
          Density screening/tol_rho: 1.00D-10
          AO Gaussian exp screening on grid/accAOfunc:  14
          CD Gaussian exp screening on grid/accCDfunc:  20
          XC Gaussian exp screening on grid/accXCfunc:  20
          Schwarz screening/accCoul: 1.00D-08



                            NWChem DFT Gradient Module
                            --------------------------



  charge          =   0.00
  wavefunction    = closed shell



                         DFT ENERGY GRADIENTS

    atom               coordinates                        gradient
                 x          y          z           x          y          z
   1 C       0.000000   0.000000   1.132363    0.000000  -0.000000   0.000060
   2 C       0.000000   0.000000  -1.132360    0.000000   0.000000  -0.000058
   3 H       0.000000   0.000000  -3.140083   -0.000000  -0.000000   0.000064
   4 H       0.000000   0.000000   3.140080   -0.000000   0.000000  -0.000066

                 ----------------------------------------
                 |  Time  |  1-e(secs)   |  2-e(secs)   |
                 ----------------------------------------
                 |  CPU   |       0.00   |       0.47   |
                 ----------------------------------------
                 |  WALL  |       0.00   |       0.48   |
                 ----------------------------------------
                               NWChem STEPPER Module
                               ---------------------


   Step sought for minimum. 
   Actual energy difference is :    5.7586885304772295E-007
   2nd order predicted energy difference  was :   -3.4478629220816270E-005
   One of these is below the energy  tolerance:    1.0000000000000000E-004
   Backstepping possibilities are NO 
   longer considered appropriate. 
   Update Hessian used. 
   Dependent rotation vector no.                    3
   found in ECKART; linear geometry  assumed. 
   Number of modes removed with force (in the spectral representation)
   less than:   0.000000 is:    4
   PARTIT has partitioned the input hessian 
   and gradient into two subspaces;  An 
   "external" hessian and gradient composed 
   of                     5  independent translations 
   and rotations, and an "internal" hessian 
   and gradient with a dimension of                     3
               e-diff         g-norm     g-max   
 value        0.0000005759  0.000124  0.000066
 thres        0.0001000000  0.010000  0.000800
   ENERGY =   -77.349196538477656     
   The hessian exhibits the "proper" 
   structure, and the gradient and energy 
   convergence criterion has been met.  
   This geometry walk is HISTORY.
   Calculating the Newton-Raphson step. 
  The length (norm) of the STEP is   0.000244

  The lowest few components in the bases 
  generated by the spectral decomposition 
  of the internal hessian (non-zero force). 

  Component  Hessian     Grad      Step   Scaled-Step
  ---------  --------  --------  -------- -----------
       1     0.31D+00  0.75D-04  -.24D-03  -.24D-03
       2     0.10D+01  0.22D-05  -.22D-05  -.22D-05
       3     0.27D+01  0.99D-04  -.36D-04  -.36D-04

  Clean-up the step; truncate at:   0.000001
  In cartesian coordinates; norm of this step is:   0.000245



  ---------------- Converged geometry ----------------


                         Geometry "g-5-step" -> "g-5-step"
                         ---------------------------------

 Output coordinates in angstroms (scale by  1.889725989 to convert to a.u.)

  No.       Tag          Charge          X              Y              Z
 ---- ---------------- ---------- -------------- -------------- --------------
    1 C                    6.0000     0.00000000     0.00000000     0.59922051
    2 C                    6.0000     0.00000000     0.00000000    -0.59921893
    3 H                    1.0000     0.00000000     0.00000000    -1.66166070
    4 H                    1.0000     0.00000000     0.00000000     1.66165911

      Atomic Mass 
      ----------- 

      C                 12.000000
      H                  1.007825


 Effective nuclear repulsion energy (a.u.)      24.8408452730

            Nuclear Dipole moment (a.u.) 
            ----------------------------
        X                 Y               Z
 ---------------- ---------------- ----------------
     0.0000000000     0.0000000000     0.0000150000

 ==============================================================================
                                internuclear distances
 ------------------------------------------------------------------------------
       center one      |      center two      | atomic units |  angstroms
 ------------------------------------------------------------------------------
    2 C                |   1 C                |     2.26472  |     1.19844
    3 H                |   2 C                |     2.00772  |     1.06244
    4 H                |   1 C                |     2.00772  |     1.06244
 ------------------------------------------------------------------------------
                         number of included internuclear distances:          3
 ==============================================================================



 ==============================================================================
                                 internuclear angles
 ------------------------------------------------------------------------------
        center 1       |       center 2       |       center 3       |  degrees
 ------------------------------------------------------------------------------
    2 C                |   1 C                |   4 H                |   180.00
    1 C                |   2 C                |   3 H                |   180.00
 ------------------------------------------------------------------------------
                            number of included internuclear angles:          2
 ==============================================================================




 Task  times  cpu:       17.0s     wall:       21.2s


                                NWChem Input Module
                                -------------------


 Summary of allocated global arrays
-----------------------------------
  No active global arrays



                         GA Statistics for process    0
                         ------------------------------

       create   destroy   get      put      acc     scatter   gather  read&inc
calls:  854      854     3.41e+04 6222     2868        0        0      540     
number of processes/call 1.78e+00 2.51e+00 3.90e+00 0.00e+00 0.00e+00
bytes total:             2.05e+08 2.77e+07 9.19e+07 0.00e+00 0.00e+00 4.32e+03
bytes remote:            1.72e+08 1.66e+07 8.05e+07 0.00e+00 0.00e+00 0.00e+00
Max memory consumed for GA by this process: 583200 bytes

MA_summarize_allocated_blocks: starting scan ...
MA_summarize_allocated_blocks: scan completed: 0 heap blocks, 0 stack blocks
MA usage statistics:

	allocation statistics:
					      heap	     stack
					      ----	     -----
	current number of blocks	         0	         0
	maximum number of blocks	        23	        51
	current total bytes		         0	         0
	maximum total bytes		  35975808	  42516072
	maximum total K-bytes		     35976	     42517
	maximum total M-bytes		        36	        43


                                     CITATION
                                     --------
                Please cite the following reference when publishing
                           results obtained with NWChem:

                 M. Valiev, E.J. Bylaska, N. Govind, K. Kowalski,
              T.P. Straatsma, H.J.J. van Dam, D. Wang, J. Nieplocha,
                        E. Apra, T.L. Windus, W.A. de Jong
                 "NWChem: a comprehensive and scalable open-source
                  solution for large scale molecular simulations"
                      Comput. Phys. Commun. 181, 1477 (2010)
                           doi:10.1016/j.cpc.2010.04.018

                                      AUTHORS
                                      -------
          E. Apra, E. J. Bylaska, W. A. de Jong, N. Govind, K. Kowalski,
       T. P. Straatsma, M. Valiev, H. J. J. van Dam, D. Wang, T. L. Windus,
        J. Hammond, J. Autschbach, K. Bhaskaran-Nair, J. Brabec, K. Lopata,
       S. A. Fischer, S. Krishnamoorthy, W. Ma, M. Klemm, O. Villa, Y. Chen,
    V. Anisimov, F. Aquino, S. Hirata, M. T. Hackler, T. Risthaus, M. Malagoli,
       A. Marenich, A. Otero-de-la-Roza, J. Mullin, P. Nichols, R. Peverati,
     J. Pittner, Y. Zhao, P.-D. Fan, A. Fonari, M. Williamson, R. J. Harrison,
       J. R. Rehr, M. Dupuis, D. Silverstein, D. M. A. Smith, J. Nieplocha,
        V. Tipparaju, M. Krishnan, B. E. Van Kuiken, A. Vazquez-Mayagoitia,
        L. Jensen, M. Swart, Q. Wu, T. Van Voorhis, A. A. Auer, M. Nooijen,
      L. D. Crosby, E. Brown, G. Cisneros, G. I. Fann, H. Fruchtl, J. Garza,
        K. Hirao, R. A. Kendall, J. A. Nichols, K. Tsemekhman, K. Wolinski,
     J. Anchell, D. E. Bernholdt, P. Borowski, T. Clark, D. Clerc, H. Dachsel,
   M. J. O. Deegan, K. Dyall, D. Elwood, E. Glendening, M. Gutowski, A. C. Hess,
         J. Jaffe, B. G. Johnson, J. Ju, R. Kobayashi, R. Kutteh, Z. Lin,
   R. Littlefield, X. Long, B. Meng, T. Nakajima, S. Niu, L. Pollack, M. Rosing,
   K. Glaesemann, G. Sandrone, M. Stave, H. Taylor, G. Thomas, J. H. van Lenthe,
                               A. T. Wong, Z. Zhang.

 Total times  cpu:       17.2s     wall:       21.4s
