[1537857111.451047] [r8n4:10631:0]         sys.c:744  MXM  WARN  Conflicting CPU frequencies detected, using: 2099.38
[1537857111.460581] [r8n4:10635:0]         sys.c:744  MXM  WARN  Conflicting CPU frequencies detected, using: 1850.15
[1537857111.461004] [r8n4:10636:0]         sys.c:744  MXM  WARN  Conflicting CPU frequencies detected, using: 1850.15
[1537857111.461067] [r8n4:10634:0]         sys.c:744  MXM  WARN  Conflicting CPU frequencies detected, using: 1850.15
[1537857111.461480] [r8n4:10633:0]         sys.c:744  MXM  WARN  Conflicting CPU frequencies detected, using: 1850.15
[1537857111.462235] [r8n4:10637:0]         sys.c:744  MXM  WARN  Conflicting CPU frequencies detected, using: 1850.15
[1537857111.462249] [r8n4:10632:0]         sys.c:744  MXM  WARN  Conflicting CPU frequencies detected, using: 1850.15
[1537857111.462278] [r8n4:10639:0]         sys.c:744  MXM  WARN  Conflicting CPU frequencies detected, using: 1850.15
[1537857111.470833] [r8n4:10643:0]         sys.c:744  MXM  WARN  Conflicting CPU frequencies detected, using: 1850.15
[1537857111.472450] [r8n4:10641:0]         sys.c:744  MXM  WARN  Conflicting CPU frequencies detected, using: 1850.15
[1537857111.502254] [r8n4:10651:0]         sys.c:744  MXM  WARN  Conflicting CPU frequencies detected, using: 1996.42
[1537857111.502288] [r8n4:10648:0]         sys.c:744  MXM  WARN  Conflicting CPU frequencies detected, using: 1996.42
[1537857111.502288] [r8n4:10645:0]         sys.c:744  MXM  WARN  Conflicting CPU frequencies detected, using: 1996.42
[1537857111.502290] [r8n4:10650:0]         sys.c:744  MXM  WARN  Conflicting CPU frequencies detected, using: 1996.42
[1537857111.502375] [r8n4:10655:0]         sys.c:744  MXM  WARN  Conflicting CPU frequencies detected, using: 1996.42
[1537857111.502554] [r8n4:10653:0]         sys.c:744  MXM  WARN  Conflicting CPU frequencies detected, using: 1996.42
 argument  1 = /storage/home/bikashp/nwchem_run/rabeet/mgbl19/nwmgbl19/CH4.xyz.nw
                                         
                                         


              Northwest Computational Chemistry Package (NWChem) 6.6
              ------------------------------------------------------


                    Environmental Molecular Sciences Laboratory
                       Pacific Northwest National Laboratory
                                Richland, WA 99352

                              Copyright (c) 1994-2015
                       Pacific Northwest National Laboratory
                            Battelle Memorial Institute

             NWChem is an open-source computational chemistry package
                        distributed under the terms of the
                      Educational Community License (ECL) 2.0
             A copy of the license is included with this distribution
                              in the LICENSE.TXT file

                                  ACKNOWLEDGMENT
                                  --------------

            This software and its documentation were developed at the
            EMSL at Pacific Northwest National Laboratory, a multiprogram
            national laboratory, operated for the U.S. Department of Energy
            by Battelle under Contract Number DE-AC05-76RL01830. Support
            for this work was provided by the Department of Energy Office
            of Biological and Environmental Research, Office of Basic
            Energy Sciences, and the Office of Advanced Scientific Computing.


           Job information
           ---------------

    hostname        = r8n4.niserhpc.org
    program         = /home/bikashp/Code/nwchem-6.6_tpssloc/bin/LINUX64/nwchem
    date            = Tue Sep 25 12:01:54 2018

    compiled        = Tue_Sep_18_16:24:59_2018
    source          = /home/bikashp/Code/nwchem-6.6_tpssloc
    nwchem branch   = 6.6
    nwchem revision = 27746
    ga revision     = 10594
    input           = /storage/home/bikashp/nwchem_run/rabeet/mgbl19/nwmgbl19/CH4.xyz.nw
    prefix          = CH4.xyz.
    data base       = ./CH4.xyz.db
    status          = startup
    nproc           =       16
    time left       =     -1s



           Memory information
           ------------------

    heap     =   13107196 doubles =    100.0 Mbytes
    stack    =   13107201 doubles =    100.0 Mbytes
    global   =   26214400 doubles =    200.0 Mbytes (distinct from heap & stack)
    total    =   52428797 doubles =    400.0 Mbytes
    verify   = yes
    hardfail = no 


           Directory information
           ---------------------

  0 permanent = .
  0 scratch   = .




                                NWChem Input Module
                                -------------------



 Scaling coordinates for geometry "geometry" by  1.889725989
 (inverse scale =  0.529177249)



                             Geometry "geometry" -> ""
                             -------------------------

 Output coordinates in angstroms (scale by  1.889725989 to convert to a.u.)

  No.       Tag          Charge          X              Y              Z
 ---- ---------------- ---------- -------------- -------------- --------------
    1 C                    6.0000     0.00000000     0.00000000     0.00000100
    2 H                    1.0000     0.00000000     0.00000000     1.08947100
    3 H                    1.0000     1.02716000     0.00000000    -0.36315900
    4 H                    1.0000    -0.51358000     0.88955000    -0.36315900
    5 H                    1.0000    -0.51358000    -0.88955000    -0.36315900

      Atomic Mass 
      ----------- 

      C                 12.000000
      H                  1.007825


 Effective nuclear repulsion energy (a.u.)      13.4419179686

            Nuclear Dipole moment (a.u.) 
            ----------------------------
        X                 Y               Z
 ---------------- ---------------- ----------------
     0.0000000000     0.0000000000     0.0000000000


            XYZ format geometry
            -------------------
     5
 geometry
 C                     0.00000000     0.00000000     0.00000100
 H                     0.00000000     0.00000000     1.08947100
 H                     1.02716000     0.00000000    -0.36315900
 H                    -0.51358000     0.88955000    -0.36315900
 H                    -0.51358000    -0.88955000    -0.36315900

 ==============================================================================
                                internuclear distances
 ------------------------------------------------------------------------------
       center one      |      center two      | atomic units |  angstroms
 ------------------------------------------------------------------------------
    2 H                |   1 C                |     2.05880  |     1.08947
    3 H                |   1 C                |     2.05880  |     1.08947
    4 H                |   1 C                |     2.05880  |     1.08947
    5 H                |   1 C                |     2.05880  |     1.08947
 ------------------------------------------------------------------------------
                         number of included internuclear distances:          4
 ==============================================================================



 ==============================================================================
                                 internuclear angles
 ------------------------------------------------------------------------------
        center 1       |       center 2       |       center 3       |  degrees
 ------------------------------------------------------------------------------
    2 H                |   1 C                |   3 H                |   109.47
    2 H                |   1 C                |   4 H                |   109.47
    2 H                |   1 C                |   5 H                |   109.47
    3 H                |   1 C                |   4 H                |   109.47
    3 H                |   1 C                |   5 H                |   109.47
    4 H                |   1 C                |   5 H                |   109.47
 ------------------------------------------------------------------------------
                            number of included internuclear angles:          6
 ==============================================================================





 Summary of "ao basis" -> "" (cartesian)
 ------------------------------------------------------------------------------
       Tag                 Description            Shells   Functions and Types
 ---------------- ------------------------------  ------  ---------------------
 *                     6-311++G(3df,3pd)              on all atoms 




                           NWChem Geometry Optimization
                           ----------------------------



                                 NWChem DFT Module
                                 -----------------


                      Basis "ao basis" -> "ao basis" (cartesian)
                      -----
  C (Carbon)
  ----------
            Exponent  Coefficients 
       -------------- ---------------------------------------------------------
  1 S  4.56324000E+03  0.001967
  1 S  6.82024000E+02  0.015231
  1 S  1.54973000E+02  0.076127
  1 S  4.44553000E+01  0.260801
  1 S  1.30290000E+01  0.616462
  1 S  1.82773000E+00  0.221006

  2 S  2.09642000E+01  0.114660
  2 S  4.80331000E+00  0.919999
  2 S  1.45933000E+00 -0.003031

  3 P  2.09642000E+01  0.040249
  3 P  4.80331000E+00  0.237594
  3 P  1.45933000E+00  0.815854

  4 S  4.83456000E-01  1.000000

  5 P  4.83456000E-01  1.000000

  6 S  1.45585000E-01  1.000000

  7 P  1.45585000E-01  1.000000

  8 S  4.38000000E-02  1.000000

  9 P  4.38000000E-02  1.000000

 10 D  2.50400000E+00  1.000000

 11 D  6.26000000E-01  1.000000

 12 D  1.56500000E-01  1.000000

 13 F  8.00000000E-01  1.000000

  H (Hydrogen)
  ------------
            Exponent  Coefficients 
       -------------- ---------------------------------------------------------
  1 S  3.38650000E+01  0.025494
  1 S  5.09479000E+00  0.190373
  1 S  1.15879000E+00  0.852161

  2 S  3.25840000E-01  1.000000

  3 S  1.02741000E-01  1.000000

  4 S  3.60000000E-02  1.000000

  5 P  3.00000000E+00  1.000000

  6 P  7.50000000E-01  1.000000

  7 P  1.87500000E-01  1.000000

  8 D  1.00000000E+00  1.000000



 Summary of "ao basis" -> "ao basis" (cartesian)
 ------------------------------------------------------------------------------
       Tag                 Description            Shells   Functions and Types
 ---------------- ------------------------------  ------  ---------------------
 C                     6-311++G(3df,3pd)            13       45   5s4p3d1f
 H                     6-311++G(3df,3pd)             8       19   4s3p1d




 Summary of "ao basis" -> "ao basis" (cartesian)
 ------------------------------------------------------------------------------
       Tag                 Description            Shells   Functions and Types
 ---------------- ------------------------------  ------  ---------------------
 C                     6-311++G(3df,3pd)            13       45   5s4p3d1f
 H                     6-311++G(3df,3pd)             8       19   4s3p1d


  Caching 1-el integrals 

            General Information
            -------------------
          SCF calculation type: DFT
          Wavefunction type:  closed shell.
          No. of atoms     :     5
          No. of electrons :    10
           Alpha electrons :     5
            Beta electrons :     5
          Charge           :     0
          Spin multiplicity:     1
          Use of symmetry is: off; symmetry adaption is: off
          Maximum number of iterations: ***
          AO basis - number of functions:   121
                     number of shells:    45
          Convergence on energy requested: 1.00D-06
          Convergence on density requested: 1.00D-05
          Convergence on gradient requested: 5.00D-04

              XC Information
              --------------
                  TPSS metaGGA Exchange Functional  1.000          
             TPSS03 metaGGA Correlation Functional  1.000          

             Grid Information
             ----------------
          Grid used for XC integration:  medium    
          Radial quadrature: Mura-Knowles        
          Angular quadrature: Lebedev. 
          Tag              B.-S. Rad. Rad. Pts. Rad. Cut. Ang. Pts.
          ---              ---------- --------- --------- ---------
          C                   0.70       49          10.0       434
          H                   0.35       45          11.0       434
          Grid pruning is: on 
          Number of quadrature shells:   229
          Spatial weights used:  Erf1

          Convergence Information
          -----------------------
          Convergence aids based upon iterative change in 
          total energy or number of iterations. 
          Levelshifting, if invoked, occurs when the 
          HOMO/LUMO gap drops below (HL_TOL): 1.00D-02
          DIIS, if invoked, will attempt to extrapolate 
          using up to (NFOCK): 10 stored Fock matrices.

                    Damping( 0%)  Levelshifting(0.5)       DIIS
                  --------------- ------------------- ---------------
          dE  on:    start            ASAP                start   
          dE off:    2 iters        *** iters           *** iters 


      Screening Tolerance Information
      -------------------------------
          Density screening/tol_rho: 1.00D-10
          AO Gaussian exp screening on grid/accAOfunc:  14
          CD Gaussian exp screening on grid/accCDfunc:  20
          XC Gaussian exp screening on grid/accXCfunc:  20
          Schwarz screening/accCoul: 1.00D-08


      Superposition of Atomic Density Guess
      -------------------------------------

 Sum of atomic energies:         -39.66839054

      Non-variational initial energy
      ------------------------------

 Total energy =     -40.247179
 1-e energy   =     -78.246165
 2-e energy   =      24.557068
 HOMO         =      -0.524076
 LUMO         =       0.022957

   Time after variat. SCF:      0.3
   Time prior to 1st pass:      0.3

 Integral file          = ./CH4.xyz.aoints.00
 Record size in doubles =    65536    No. of integs per rec  =    43688
 Max. records in memory =       54    Max. records in file   = 11666381
 No. of bits per label  =        8    No. of bits per value  =       64


 #quartets = 5.354D+05 #integrals = 2.366D+07 #direct =  0.0% #cached =100.0%


File balance: exchanges=     8  moved=    14  time=   0.0


 Grid_pts file          = ./CH4.xyz.gridpts.00
 Record size in doubles =  12289        No. of grid_pts per rec  =   3070
 Max. records in memory =      4        Max. recs in file   =  62215640


           Memory utilization after 1st SCF pass: 
           Heap Space remaining (MW):        9.52             9515556
          Stack Space remaining (MW):       13.11            13106428

   convergence    iter        energy       DeltaE   RMS-Dens  Diis-err    time
 ---------------- ----- ----------------- --------- --------- ---------  ------
 d= 0,ls=0.0,diis     1    -40.5215014868 -5.40D+01  5.25D-03  2.58D-01     0.9
 d= 0,ls=0.0,diis     2    -40.4938892237  2.76D-02  1.82D-03  1.27D-01     1.1
 d= 0,ls=0.0,diis     3    -40.5167608034 -2.29D-02  5.30D-04  2.85D-02     1.4
 d= 0,ls=0.0,diis     4    -40.5141783187  2.58D-03  9.70D-05  2.62D-04     1.7
 d= 0,ls=0.0,diis     5    -40.5141798697 -1.55D-06  1.36D-05  4.82D-06     1.9
  Resetting Diis
 d= 0,ls=0.0,diis     6    -40.5142441168 -6.42D-05  1.13D-06  1.06D-08     2.2
 d= 0,ls=0.0,diis     7    -40.5142435954  5.21D-07  4.81D-08  1.95D-11     2.4


         Total DFT energy =      -40.514243595408
      One electron energy =      -79.548027464839
           Coulomb energy =       32.417531086027
          Exchange energy =       -6.527677465706
       Correlation energy =       -0.297987719510
 Nuclear repulsion energy =       13.441917968620

 Numeric. integr. density =       10.000002754396

     Total iterative time =      2.1s



                       DFT Final Molecular Orbital Analysis
                       ------------------------------------

 Vector    1  Occ=2.000000D+00  E=-1.003840D+01
              MO Center=  5.3D-10,  9.2D-13,  1.0D-06, r^2= 2.8D-02
   Bfn.  Coefficient  Atom+Function         Bfn.  Coefficient  Atom+Function  
  ----- ------------  ---------------      ----- ------------  ---------------
     1      0.562047  1 C  s                  2      0.465933  1 C  s          

 Vector    2  Occ=2.000000D+00  E=-6.959822D-01
              MO Center=  2.0D-06,  6.4D-10, -1.2D-06, r^2= 1.0D+00
   Bfn.  Coefficient  Atom+Function         Bfn.  Coefficient  Atom+Function  
  ----- ------------  ---------------      ----- ------------  ---------------
    10      0.566687  1 C  s                  6      0.366770  1 C  s          
     2     -0.185713  1 C  s          

 Vector    3  Occ=2.000000D+00  E=-4.083016D-01
              MO Center=  1.2D-01,  3.0D-06,  2.6D-01, r^2= 1.3D+00
   Bfn.  Coefficient  Atom+Function         Bfn.  Coefficient  Atom+Function  
  ----- ------------  ---------------      ----- ------------  ---------------
    13      0.258990  1 C  pz                47      0.252038  2 H  s          
     9      0.244943  1 C  pz                 5      0.191810  1 C  pz         
    66     -0.169352  3 H  s                 46      0.152882  2 H  s          

 Vector    4  Occ=2.000000D+00  E=-4.083008D-01
              MO Center= -2.2D-01,  1.5D-04, -1.6D-01, r^2= 1.3D+00
   Bfn.  Coefficient  Atom+Function         Bfn.  Coefficient  Atom+Function  
  ----- ------------  ---------------      ----- ------------  ---------------
    12      0.275190  1 C  py                 8      0.260261  1 C  py         
    85      0.218697  4 H  s                104     -0.218611  5 H  s          
     4      0.203804  1 C  py         

 Vector    5  Occ=2.000000D+00  E=-4.083006D-01
              MO Center=  9.6D-02, -1.5D-04, -1.0D-01, r^2= 1.3D+00
   Bfn.  Coefficient  Atom+Function         Bfn.  Coefficient  Atom+Function  
  ----- ------------  ---------------      ----- ------------  ---------------
    11      0.258991  1 C  px                 7      0.244944  1 C  px         
    66      0.207456  3 H  s                  3      0.191809  1 C  px         

 Vector    6  Occ=0.000000D+00  E=-2.006862D-02
              MO Center= -1.4D-06,  2.9D-09, -6.4D-06, r^2= 9.3D+00
   Bfn.  Coefficient  Atom+Function         Bfn.  Coefficient  Atom+Function  
  ----- ------------  ---------------      ----- ------------  ---------------
    14      3.031810  1 C  s                 10      1.001427  1 C  s          
    49     -0.856038  2 H  s                 68     -0.856041  3 H  s          
    87     -0.856039  4 H  s                106     -0.856039  5 H  s          
    48     -0.407509  2 H  s                 67     -0.407524  3 H  s          
    86     -0.407511  4 H  s                105     -0.407511  5 H  s          

 Vector    7  Occ=0.000000D+00  E= 3.298397D-02
              MO Center= -9.5D-01,  4.9D-04, -6.7D-01, r^2= 1.1D+01
   Bfn.  Coefficient  Atom+Function         Bfn.  Coefficient  Atom+Function  
  ----- ------------  ---------------      ----- ------------  ---------------
    87      2.965614  4 H  s                106     -2.964724  5 H  s          
    16     -0.831974  1 C  py                86     -0.440559  4 H  s          
   105      0.440427  5 H  s                 12      0.223388  1 C  py         
    31     -0.211176  1 C  dxy                8     -0.157300  1 C  py         
    95      0.151656  4 H  py               114      0.151610  5 H  py         

 Vector    8  Occ=0.000000D+00  E= 3.298405D-02
              MO Center= -1.8D-01, -3.3D-04,  1.3D+00, r^2= 1.1D+01
   Bfn.  Coefficient  Atom+Function         Bfn.  Coefficient  Atom+Function  
  ----- ------------  ---------------      ----- ------------  ---------------
    49      3.591412  2 H  s                 87     -1.450398  4 H  s          
   106     -1.451616  5 H  s                 17     -0.822760  1 C  pz         
    68     -0.689379  3 H  s                 48     -0.533543  2 H  s          
    58      0.224689  2 H  pz                13      0.220927  1 C  pz         
    86      0.215466  4 H  s                105      0.215647  5 H  s          

 Vector    9  Occ=0.000000D+00  E= 3.298414D-02
              MO Center=  1.1D+00, -1.6D-04, -6.3D-01, r^2= 1.1D+01
   Bfn.  Coefficient  Atom+Function         Bfn.  Coefficient  Atom+Function  
  ----- ------------  ---------------      ----- ------------  ---------------
    68      3.565537  3 H  s                 87     -1.513200  4 H  s          
   106     -1.513777  5 H  s                 15     -0.822757  1 C  px         
    49     -0.538546  2 H  s                 67     -0.529689  3 H  s          
    86      0.224807  4 H  s                105      0.224892  5 H  s          
    11      0.220924  1 C  px                75      0.210340  3 H  px         

 Vector   10  Occ=0.000000D+00  E= 5.788458D-02
              MO Center= -6.2D-01,  2.8D-05,  3.8D-01, r^2= 6.2D+00
   Bfn.  Coefficient  Atom+Function         Bfn.  Coefficient  Atom+Function  
  ----- ------------  ---------------      ----- ------------  ---------------
    67      2.579782  3 H  s                 15     -2.311409  1 C  px         
    68      2.074415  3 H  s                 11     -1.278659  1 C  px         
    86     -1.157126  4 H  s                105     -1.157247  5 H  s          
    87     -0.930420  4 H  s                106     -0.930517  5 H  s          
    66      0.528860  3 H  s                 75     -0.326467  3 H  px         

 Vector   11  Occ=0.000000D+00  E= 5.788508D-02
              MO Center=  5.5D-01,  1.8D-04,  3.9D-01, r^2= 6.3D+00
   Bfn.  Coefficient  Atom+Function         Bfn.  Coefficient  Atom+Function  
  ----- ------------  ---------------      ----- ------------  ---------------
    16      2.323039  1 C  py                86     -2.168215  4 H  s          
   105      2.168612  5 H  s                 87     -1.743409  4 H  s          
   106      1.743729  5 H  s                 12      1.285098  1 C  py         
    85     -0.444480  4 H  s                104      0.444561  5 H  s          
    95      0.242840  4 H  py               114      0.242881  5 H  py         

 Vector   12  Occ=0.000000D+00  E= 5.788513D-02
              MO Center=  7.2D-02, -2.0D-04, -7.7D-01, r^2= 6.1D+00
   Bfn.  Coefficient  Atom+Function         Bfn.  Coefficient  Atom+Function  
  ----- ------------  ---------------      ----- ------------  ---------------
    48      2.642448  2 H  s                 17     -2.311436  1 C  pz         
    49      2.124801  2 H  s                 13     -1.278660  1 C  pz         
    86     -1.006453  4 H  s                105     -1.005459  5 H  s          
    87     -0.809297  4 H  s                106     -0.808498  5 H  s          
    67     -0.630534  3 H  s                 47      0.541701  2 H  s          

 Vector   13  Occ=0.000000D+00  E= 9.610789D-02
              MO Center= -2.8D-06,  3.3D-09, -1.9D-05, r^2= 1.6D+01
   Bfn.  Coefficient  Atom+Function         Bfn.  Coefficient  Atom+Function  
  ----- ------------  ---------------      ----- ------------  ---------------
    14     13.771171  1 C  s                 49     -2.732843  2 H  s          
    68     -2.732889  3 H  s                 87     -2.732891  4 H  s          
   106     -2.732891  5 H  s                 10      2.009822  1 C  s          
    48     -1.291287  2 H  s                 67     -1.291284  3 H  s          
    86     -1.291285  4 H  s                105     -1.291285  5 H  s          

 Vector   14  Occ=0.000000D+00  E= 1.471814D-01
              MO Center= -2.5D-01,  4.1D-03,  5.1D-01, r^2= 1.1D+01
   Bfn.  Coefficient  Atom+Function         Bfn.  Coefficient  Atom+Function  
  ----- ------------  ---------------      ----- ------------  ---------------
    49      5.074454  2 H  s                 87     -3.519900  4 H  s          
   106     -3.497320  5 H  s                 17     -2.383456  1 C  pz         
    68      1.942800  3 H  s                 15     -1.810552  1 C  px         
    48     -1.492664  2 H  s                 13      1.116842  1 C  pz         
    86      1.035372  4 H  s                105      1.028730  5 H  s          

 Vector   15  Occ=0.000000D+00  E= 1.471814D-01
              MO Center= -8.1D-01, -4.1D-03, -5.7D-01, r^2= 1.1D+01
   Bfn.  Coefficient  Atom+Function         Bfn.  Coefficient  Atom+Function  
  ----- ------------  ---------------      ----- ------------  ---------------
    87      5.195539  4 H  s                106     -5.210713  5 H  s          
    16     -2.993149  1 C  py                86     -1.528269  4 H  s          
   105      1.532732  5 H  s                 12      1.402535  1 C  py         
    85     -0.362397  4 H  s                104      0.363456  5 H  s          
     8      0.229884  1 C  py                 4      0.180967  1 C  py         

 Vector   16  Occ=0.000000D+00  E= 1.471816D-01
              MO Center=  1.1D+00, -1.4D-05,  5.6D-02, r^2= 1.1D+01
   Bfn.  Coefficient  Atom+Function         Bfn.  Coefficient  Atom+Function  
  ----- ------------  ---------------      ----- ------------  ---------------
    68      6.069171  3 H  s                 49     -3.854725  2 H  s          
    15     -2.383457  1 C  px                17      1.810555  1 C  pz         
    67     -1.785232  3 H  s                 48      1.133905  2 H  s          
    11      1.116840  1 C  px                87     -1.107086  4 H  s          
   106     -1.107334  5 H  s                 13     -0.848405  1 C  pz         

 Vector   17  Occ=0.000000D+00  E= 1.869072D-01
              MO Center= -4.2D-06,  3.8D-10, -1.1D-06, r^2= 3.2D+00
   Bfn.  Coefficient  Atom+Function         Bfn.  Coefficient  Atom+Function  
  ----- ------------  ---------------      ----- ------------  ---------------
    32      0.492773  1 C  dxz               56      0.314654  2 H  px         
    77      0.296651  3 H  pz                94     -0.209778  4 H  px         
   113     -0.209775  5 H  px                95     -0.181659  4 H  py         
   114      0.181659  5 H  py                30      0.174252  1 C  dxx        
    33     -0.174208  1 C  dyy        

 Vector   18  Occ=0.000000D+00  E= 1.869072D-01
              MO Center= -3.4D-07,  4.0D-10, -2.6D-06, r^2= 3.2D+00
   Bfn.  Coefficient  Atom+Function         Bfn.  Coefficient  Atom+Function  
  ----- ------------  ---------------      ----- ------------  ---------------
    34      0.492778  1 C  dyz               31     -0.348459  1 C  dxy        
    57      0.314653  2 H  py                76     -0.314653  3 H  py         
    96      0.256916  4 H  pz               115     -0.256914  5 H  pz         
    94     -0.181664  4 H  px               113      0.181667  5 H  px         

 Vector   19  Occ=0.000000D+00  E= 2.225875D-01
              MO Center=  4.5D-06,  8.9D-11, -1.4D-05, r^2= 1.0D+01
   Bfn.  Coefficient  Atom+Function         Bfn.  Coefficient  Atom+Function  
  ----- ------------  ---------------      ----- ------------  ---------------
    14     20.923509  1 C  s                 10     10.219928  1 C  s          
    48     -6.169715  2 H  s                 67     -6.169821  3 H  s          
    86     -6.169806  4 H  s                105     -6.169806  5 H  s          
    49     -2.832871  2 H  s                 68     -2.832922  3 H  s          
    87     -2.832893  4 H  s                106     -2.832893  5 H  s          

 Vector   20  Occ=0.000000D+00  E= 2.628235D-01
              MO Center= -3.5D-01,  2.7D-07,  1.5D-01, r^2= 8.3D+00
   Bfn.  Coefficient  Atom+Function         Bfn.  Coefficient  Atom+Function  
  ----- ------------  ---------------      ----- ------------  ---------------
    67      7.278817  3 H  s                 11     -3.765941  1 C  px         
    86     -2.675672  4 H  s                105     -2.675679  5 H  s          
    15     -2.297940  1 C  px                48     -1.927416  2 H  s          
    32      1.261523  1 C  dxz               75     -1.259083  3 H  px         
    30     -1.064739  1 C  dxx               66      1.053652  3 H  s          

 Vector   21  Occ=0.000000D+00  E= 2.628244D-01
              MO Center=  2.7D-01,  4.2D-06,  1.9D-01, r^2= 8.3D+00
   Bfn.  Coefficient  Atom+Function         Bfn.  Coefficient  Atom+Function  
  ----- ------------  ---------------      ----- ------------  ---------------
    86      5.958757  4 H  s                105     -5.958811  5 H  s          
    12     -3.904584  1 C  py                16     -2.382542  1 C  py         
    31      1.849690  1 C  dxy               34      1.307968  1 C  dyz        
    85      0.862555  4 H  s                104     -0.862563  5 H  s          
    95     -0.787509  4 H  py               114     -0.787519  5 H  py         

 Vector   22  Occ=0.000000D+00  E= 2.628245D-01
              MO Center=  7.8D-02, -4.5D-06, -3.4D-01, r^2= 8.3D+00
   Bfn.  Coefficient  Atom+Function         Bfn.  Coefficient  Atom+Function  
  ----- ------------  ---------------      ----- ------------  ---------------
    48      7.038936  2 H  s                 13     -3.765954  1 C  pz         
    86     -3.254871  4 H  s                105     -3.254766  5 H  s          
    17     -2.297965  1 C  pz                58     -1.299690  2 H  pz         
    35     -1.261495  1 C  dzz               11     -1.031210  1 C  px         
    47      1.018916  2 H  s                 33      0.875001  1 C  dyy        

 Vector   23  Occ=0.000000D+00  E= 4.356684D-01
              MO Center= -1.7D-05,  1.7D-09,  6.1D-06, r^2= 7.3D+00
   Bfn.  Coefficient  Atom+Function         Bfn.  Coefficient  Atom+Function  
  ----- ------------  ---------------      ----- ------------  ---------------
    14      5.190374  1 C  s                 30     -2.867044  1 C  dxx        
    33     -2.867007  1 C  dyy               35     -2.866986  1 C  dzz        
    48      1.929410  2 H  s                 67      1.929287  3 H  s          
    86      1.929386  4 H  s                105      1.929386  5 H  s          
    49     -1.184705  2 H  s                 68     -1.184645  3 H  s          

 Vector   24  Occ=0.000000D+00  E= 4.482804D-01
              MO Center= -3.3D-01,  2.6D-06, -2.3D-02, r^2= 4.0D+00
   Bfn.  Coefficient  Atom+Function         Bfn.  Coefficient  Atom+Function  
  ----- ------------  ---------------      ----- ------------  ---------------
    57      0.923991  2 H  py                96     -0.754459  4 H  pz         
   115      0.754443  5 H  pz                95     -0.646108  4 H  py         
   114     -0.646108  5 H  py                94     -0.585580  4 H  px         
   113      0.585592  5 H  px                76      0.368170  3 H  py         

 Vector   25  Occ=0.000000D+00  E= 4.482809D-01
              MO Center=  2.6D-01,  2.9D-05,  1.8D-01, r^2= 4.0D+00
   Bfn.  Coefficient  Atom+Function         Bfn.  Coefficient  Atom+Function  
  ----- ------------  ---------------      ----- ------------  ---------------
    56      1.169708  2 H  px                77     -1.102774  3 H  pz         
    96      0.551420  4 H  pz               115      0.551381  5 H  pz         
    75     -0.389892  3 H  px                94     -0.389928  4 H  px         
   113     -0.389833  5 H  px         

 Vector   26  Occ=0.000000D+00  E= 4.482814D-01
              MO Center=  7.9D-02, -3.1D-05, -1.6D-01, r^2= 4.1D+00
   Bfn.  Coefficient  Atom+Function         Bfn.  Coefficient  Atom+Function  
  ----- ------------  ---------------      ----- ------------  ---------------
    76      1.110197  3 H  py                94     -0.754454  4 H  px         
   113      0.754495  5 H  px                57     -0.717226  2 H  py         
    96      0.585548  4 H  pz               115     -0.585606  5 H  pz         
    95     -0.196511  4 H  py               114     -0.196511  5 H  py         

 Vector   27  Occ=0.000000D+00  E= 4.889950D-01
              MO Center= -3.5D-02,  1.0D-07,  3.8D-03, r^2= 4.6D+00
   Bfn.  Coefficient  Atom+Function         Bfn.  Coefficient  Atom+Function  
  ----- ------------  ---------------      ----- ------------  ---------------
    67      3.856619  3 H  s                 11     -2.949340  1 C  px         
    48     -2.005234  2 H  s                 75     -1.916288  3 H  px         
    68     -1.884886  3 H  s                 13      1.754770  1 C  pz         
    30      1.527427  1 C  dxx               32     -1.520904  1 C  dxz        
    58      1.025076  2 H  pz                49      0.984160  2 H  s          

 Vector   28  Occ=0.000000D+00  E= 4.889959D-01
              MO Center=  2.6D-02,  1.7D-07,  1.8D-02, r^2= 4.6D+00
   Bfn.  Coefficient  Atom+Function         Bfn.  Coefficient  Atom+Function  
  ----- ------------  ---------------      ----- ------------  ---------------
    12      3.431868  1 C  py                86     -3.207871  4 H  s          
   105      3.207882  5 H  s                 31      2.502893  1 C  dxy        
    34      1.769749  1 C  dyz               87      1.570078  4 H  s          
   106     -1.570084  5 H  s                 94     -1.128789  4 H  px         
   113      1.128795  5 H  px                95      1.028824  4 H  py         

 Vector   29  Occ=0.000000D+00  E= 4.889977D-01
              MO Center=  9.2D-03, -2.6D-07, -2.2D-02, r^2= 4.6D+00
   Bfn.  Coefficient  Atom+Function         Bfn.  Coefficient  Atom+Function  
  ----- ------------  ---------------      ----- ------------  ---------------
    48      3.374282  2 H  s                 13     -2.949436  1 C  pz         
    86     -2.074949  4 H  s                105     -2.074920  5 H  s          
    11     -1.754824  1 C  px                58     -1.723804  2 H  pz         
    49     -1.653272  2 H  s                 35      1.521205  1 C  dzz        
    33     -1.399975  1 C  dyy               95      1.263577  4 H  py         

 Vector   30  Occ=0.000000D+00  E= 4.903006D-01
              MO Center= -1.3D-04, -1.5D-08,  2.7D-04, r^2= 7.1D+00
   Bfn.  Coefficient  Atom+Function         Bfn.  Coefficient  Atom+Function  
  ----- ------------  ---------------      ----- ------------  ---------------
    10     19.168169  1 C  s                 14     18.576982  1 C  s          
    48     -8.430469  2 H  s                 67     -8.427121  3 H  s          
    86     -8.428337  4 H  s                105     -8.428337  5 H  s          
    49     -2.163045  2 H  s                 68     -2.164799  3 H  s          
    87     -2.164137  4 H  s                106     -2.164137  5 H  s          

 Vector   31  Occ=0.000000D+00  E= 5.127881D-01
              MO Center=  3.6D-01,  2.7D-07, -6.0D-02, r^2= 5.7D+00
   Bfn.  Coefficient  Atom+Function         Bfn.  Coefficient  Atom+Function  
  ----- ------------  ---------------      ----- ------------  ---------------
    67      5.538389  3 H  s                 68     -3.158034  3 H  s          
    48     -2.668931  2 H  s                 11     -2.633161  1 C  px         
    32      1.760865  1 C  dxz               30     -1.721732  1 C  dxx        
    49      1.521990  2 H  s                 66      1.468569  3 H  s          
    86     -1.434476  4 H  s                105     -1.434467  5 H  s          


 center of mass
 --------------
 x =   0.00000000 y =   0.00000000 z =   0.00000070

 moments of inertia (a.u.)
 ------------------
          11.391575608765           0.000000000000           0.000000000000
           0.000000000000          11.391532756818           0.000000000000
           0.000000000000           0.000000000000          11.391525441137

     Multipole analysis of the density
     ---------------------------------

     L   x y z        total         alpha         beta         nuclear
     -   - - -        -----         -----         ----         -------
     0   0 0 0     -0.000000     -5.000000     -5.000000     10.000000

     1   1 0 0      0.000001      0.000001      0.000001      0.000000
     1   0 1 0     -0.000000     -0.000000     -0.000000      0.000000
     1   0 0 1     -0.000003     -0.000001     -0.000001      0.000000

     2   2 0 0     -6.570938     -6.111228     -6.111228      5.651518
     2   1 1 0      0.000000      0.000000      0.000000      0.000000
     2   1 0 1     -0.000002     -0.000001     -0.000001      0.000000
     2   0 2 0     -6.570924     -6.111242     -6.111242      5.651561
     2   0 1 1      0.000000      0.000000      0.000000      0.000000
     2   0 0 2     -6.570916     -6.111242     -6.111242      5.651568


 Parallel integral file used     549 records with       0 large values


            General Information
            -------------------
          SCF calculation type: DFT
          Wavefunction type:  closed shell.
          No. of atoms     :     5
          No. of electrons :    10
           Alpha electrons :     5
            Beta electrons :     5
          Charge           :     0
          Spin multiplicity:     1
          Use of symmetry is: off; symmetry adaption is: off
          Maximum number of iterations: ***
          AO basis - number of functions:   121
                     number of shells:    45
          Convergence on energy requested: 1.00D-06
          Convergence on density requested: 1.00D-05
          Convergence on gradient requested: 5.00D-04

              XC Information
              --------------
                  TPSS metaGGA Exchange Functional  1.000          
             TPSS03 metaGGA Correlation Functional  1.000          

             Grid Information
             ----------------
          Grid used for XC integration:  medium    
          Radial quadrature: Mura-Knowles        
          Angular quadrature: Lebedev. 
          Tag              B.-S. Rad. Rad. Pts. Rad. Cut. Ang. Pts.
          ---              ---------- --------- --------- ---------
          C                   0.70       49          10.0       434
          H                   0.35       45          11.0       434
          Grid pruning is: on 
          Number of quadrature shells:   229
          Spatial weights used:  Erf1

          Convergence Information
          -----------------------
          Convergence aids based upon iterative change in 
          total energy or number of iterations. 
          Levelshifting, if invoked, occurs when the 
          HOMO/LUMO gap drops below (HL_TOL): 1.00D-02
          DIIS, if invoked, will attempt to extrapolate 
          using up to (NFOCK): 10 stored Fock matrices.

                    Damping( 0%)  Levelshifting(0.5)       DIIS
                  --------------- ------------------- ---------------
          dE  on:    start            ASAP                start   
          dE off:    2 iters        *** iters           *** iters 


      Screening Tolerance Information
      -------------------------------
          Density screening/tol_rho: 1.00D-10
          AO Gaussian exp screening on grid/accAOfunc:  14
          CD Gaussian exp screening on grid/accCDfunc:  20
          XC Gaussian exp screening on grid/accXCfunc:  20
          Schwarz screening/accCoul: 1.00D-08



                            NWChem DFT Gradient Module
                            --------------------------



  charge          =   0.00
  wavefunction    = closed shell



                         DFT ENERGY GRADIENTS

    atom               coordinates                        gradient
                 x          y          z           x          y          z
   1 C       0.000000   0.000000   0.000002    0.000002  -0.000000  -0.000006
   2 H       0.000000   0.000000   2.058802   -0.000001  -0.000000   0.004242
   3 H       1.941051   0.000000  -0.686271    0.003995   0.000000  -0.001411
   4 H      -0.970525   1.681006  -0.686271   -0.001998   0.003461  -0.001413
   5 H      -0.970525  -1.681006  -0.686271   -0.001998  -0.003461  -0.001413

                 ----------------------------------------
                 |  Time  |  1-e(secs)   |  2-e(secs)   |
                 ----------------------------------------
                 |  CPU   |       0.00   |       0.37   |
                 ----------------------------------------
                 |  WALL  |       0.00   |       0.37   |
                 ----------------------------------------
                               NWChem STEPPER Module
                               ---------------------


   Step sought for minimum. 
   Update Hessian used. 
   Nuclear Hessian initialized with UNIT matrix. 
   Number of modes removed with force (in the spectral representation)
   less than:   0.000000 is:    3
   PARTIT has partitioned the input hessian 
   and gradient into two subspaces;  An 
   "external" hessian and gradient composed 
   of                     6  independent translations 
   and rotations, and an "internal" hessian 
   and gradient with a dimension of                     6
               e-diff         g-norm     g-max   
 value      -40.5142435954  0.008478  0.004242
 thres        0.0001000000  0.010000  0.000800
  trust radius =     0.10
   Calculating the Newton-Raphson step. 
  The length (norm) of the STEP is   0.008478

  The lowest few components in the bases 
  generated by the spectral decomposition 
  of the internal hessian (non-zero force). 

  Component  Hessian     Grad      Step   Scaled-Step
  ---------  --------  --------  -------- -----------
       1     0.10D+01  0.49D-02  -.49D-02  -.49D-02
       2     0.10D+01  0.49D-02  -.49D-02  -.49D-02
       3     0.10D+01  0.23D-05  -.23D-05  -.23D-05
       4     0.10D+01  -.65D-05  0.65D-05  0.65D-05
       5     0.10D+01  0.78D-06  -.78D-06  -.78D-06
       6     0.10D+01  0.49D-02  -.49D-02  -.49D-02

  Clean-up the step; truncate at:   0.000001
  In cartesian coordinates; norm of this step is:   0.008478
         Walk statistics for step:   1
     Previous actual total energy:   0.000000000000D+00
      Current actual total energy:  -0.405142435954D+02
         Actual energy difference:  -0.405142435954D+02 threshold:         0.100000D-03
    Second order energy predicted:   0.000000000000D+00
             Ratio of differences:   0.000000000000D+00
               Fixed trust radius:   0.100000000000D+00
   Number of negative eigenvalues:   0
   Max absolute value of Gradient:   0.424219348893D-02 threshold:         0.800000D-03
                    Gradient norm:   0.847824539329D-02 threshold:         0.100000D-01
                RMS Gradient norm:   0.379158660586D-02
  Largest component of step v-tor:   0.489700000000D-02
  New 2nd order energy prediction:  -0.359403222610D-04



  ------------------- New geometry -------------------


                         Geometry "g-1-step" -> "g-1-step"
                         ---------------------------------

 Output coordinates in angstroms (scale by  1.889725989 to convert to a.u.)

  No.       Tag          Charge          X              Y              Z
 ---- ---------------- ---------- -------------- -------------- --------------
    1 C                    6.0000    -0.00000106     0.00000000     0.00000418
    2 H                    1.0000     0.00000000     0.00000000     1.08722623
    3 H                    1.0000     1.02504647     0.00000000    -0.36241180
    4 H                    1.0000    -0.51252270     0.88771852    -0.36241180
    5 H                    1.0000    -0.51252270    -0.88771852    -0.36241180

      Atomic Mass 
      ----------- 

      C                 12.000000
      H                  1.007825


 Effective nuclear repulsion energy (a.u.)      13.4696500411

            Nuclear Dipole moment (a.u.) 
            ----------------------------
        X                 Y               Z
 ---------------- ---------------- ----------------
    -0.0000100000     0.0000000000     0.0000300000

 ==============================================================================
                                internuclear distances
 ------------------------------------------------------------------------------
       center one      |      center two      | atomic units |  angstroms
 ------------------------------------------------------------------------------
    2 H                |   1 C                |     2.05455  |     1.08722
    3 H                |   1 C                |     2.05457  |     1.08723
    4 H                |   1 C                |     2.05457  |     1.08723
    5 H                |   1 C                |     2.05457  |     1.08723
 ------------------------------------------------------------------------------
                         number of included internuclear distances:          4
 ==============================================================================



 ==============================================================================
                                 internuclear angles
 ------------------------------------------------------------------------------
        center 1       |       center 2       |       center 3       |  degrees
 ------------------------------------------------------------------------------
    2 H                |   1 C                |   3 H                |   109.47
    2 H                |   1 C                |   4 H                |   109.47
    2 H                |   1 C                |   5 H                |   109.47
    3 H                |   1 C                |   4 H                |   109.47
    3 H                |   1 C                |   5 H                |   109.47
    4 H                |   1 C                |   5 H                |   109.47
 ------------------------------------------------------------------------------
                            number of included internuclear angles:          6
 ==============================================================================



 ==============================================================================
                             internuclear dihedral angles
 ------------------------------------------------------------------------------
    center 1   |   center 2   |   center 3   |   center 4   |  degrees
 ------------------------------------------------------------------------------
    4 H        |   1 C        |   2 H        |   3 H        |   120.00
    5 H        |   1 C        |   2 H        |   3 H        |   120.00
    5 H        |   1 C        |   2 H        |   4 H        |   120.00
    5 H        |   1 C        |   3 H        |   4 H        |   120.00
 ------------------------------------------------------------------------------
                            number of included dihedral angles:          4
 ==============================================================================




                                 NWChem DFT Module
                                 -----------------




 Summary of "ao basis" -> "ao basis" (cartesian)
 ------------------------------------------------------------------------------
       Tag                 Description            Shells   Functions and Types
 ---------------- ------------------------------  ------  ---------------------
 C                     6-311++G(3df,3pd)            13       45   5s4p3d1f
 H                     6-311++G(3df,3pd)             8       19   4s3p1d


  Caching 1-el integrals 

            General Information
            -------------------
          SCF calculation type: DFT
          Wavefunction type:  closed shell.
          No. of atoms     :     5
          No. of electrons :    10
           Alpha electrons :     5
            Beta electrons :     5
          Charge           :     0
          Spin multiplicity:     1
          Use of symmetry is: off; symmetry adaption is: off
          Maximum number of iterations: ***
          AO basis - number of functions:   121
                     number of shells:    45
          Convergence on energy requested: 1.00D-06
          Convergence on density requested: 1.00D-05
          Convergence on gradient requested: 5.00D-04

              XC Information
              --------------
                  TPSS metaGGA Exchange Functional  1.000          
             TPSS03 metaGGA Correlation Functional  1.000          

             Grid Information
             ----------------
          Grid used for XC integration:  medium    
          Radial quadrature: Mura-Knowles        
          Angular quadrature: Lebedev. 
          Tag              B.-S. Rad. Rad. Pts. Rad. Cut. Ang. Pts.
          ---              ---------- --------- --------- ---------
          C                   0.70       49          10.0       434
          H                   0.35       45          11.0       434
          Grid pruning is: on 
          Number of quadrature shells:   229
          Spatial weights used:  Erf1

          Convergence Information
          -----------------------
          Convergence aids based upon iterative change in 
          total energy or number of iterations. 
          Levelshifting, if invoked, occurs when the 
          HOMO/LUMO gap drops below (HL_TOL): 1.00D-02
          DIIS, if invoked, will attempt to extrapolate 
          using up to (NFOCK): 10 stored Fock matrices.

                    Damping( 0%)  Levelshifting(0.5)       DIIS
                  --------------- ------------------- ---------------
          dE  on:    start            ASAP                start   
          dE off:    2 iters        *** iters           *** iters 


      Screening Tolerance Information
      -------------------------------
          Density screening/tol_rho: 1.00D-10
          AO Gaussian exp screening on grid/accAOfunc:  14
          CD Gaussian exp screening on grid/accCDfunc:  20
          XC Gaussian exp screening on grid/accXCfunc:  20
          Schwarz screening/accCoul: 1.00D-08


 Loading old vectors from job with title :



   Time after variat. SCF:      3.3
   Time prior to 1st pass:      3.3

 Integral file          = ./CH4.xyz.aoints.00
 Record size in doubles =    65536    No. of integs per rec  =    43688
 Max. records in memory =       54    Max. records in file   = 11665940
 No. of bits per label  =        8    No. of bits per value  =       64


 #quartets = 5.354D+05 #integrals = 2.375D+07 #direct =  0.0% #cached =100.0%


File balance: exchanges=     8  moved=    11  time=   0.0


 Grid_pts file          = ./CH4.xyz.gridpts.00
 Record size in doubles =  12289        No. of grid_pts per rec  =   3070
 Max. records in memory =      4        Max. recs in file   =  62213502


           Memory utilization after 1st SCF pass: 
           Heap Space remaining (MW):        9.52             9515556
          Stack Space remaining (MW):       13.11            13106428

   convergence    iter        energy       DeltaE   RMS-Dens  Diis-err    time
 ---------------- ----- ----------------- --------- --------- ---------  ------
 d= 0,ls=0.0,diis     1    -40.5138868963 -5.40D+01  1.17D-04  4.86D-05     4.0
 d= 0,ls=0.0,diis     2    -40.5143394590 -4.53D-04  2.15D-05  1.46D-05     4.2
 d= 0,ls=0.0,diis     3    -40.5141607896  1.79D-04  7.58D-06  5.59D-06     4.5
 d= 0,ls=0.0,diis     4    -40.5142317593 -7.10D-05  1.18D-06  7.12D-08     4.7
 d= 0,ls=0.0,diis     5    -40.5142284027  3.36D-06  2.47D-07  1.93D-10     5.0
 d= 0,ls=0.0,diis     6    -40.5142282809  1.22D-07  1.32D-08  7.55D-12     5.2


         Total DFT energy =      -40.514228280913
      One electron energy =      -79.599681391403
           Coulomb energy =       32.444732772273
          Exchange energy =       -6.530815842558
       Correlation energy =       -0.298113860329
 Nuclear repulsion energy =       13.469650041103

 Numeric. integr. density =       10.000002713248

     Total iterative time =      1.9s



                       DFT Final Molecular Orbital Analysis
                       ------------------------------------

 Vector    1  Occ=2.000000D+00  E=-1.003748D+01
              MO Center= -1.1D-06, -5.2D-14,  4.2D-06, r^2= 2.8D-02
   Bfn.  Coefficient  Atom+Function         Bfn.  Coefficient  Atom+Function  
  ----- ------------  ---------------      ----- ------------  ---------------
     1      0.562038  1 C  s                  2      0.465938  1 C  s          

 Vector    2  Occ=2.000000D+00  E=-6.966645D-01
              MO Center=  2.5D-07, -3.5D-11,  3.0D-06, r^2= 1.0D+00
   Bfn.  Coefficient  Atom+Function         Bfn.  Coefficient  Atom+Function  
  ----- ------------  ---------------      ----- ------------  ---------------
    10      0.563847  1 C  s                  6      0.364946  1 C  s          
     2     -0.185618  1 C  s          

 Vector    3  Occ=2.000000D+00  E=-4.086908D-01
              MO Center=  1.1D-02, -2.5D-07,  3.1D-01, r^2= 1.3D+00
   Bfn.  Coefficient  Atom+Function         Bfn.  Coefficient  Atom+Function  
  ----- ------------  ---------------      ----- ------------  ---------------
    13      0.273128  1 C  pz                47      0.269209  2 H  s          
     9      0.259301  1 C  pz                 5      0.203888  1 C  pz         
    46      0.162740  2 H  s          

 Vector    4  Occ=2.000000D+00  E=-4.086887D-01
              MO Center= -2.2D-01, -1.9D-06, -1.6D-01, r^2= 1.3D+00
   Bfn.  Coefficient  Atom+Function         Bfn.  Coefficient  Atom+Function  
  ----- ------------  ---------------      ----- ------------  ---------------
    12      0.273288  1 C  py                 8      0.259448  1 C  py         
    85      0.219927  4 H  s                104     -0.219928  5 H  s          
     4      0.204002  1 C  py         

 Vector    5  Occ=2.000000D+00  E=-4.086881D-01
              MO Center=  2.1D-01,  2.1D-06, -1.6D-01, r^2= 1.3D+00
   Bfn.  Coefficient  Atom+Function         Bfn.  Coefficient  Atom+Function  
  ----- ------------  ---------------      ----- ------------  ---------------
    11      0.273134  1 C  px                 7      0.259303  1 C  px         
    66      0.250808  3 H  s                  3      0.203887  1 C  px         
    65      0.151614  3 H  s          

 Vector    6  Occ=0.000000D+00  E=-1.981723D-02
              MO Center=  2.0D-06, -1.6D-10, -1.6D-05, r^2= 9.3D+00
   Bfn.  Coefficient  Atom+Function         Bfn.  Coefficient  Atom+Function  
  ----- ------------  ---------------      ----- ------------  ---------------
    14      3.054082  1 C  s                 10      1.008916  1 C  s          
    49     -0.860692  2 H  s                 68     -0.860719  3 H  s          
    87     -0.860698  4 H  s                106     -0.860698  5 H  s          
    48     -0.410447  2 H  s                 67     -0.410467  3 H  s          
    86     -0.410450  4 H  s                105     -0.410450  5 H  s          

 Vector    7  Occ=0.000000D+00  E= 3.314306D-02
              MO Center= -9.4D-01, -2.8D-05, -6.7D-01, r^2= 1.1D+01
   Bfn.  Coefficient  Atom+Function         Bfn.  Coefficient  Atom+Function  
  ----- ------------  ---------------      ----- ------------  ---------------
    87      2.969819  4 H  s                106     -2.969871  5 H  s          
    16     -0.824022  1 C  py                86     -0.454057  4 H  s          
   105      0.454065  5 H  s                 12      0.232069  1 C  py         
    31     -0.211061  1 C  dxy                8     -0.155587  1 C  py         
    95      0.152863  4 H  py               114      0.152866  5 H  py         

 Vector    8  Occ=0.000000D+00  E= 3.314312D-02
              MO Center=  1.1D+00,  2.4D-05, -6.2D-01, r^2= 1.1D+01
   Bfn.  Coefficient  Atom+Function         Bfn.  Coefficient  Atom+Function  
  ----- ------------  ---------------      ----- ------------  ---------------
    68      3.576115  3 H  s                 87     -1.505242  4 H  s          
   106     -1.505154  5 H  s                 15     -0.813982  1 C  px         
    49     -0.565672  2 H  s                 67     -0.546718  3 H  s          
    11      0.229242  1 C  px                86      0.230173  4 H  s          
   105      0.230159  5 H  s                 75      0.212258  3 H  px         

 Vector    9  Occ=0.000000D+00  E= 3.314340D-02
              MO Center= -1.8D-01,  4.0D-06,  1.3D+00, r^2= 1.1D+01
   Bfn.  Coefficient  Atom+Function         Bfn.  Coefficient  Atom+Function  
  ----- ------------  ---------------      ----- ------------  ---------------
    49      3.593042  2 H  s                 87     -1.464340  4 H  s          
   106     -1.464326  5 H  s                 17     -0.813958  1 C  pz         
    68     -0.664307  3 H  s                 48     -0.549386  2 H  s          
    13      0.229274  1 C  pz                58      0.226167  2 H  pz         
    86      0.223902  4 H  s                105      0.223899  5 H  s          

 Vector   10  Occ=0.000000D+00  E= 5.821139D-02
              MO Center= -4.0D-01, -1.7D-06,  3.5D-01, r^2= 6.4D+00
   Bfn.  Coefficient  Atom+Function         Bfn.  Coefficient  Atom+Function  
  ----- ------------  ---------------      ----- ------------  ---------------
    67     -2.320611  3 H  s                 15      2.306940  1 C  px         
    68     -1.907060  3 H  s                 86      1.387515  4 H  s          
   105      1.387509  5 H  s                 11      1.267662  1 C  px         
    87      1.140288  4 H  s                106      1.140283  5 H  s          
    66     -0.476719  3 H  s                 48     -0.454685  2 H  s          

 Vector   11  Occ=0.000000D+00  E= 5.821204D-02
              MO Center=  5.5D-01,  1.1D-06,  3.9D-01, r^2= 6.3D+00
   Bfn.  Coefficient  Atom+Function         Bfn.  Coefficient  Atom+Function  
  ----- ------------  ---------------      ----- ------------  ---------------
    16      2.341365  1 C  py                86     -2.172826  4 H  s          
   105      2.172829  5 H  s                 87     -1.785637  4 H  s          
   106      1.785639  5 H  s                 12      1.286566  1 C  py         
    85     -0.446353  4 H  s                104      0.446353  5 H  s          
    95      0.242545  4 H  py               114      0.242546  5 H  py         

 Vector   12  Occ=0.000000D+00  E= 5.821251D-02
              MO Center= -1.5D-01,  5.4D-07, -7.4D-01, r^2= 6.1D+00
   Bfn.  Coefficient  Atom+Function         Bfn.  Coefficient  Atom+Function  
  ----- ------------  ---------------      ----- ------------  ---------------
    48      2.622062  2 H  s                 17     -2.307042  1 C  pz         
    49      2.155038  2 H  s                 67     -1.302573  3 H  s          
    13     -1.267662  1 C  pz                68     -1.070526  3 H  s          
    86     -0.659731  4 H  s                105     -0.659735  5 H  s          
    87     -0.542232  4 H  s                106     -0.542235  5 H  s          

 Vector   13  Occ=0.000000D+00  E= 9.629093D-02
              MO Center=  2.3D-05, -1.9D-10, -4.3D-05, r^2= 1.6D+01
   Bfn.  Coefficient  Atom+Function         Bfn.  Coefficient  Atom+Function  
  ----- ------------  ---------------      ----- ------------  ---------------
    14     13.852603  1 C  s                 49     -2.744723  2 H  s          
    68     -2.744876  3 H  s                 87     -2.744819  4 H  s          
   106     -2.744819  5 H  s                 10      2.057116  1 C  s          
    48     -1.311985  2 H  s                 67     -1.311945  3 H  s          
    86     -1.311995  4 H  s                105     -1.311995  5 H  s          

 Vector   14  Occ=0.000000D+00  E= 1.475480D-01
              MO Center=  3.9D-01, -4.1D-06, -4.1D-01, r^2= 1.1D+01
   Bfn.  Coefficient  Atom+Function         Bfn.  Coefficient  Atom+Function  
  ----- ------------  ---------------      ----- ------------  ---------------
    68      5.067515  3 H  s                 87     -3.518489  4 H  s          
   106     -3.518512  5 H  s                 15     -2.842597  1 C  px         
    49      1.969618  2 H  s                 67     -1.505505  3 H  s          
    11      1.345076  1 C  px                86      1.045525  4 H  s          
   105      1.045532  5 H  s                 17     -0.922174  1 C  pz         

 Vector   15  Occ=0.000000D+00  E= 1.475483D-01
              MO Center= -8.1D-01,  3.9D-06, -5.7D-01, r^2= 1.1D+01
   Bfn.  Coefficient  Atom+Function         Bfn.  Coefficient  Atom+Function  
  ----- ------------  ---------------      ----- ------------  ---------------
    87      5.211464  4 H  s                106     -5.211449  5 H  s          
    16     -2.988434  1 C  py                86     -1.548423  4 H  s          
   105      1.548419  5 H  s                 12      1.414103  1 C  py         
    85     -0.367155  4 H  s                104      0.367154  5 H  s          
     8      0.231517  1 C  py                 4      0.180882  1 C  py         

 Vector   16  Occ=0.000000D+00  E= 1.475493D-01
              MO Center=  4.1D-01,  1.1D-07,  9.8D-01, r^2= 1.1D+01
   Bfn.  Coefficient  Atom+Function         Bfn.  Coefficient  Atom+Function  
  ----- ------------  ---------------      ----- ------------  ---------------
    49      6.071258  2 H  s                 68     -3.880665  3 H  s          
    17     -2.842586  1 C  pz                48     -1.803961  2 H  s          
    13      1.345119  1 C  pz                67      1.153005  3 H  s          
    87     -1.095244  4 H  s                106     -1.095242  5 H  s          
    15      0.922176  1 C  px                11     -0.436357  1 C  px         

 Vector   17  Occ=0.000000D+00  E= 1.872941D-01
              MO Center= -3.8D-06, -2.1D-11, -2.8D-06, r^2= 3.2D+00
   Bfn.  Coefficient  Atom+Function         Bfn.  Coefficient  Atom+Function  
  ----- ------------  ---------------      ----- ------------  ---------------
    32      0.498328  1 C  dxz               56      0.312825  2 H  px         
    77      0.294927  3 H  pz                94     -0.208564  4 H  px         
   113     -0.208564  5 H  px                95     -0.180601  4 H  py         
   114      0.180601  5 H  py                30      0.176228  1 C  dxx        
    33     -0.176167  1 C  dyy        

 Vector   18  Occ=0.000000D+00  E= 1.872942D-01
              MO Center=  1.0D-06, -2.2D-11, -4.6D-06, r^2= 3.2D+00
   Bfn.  Coefficient  Atom+Function         Bfn.  Coefficient  Atom+Function  
  ----- ------------  ---------------      ----- ------------  ---------------
    34      0.498328  1 C  dyz               31     -0.352394  1 C  dxy        
    57      0.312823  2 H  py                76     -0.312832  3 H  py         
    96      0.255423  4 H  pz               115     -0.255423  5 H  pz         
    94     -0.180615  4 H  px               113      0.180615  5 H  px         

 Vector   19  Occ=0.000000D+00  E= 2.231671D-01
              MO Center=  3.2D-06, -2.0D-13, -1.9D-05, r^2= 1.0D+01
   Bfn.  Coefficient  Atom+Function         Bfn.  Coefficient  Atom+Function  
  ----- ------------  ---------------      ----- ------------  ---------------
    14     20.993674  1 C  s                 10     10.303249  1 C  s          
    48     -6.201042  2 H  s                 67     -6.201164  3 H  s          
    86     -6.201016  4 H  s                105     -6.201016  5 H  s          
    49     -2.842818  2 H  s                 68     -2.842832  3 H  s          
    87     -2.842909  4 H  s                106     -2.842909  5 H  s          

 Vector   20  Occ=0.000000D+00  E= 2.629206D-01
              MO Center=  5.9D-04, -7.5D-08, -8.2D-04, r^2= 8.4D+00
   Bfn.  Coefficient  Atom+Function         Bfn.  Coefficient  Atom+Function  
  ----- ------------  ---------------      ----- ------------  ---------------
    48      4.229557  2 H  s                 67      4.211424  3 H  s          
    86     -4.220445  4 H  s                105     -4.220444  5 H  s          
    11     -3.186698  1 C  px                13     -2.260632  1 C  pz         
    15     -1.948215  1 C  px                17     -1.382081  1 C  pz         
    33      1.132294  1 C  dyy               32      1.066416  1 C  dxz        

 Vector   21  Occ=0.000000D+00  E= 2.629218D-01
              MO Center= -2.7D-01, -2.9D-10, -1.9D-01, r^2= 8.3D+00
   Bfn.  Coefficient  Atom+Function         Bfn.  Coefficient  Atom+Function  
  ----- ------------  ---------------      ----- ------------  ---------------
    48      5.962271  2 H  s                 67     -5.974898  3 H  s          
    13     -3.186658  1 C  pz                11      2.260531  1 C  px         
    17     -1.948298  1 C  pz                15      1.382050  1 C  px         
    58     -1.098844  2 H  pz                75      1.102019  3 H  px         
    30      1.068102  1 C  dxx               35     -1.066377  1 C  dzz        

 Vector   22  Occ=0.000000D+00  E= 2.629219D-01
              MO Center=  2.7D-01,  7.5D-08,  1.9D-01, r^2= 8.3D+00
   Bfn.  Coefficient  Atom+Function         Bfn.  Coefficient  Atom+Function  
  ----- ------------  ---------------      ----- ------------  ---------------
    86      5.968599  4 H  s                105     -5.968600  5 H  s          
    12     -3.907049  1 C  py                16     -2.388667  1 C  py         
    31      1.848983  1 C  dxy               34      1.307534  1 C  dyz        
    85      0.869391  4 H  s                104     -0.869391  5 H  s          
    95     -0.787391  4 H  py               114     -0.787391  5 H  py         

 Vector   23  Occ=0.000000D+00  E= 4.360743D-01
              MO Center= -1.2D-05, -9.0D-11, -2.4D-07, r^2= 7.3D+00
   Bfn.  Coefficient  Atom+Function         Bfn.  Coefficient  Atom+Function  
  ----- ------------  ---------------      ----- ------------  ---------------
    14      5.311225  1 C  s                 30     -2.865273  1 C  dxx        
    33     -2.865223  1 C  dyy               35     -2.865206  1 C  dzz        
    48      1.873453  2 H  s                 67      1.873347  3 H  s          
    86      1.873419  4 H  s                105      1.873419  5 H  s          
    49     -1.198162  2 H  s                 68     -1.198127  3 H  s          

 Vector   24  Occ=0.000000D+00  E= 4.490013D-01
              MO Center= -2.8D-01, -1.1D-08, -1.4D-01, r^2= 4.0D+00
   Bfn.  Coefficient  Atom+Function         Bfn.  Coefficient  Atom+Function  
  ----- ------------  ---------------      ----- ------------  ---------------
    57      0.742756  2 H  py                94     -0.741222  4 H  px         
   113      0.741222  5 H  px                95     -0.675551  4 H  py         
   114     -0.675551  5 H  py                76      0.608276  3 H  py         
    96     -0.606488  4 H  pz               115      0.606488  5 H  pz         

 Vector   25  Occ=0.000000D+00  E= 4.490018D-01
              MO Center=  2.5D-01, -2.7D-06,  1.8D-01, r^2= 4.0D+00
   Bfn.  Coefficient  Atom+Function         Bfn.  Coefficient  Atom+Function  
  ----- ------------  ---------------      ----- ------------  ---------------
    56      1.172973  2 H  px                77     -1.105871  3 H  pz         
    96      0.552941  4 H  pz               115      0.552947  5 H  pz         
    75     -0.390988  3 H  px                94     -0.390971  4 H  px         
   113     -0.390977  5 H  px         

 Vector   26  Occ=0.000000D+00  E= 4.490021D-01
              MO Center=  2.4D-02,  2.7D-06, -3.7D-02, r^2= 4.1D+00
   Bfn.  Coefficient  Atom+Function         Bfn.  Coefficient  Atom+Function  
  ----- ------------  ---------------      ----- ------------  ---------------
    76      1.002880  3 H  py                57     -0.907821  2 H  py         
    96      0.741213  4 H  pz               115     -0.741208  5 H  pz         
    94     -0.606504  4 H  px               113      0.606501  5 H  px         

 Vector   27  Occ=0.000000D+00  E= 4.892895D-01
              MO Center= -3.3D-02, -5.0D-08,  1.4D-02, r^2= 4.6D+00
   Bfn.  Coefficient  Atom+Function         Bfn.  Coefficient  Atom+Function  
  ----- ------------  ---------------      ----- ------------  ---------------
    67      3.931497  3 H  s                 11     -3.318069  1 C  px         
    68     -1.919830  3 H  s                 75     -1.869310  3 H  px         
    32     -1.712972  1 C  dxz               30      1.444309  1 C  dxx        
    86     -1.434571  4 H  s                105     -1.434563  5 H  s          
    48     -1.028145  2 H  s                 33     -0.978385  1 C  dyy        

 Vector   28  Occ=0.000000D+00  E= 4.892898D-01
              MO Center=  2.6D-02,  3.8D-08,  1.8D-02, r^2= 4.6D+00
   Bfn.  Coefficient  Atom+Function         Bfn.  Coefficient  Atom+Function  
  ----- ------------  ---------------      ----- ------------  ---------------
    12      3.439664  1 C  py                86     -3.211597  4 H  s          
   105      3.211599  5 H  s                 31      2.511581  1 C  dxy        
    34      1.775851  1 C  dyz               87      1.573486  4 H  s          
   106     -1.573487  5 H  s                 94     -1.132040  4 H  px         
   113      1.132039  5 H  px                95      1.029740  4 H  py         

 Vector   29  Occ=0.000000D+00  E= 4.892918D-01
              MO Center=  7.5D-03,  1.2D-08, -3.3D-02, r^2= 4.6D+00
   Bfn.  Coefficient  Atom+Function         Bfn.  Coefficient  Atom+Function  
  ----- ------------  ---------------      ----- ------------  ---------------
    48      3.792472  2 H  s                 13     -3.318156  1 C  pz         
    58     -1.938639  2 H  pz                49     -1.859626  2 H  s          
    86     -1.755814  4 H  s                105     -1.755815  5 H  s          
    35      1.713353  1 C  dzz               33     -1.187176  1 C  dyy        
    95      1.070960  4 H  py               114     -1.070961  5 H  py         

 Vector   30  Occ=0.000000D+00  E= 4.913023D-01
              MO Center= -5.7D-04,  4.9D-10,  3.0D-04, r^2= 7.1D+00
   Bfn.  Coefficient  Atom+Function         Bfn.  Coefficient  Atom+Function  
  ----- ------------  ---------------      ----- ------------  ---------------
    10     19.284292  1 C  s                 14     18.596304  1 C  s          
    48     -8.471643  2 H  s                 67     -8.465139  3 H  s          
    86     -8.470775  4 H  s                105     -8.470775  5 H  s          
    49     -2.163945  2 H  s                 68     -2.167203  3 H  s          
    87     -2.164405  4 H  s                106     -2.164405  5 H  s          

 Vector   31  Occ=0.000000D+00  E= 5.134586D-01
              MO Center=  3.1D-01,  3.2D-09,  1.1D-01, r^2= 5.8D+00
   Bfn.  Coefficient  Atom+Function         Bfn.  Coefficient  Atom+Function  
  ----- ------------  ---------------      ----- ------------  ---------------
    67      5.008662  3 H  s                 48     -4.104786  2 H  s          
    68     -2.844629  3 H  s                 49      2.332083  2 H  s          
    13      2.190878  1 C  pz                11     -2.060179  1 C  px         
    30     -1.702471  1 C  dxx               35      1.461420  1 C  dzz        
    32      1.374253  1 C  dxz               66      1.334679  3 H  s          


 center of mass
 --------------
 x =  -0.00000137 y =   0.00000000 z =   0.00000482

 moments of inertia (a.u.)
 ------------------
          11.344706836454           0.000000000000           0.000001380520
           0.000000000000          11.344674332979           0.000000000000
           0.000001380520           0.000000000000          11.344676186975

     Multipole analysis of the density
     ---------------------------------

     L   x y z        total         alpha         beta         nuclear
     -   - - -        -----         -----         ----         -------
     0   0 0 0     -0.000000     -5.000000     -5.000000     10.000000

     1   1 0 0      0.000002      0.000006      0.000006     -0.000010
     1   0 1 0      0.000000      0.000000      0.000000      0.000000
     1   0 0 1     -0.000004     -0.000017     -0.000017      0.000030

     2   2 0 0     -6.565289     -6.096785     -6.096785      5.628281
     2   1 1 0     -0.000000     -0.000000     -0.000000      0.000000
     2   1 0 1     -0.000001      0.000000      0.000000     -0.000001
     2   0 2 0     -6.565275     -6.096794     -6.096794      5.628313
     2   0 1 1     -0.000000     -0.000000     -0.000000      0.000000
     2   0 0 2     -6.565259     -6.096785     -6.096785      5.628311


 Parallel integral file used     551 records with       0 large values


            General Information
            -------------------
          SCF calculation type: DFT
          Wavefunction type:  closed shell.
          No. of atoms     :     5
          No. of electrons :    10
           Alpha electrons :     5
            Beta electrons :     5
          Charge           :     0
          Spin multiplicity:     1
          Use of symmetry is: off; symmetry adaption is: off
          Maximum number of iterations: ***
          AO basis - number of functions:   121
                     number of shells:    45
          Convergence on energy requested: 1.00D-06
          Convergence on density requested: 1.00D-05
          Convergence on gradient requested: 5.00D-04

              XC Information
              --------------
                  TPSS metaGGA Exchange Functional  1.000          
             TPSS03 metaGGA Correlation Functional  1.000          

             Grid Information
             ----------------
          Grid used for XC integration:  medium    
          Radial quadrature: Mura-Knowles        
          Angular quadrature: Lebedev. 
          Tag              B.-S. Rad. Rad. Pts. Rad. Cut. Ang. Pts.
          ---              ---------- --------- --------- ---------
          C                   0.70       49          10.0       434
          H                   0.35       45          11.0       434
          Grid pruning is: on 
          Number of quadrature shells:   229
          Spatial weights used:  Erf1

          Convergence Information
          -----------------------
          Convergence aids based upon iterative change in 
          total energy or number of iterations. 
          Levelshifting, if invoked, occurs when the 
          HOMO/LUMO gap drops below (HL_TOL): 1.00D-02
          DIIS, if invoked, will attempt to extrapolate 
          using up to (NFOCK): 10 stored Fock matrices.

                    Damping( 0%)  Levelshifting(0.5)       DIIS
                  --------------- ------------------- ---------------
          dE  on:    start            ASAP                start   
          dE off:    2 iters        *** iters           *** iters 


      Screening Tolerance Information
      -------------------------------
          Density screening/tol_rho: 1.00D-10
          AO Gaussian exp screening on grid/accAOfunc:  14
          CD Gaussian exp screening on grid/accCDfunc:  20
          XC Gaussian exp screening on grid/accXCfunc:  20
          Schwarz screening/accCoul: 1.00D-08



                            NWChem DFT Gradient Module
                            --------------------------



  charge          =   0.00
  wavefunction    = closed shell



                         DFT ENERGY GRADIENTS

    atom               coordinates                        gradient
                 x          y          z           x          y          z
   1 C      -0.000002   0.000000   0.000008    0.000000  -0.000000  -0.000001
   2 H       0.000000   0.000000   2.054560   -0.000001  -0.000000   0.002840
   3 H       1.937057   0.000000  -0.684859    0.002677  -0.000000  -0.000946
   4 H      -0.968527   1.677545  -0.684859   -0.001338   0.002319  -0.000947
   5 H      -0.968527  -1.677545  -0.684859   -0.001338  -0.002319  -0.000947

                 ----------------------------------------
                 |  Time  |  1-e(secs)   |  2-e(secs)   |
                 ----------------------------------------
                 |  CPU   |       0.00   |       0.37   |
                 ----------------------------------------
                 |  WALL  |       0.00   |       0.37   |
                 ----------------------------------------
                               NWChem STEPPER Module
                               ---------------------


   Step sought for minimum. 
   Actual energy difference is :    1.5314494767437736E-005
   2nd order predicted energy difference  was :   -3.5940322260975139E-005
   One of these is below the energy  tolerance:    1.0000000000000000E-004
   Backstepping possibilities are NO 
   longer considered appropriate. 
   Update Hessian used. 
   Number of modes removed with force (in the spectral representation)
   less than:   0.000000 is:    3
   PARTIT has partitioned the input hessian 
   and gradient into two subspaces;  An 
   "external" hessian and gradient composed 
   of                     6  independent translations 
   and rotations, and an "internal" hessian 
   and gradient with a dimension of                     6
               e-diff         g-norm     g-max   
 value        0.0000153145  0.005680  0.002840
 thres        0.0001000000  0.010000  0.000800
  trust radius =     0.10
   Calculating the Newton-Raphson step. 
  The length (norm) of the STEP is   0.017206

  The lowest few components in the bases 
  generated by the spectral decomposition 
  of the internal hessian (non-zero force). 

  Component  Hessian     Grad      Step   Scaled-Step
  ---------  --------  --------  -------- -----------
       1     0.33D+00  0.57D-02  -.17D-01  -.17D-01
       2     0.10D+01  0.39D-06  -.39D-06  -.39D-06
       3     0.10D+01  -.86D-07  0.86D-07  0.86D-07
       4     0.10D+01  0.22D-06  -.22D-06  -.22D-06
       5     0.10D+01  -.17D-07  0.17D-07  0.17D-07
       6     0.10D+01  0.15D-06  -.15D-06  -.15D-06

  Clean-up the step; truncate at:   0.000001
  In cartesian coordinates; norm of this step is:   0.017206
         Walk statistics for step:   2
     Previous actual total energy:  -0.405142435954D+02
      Current actual total energy:  -0.405142282809D+02
         Actual energy difference:   0.153144947674D-04 threshold:         0.100000D-03
    Second order energy predicted:  -0.359403222610D-04
             Ratio of differences:   0.426108999698D+00
               Fixed trust radius:   0.100000000000D+00
   Number of negative eigenvalues:   0
   Max absolute value of Gradient:   0.284009722125D-02 threshold:         0.800000D-03
                    Gradient norm:   0.567976331069D-02 threshold:         0.100000D-01
                RMS Gradient norm:   0.254006737176D-02
  Largest component of step v-tor:   0.172060000000D-01
  New 2nd order energy prediction:  -0.488628366438D-04



  ------------------- New geometry -------------------


                         Geometry "g-2-step" -> "g-2-step"
                         ---------------------------------

 Output coordinates in angstroms (scale by  1.889725989 to convert to a.u.)

  No.       Tag          Charge          X              Y              Z
 ---- ---------------- ---------- -------------- -------------- --------------
    1 C                    6.0000    -0.00000106     0.00000000     0.00000629
    2 H                    1.0000     0.00000000     0.00000000     1.08267319
    3 H                    1.0000     1.02075484     0.00000000    -0.36089465
    4 H                    1.0000    -0.51037689     0.88400105    -0.36089465
    5 H                    1.0000    -0.51037689    -0.88400105    -0.36089465

      Atomic Mass 
      ----------- 

      C                 12.000000
      H                  1.007825


 Effective nuclear repulsion energy (a.u.)      13.5262882974

[...]
    33     -2.861794  1 C  dyy               35     -2.861772  1 C  dzz        
    48      1.764311  2 H  s                 67      1.764276  3 H  s          
    86      1.764230  4 H  s                105      1.764230  5 H  s          
    49     -1.224173  2 H  s                 68     -1.224168  3 H  s          

 Vector   24  Occ=0.000000D+00  E= 4.504380D-01
              MO Center= -2.7D-01, -2.6D-09, -1.5D-01, r^2= 4.0D+00
   Bfn.  Coefficient  Atom+Function         Bfn.  Coefficient  Atom+Function  
  ----- ------------  ---------------      ----- ------------  ---------------
    94     -0.752927  4 H  px               113      0.752927  5 H  px         
    57      0.735489  2 H  py                95     -0.679883  4 H  py         
   114     -0.679883  5 H  py                76      0.624206  3 H  py         
    96     -0.600560  4 H  pz               115      0.600560  5 H  pz         

 Vector   25  Occ=0.000000D+00  E= 4.504384D-01
              MO Center=  2.5D-01, -1.0D-07,  1.8D-01, r^2= 4.0D+00
   Bfn.  Coefficient  Atom+Function         Bfn.  Coefficient  Atom+Function  
  ----- ------------  ---------------      ----- ------------  ---------------
    56      1.179555  2 H  px                77     -1.112071  3 H  pz         
    96      0.556055  4 H  pz               115      0.556055  5 H  pz         
    75     -0.393210  3 H  px                94     -0.393155  4 H  px         
   113     -0.393155  5 H  px         

 Vector   26  Occ=0.000000D+00  E= 4.504387D-01
              MO Center=  2.0D-02,  1.1D-07, -3.0D-02, r^2= 4.1D+00
   Bfn.  Coefficient  Atom+Function         Bfn.  Coefficient  Atom+Function  
  ----- ------------  ---------------      ----- ------------  ---------------
    76     -1.000810  3 H  py                57      0.922149  2 H  py         
    96     -0.752912  4 H  pz               115      0.752912  5 H  pz         
    94      0.600572  4 H  px               113     -0.600572  5 H  px         

 Vector   27  Occ=0.000000D+00  E= 4.898819D-01
              MO Center= -3.5D-02, -3.4D-09,  1.5D-02, r^2= 4.6D+00
   Bfn.  Coefficient  Atom+Function         Bfn.  Coefficient  Atom+Function  
  ----- ------------  ---------------      ----- ------------  ---------------
    67      3.934081  3 H  s                 11     -3.334387  1 C  px         
    68     -1.930258  3 H  s                 75     -1.874335  3 H  px         
    32     -1.724954  1 C  dxz               30      1.454533  1 C  dxx        
    86     -1.446731  4 H  s                105     -1.446731  5 H  s          
    48     -1.034462  2 H  s                 33     -0.985086  1 C  dyy        

 Vector   28  Occ=0.000000D+00  E= 4.898823D-01
              MO Center=  2.7D-02,  1.7D-09,  1.9D-02, r^2= 4.6D+00
   Bfn.  Coefficient  Atom+Function         Bfn.  Coefficient  Atom+Function  
  ----- ------------  ---------------      ----- ------------  ---------------
    12      3.455825  1 C  py                86     -3.219732  4 H  s          
   105      3.219732  5 H  s                 31      2.528513  1 C  dxy        
    34      1.787795  1 C  dyz               87      1.580693  4 H  s          
   106     -1.580693  5 H  s                 94     -1.138569  4 H  px         
   113      1.138569  5 H  px                95      1.031733  4 H  py         

 Vector   29  Occ=0.000000D+00  E= 4.898846D-01
              MO Center=  7.7D-03,  1.7D-09, -3.4D-02, r^2= 4.6D+00
   Bfn.  Coefficient  Atom+Function         Bfn.  Coefficient  Atom+Function  
  ----- ------------  ---------------      ----- ------------  ---------------
    48      3.803359  2 H  s                 13     -3.334524  1 C  pz         
    58     -1.946563  2 H  pz                49     -1.868470  2 H  s          
    86     -1.758730  4 H  s                105     -1.758731  5 H  s          
    35      1.725267  1 C  dzz               33     -1.194371  1 C  dyy        
    95      1.076336  4 H  py               114     -1.076336  5 H  py         

 Vector   30  Occ=0.000000D+00  E= 4.933310D-01
              MO Center= -9.6D-05,  6.5D-12,  1.4D-04, r^2= 7.1D+00
   Bfn.  Coefficient  Atom+Function         Bfn.  Coefficient  Atom+Function  
  ----- ------------  ---------------      ----- ------------  ---------------
    10     19.515568  1 C  s                 14     18.635706  1 C  s          
    48     -8.550936  2 H  s                 67     -8.549122  3 H  s          
    86     -8.549944  4 H  s                105     -8.549944  5 H  s          
    49     -2.166798  2 H  s                 68     -2.167707  3 H  s          
    87     -2.167354  4 H  s                106     -2.167354  5 H  s          

 Vector   31  Occ=0.000000D+00  E= 5.147947D-01
              MO Center= -6.1D-02,  4.8D-10,  1.1D-01, r^2= 5.9D+00
   Bfn.  Coefficient  Atom+Function         Bfn.  Coefficient  Atom+Function  
  ----- ------------  ---------------      ----- ------------  ---------------
    48      4.108004  2 H  s                 86     -3.226928  4 H  s          
   105     -3.226928  5 H  s                 67      2.346388  3 H  s          
    49     -2.315310  2 H  s                 13     -2.189139  1 C  pz         
    11     -2.100214  1 C  px                87      1.818925  4 H  s          
   106      1.818925  5 H  s                 33      1.712535  1 C  dyy        


 center of mass
 --------------
 x =  -0.00000069 y =   0.00000000 z =   0.00000619

 moments of inertia (a.u.)
 ------------------
          11.251731592146           0.000000000000          -0.000001256763
           0.000000000000          11.251711268437           0.000000000000
          -0.000001256763           0.000000000000          11.251703395512

     Multipole analysis of the density
     ---------------------------------

     L   x y z        total         alpha         beta         nuclear
     -   - - -        -----         -----         ----         -------
     0   0 0 0     -0.000000     -5.000000     -5.000000     10.000000

     1   1 0 0      0.000001      0.000003      0.000003     -0.000005
     1   0 1 0     -0.000000     -0.000000     -0.000000      0.000000
     1   0 0 1     -0.000005     -0.000022     -0.000022      0.000040

     2   2 0 0     -6.553991     -6.068076     -6.068076      5.582161
     2   1 1 0     -0.000000     -0.000000     -0.000000      0.000000
     2   1 0 1      0.000000     -0.000000     -0.000000      0.000001
     2   0 2 0     -6.553983     -6.068082     -6.068082      5.582181
     2   0 1 1     -0.000000     -0.000000     -0.000000      0.000000
     2   0 0 2     -6.553960     -6.068074     -6.068074      5.582189


 Parallel integral file used     549 records with       0 large values


            General Information
            -------------------
          SCF calculation type: DFT
          Wavefunction type:  closed shell.
          No. of atoms     :     5
          No. of electrons :    10
           Alpha electrons :     5
            Beta electrons :     5
          Charge           :     0
          Spin multiplicity:     1
          Use of symmetry is: off; symmetry adaption is: off
          Maximum number of iterations: ***
          AO basis - number of functions:   121
                     number of shells:    45
          Convergence on energy requested: 1.00D-06
          Convergence on density requested: 1.00D-05
          Convergence on gradient requested: 5.00D-04

              XC Information
              --------------
                  TPSS metaGGA Exchange Functional  1.000          
             TPSS03 metaGGA Correlation Functional  1.000          

             Grid Information
             ----------------
          Grid used for XC integration:  medium    
          Radial quadrature: Mura-Knowles        
          Angular quadrature: Lebedev. 
          Tag              B.-S. Rad. Rad. Pts. Rad. Cut. Ang. Pts.
          ---              ---------- --------- --------- ---------
          C                   0.70       49          10.0       434
          H                   0.35       45          11.0       434
          Grid pruning is: on 
          Number of quadrature shells:   229
          Spatial weights used:  Erf1

          Convergence Information
          -----------------------
          Convergence aids based upon iterative change in 
          total energy or number of iterations. 
          Levelshifting, if invoked, occurs when the 
          HOMO/LUMO gap drops below (HL_TOL): 1.00D-02
          DIIS, if invoked, will attempt to extrapolate 
          using up to (NFOCK): 10 stored Fock matrices.

                    Damping( 0%)  Levelshifting(0.5)       DIIS
                  --------------- ------------------- ---------------
          dE  on:    start            ASAP                start   
          dE off:    2 iters        *** iters           *** iters 


      Screening Tolerance Information
      -------------------------------
          Density screening/tol_rho: 1.00D-10
          AO Gaussian exp screening on grid/accAOfunc:  14
          CD Gaussian exp screening on grid/accCDfunc:  20
          XC Gaussian exp screening on grid/accXCfunc:  20
          Schwarz screening/accCoul: 1.00D-08



                            NWChem DFT Gradient Module
                            --------------------------



  charge          =   0.00
  wavefunction    = closed shell



                         DFT ENERGY GRADIENTS

    atom               coordinates                        gradient
                 x          y          z           x          y          z
   1 C      -0.000001   0.000000   0.000010   -0.000000  -0.000000   0.000000
   2 H       0.000000   0.000000   2.046124   -0.000000  -0.000000   0.000000
   3 H       1.929104   0.000000  -0.682047    0.000001  -0.000000   0.000001
   4 H      -0.964551   1.670656  -0.682048   -0.000000   0.000001  -0.000001
   5 H      -0.964551  -1.670656  -0.682048   -0.000000  -0.000001  -0.000001

                 ----------------------------------------
                 |  Time  |  1-e(secs)   |  2-e(secs)   |
                 ----------------------------------------
                 |  CPU   |       0.00   |       0.37   |
                 ----------------------------------------
                 |  WALL  |       0.00   |       0.37   |
                 ----------------------------------------
                               NWChem STEPPER Module
                               ---------------------


   Step sought for minimum. 
   Actual energy difference is :   -2.9940383754478717E-006
   2nd order predicted energy difference  was :   -1.8731468045309901E-008
   One of these is below the energy  tolerance:    1.0000000000000000E-004
   Backstepping possibilities are NO 
   longer considered appropriate. 
   Update Hessian used. 
   Number of modes removed with force (in the spectral representation)
   less than:   0.000000 is:    3
   PARTIT has partitioned the input hessian 
   and gradient into two subspaces;  An 
   "external" hessian and gradient composed 
   of                     6  independent translations 
   and rotations, and an "internal" hessian 
   and gradient with a dimension of                     6
               e-diff         g-norm     g-max   
 value       -0.0000029940  0.000002  0.000001
 thres        0.0001000000  0.010000  0.000800
   ENERGY =   -40.514123608935094     
   The hessian exhibits the "proper" 
   structure, and the gradient and energy 
   convergence criterion has been met.  
   This geometry walk is HISTORY.
   Calculating the Newton-Raphson step. 
  The length (norm) of the STEP is   0.000005

  The lowest few components in the bases 
  generated by the spectral decomposition 
  of the internal hessian (non-zero force). 

  Component  Hessian     Grad      Step   Scaled-Step
  ---------  --------  --------  -------- -----------
       1     0.34D+00  0.16D-05  -.46D-05  -.46D-05
       2     0.10D+01  -.66D-06  0.66D-06  0.66D-06
       3     0.10D+01  0.27D-06  -.27D-06  -.27D-06
       4     0.10D+01  0.61D-06  -.61D-06  -.61D-06
       5     0.10D+01  0.65D-06  -.65D-06  -.65D-06
       6     0.10D+01  -.14D-06  0.14D-06  0.14D-06

  Clean-up the step; truncate at:   0.000001
  In cartesian coordinates; norm of this step is:   0.000004



  ---------------- Converged geometry ----------------


                         Geometry "g-4-step" -> "g-4-step"
                         ---------------------------------

 Output coordinates in angstroms (scale by  1.889725989 to convert to a.u.)

  No.       Tag          Charge          X              Y              Z
 ---- ---------------- ---------- -------------- -------------- --------------
    1 C                    6.0000    -0.00000053     0.00000000     0.00000523
    2 H                    1.0000     0.00000000     0.00000000     1.08276209
    3 H                    1.0000     1.02083792     0.00000000    -0.36092376
    4 H                    1.0000    -0.51041870     0.88407302    -0.36092428
    5 H                    1.0000    -0.51041870    -0.88407302    -0.36092428

      Atomic Mass 
      ----------- 

      C                 12.000000
      H                  1.007825


 Effective nuclear repulsion energy (a.u.)      13.5251838894

            Nuclear Dipole moment (a.u.) 
            ----------------------------
        X                 Y               Z
 ---------------- ---------------- ----------------
    -0.0000050000     0.0000000000     0.0000400000

 ==============================================================================
                                internuclear distances
 ------------------------------------------------------------------------------
       center one      |      center two      | atomic units |  angstroms
 ------------------------------------------------------------------------------
    2 H                |   1 C                |     2.04611  |     1.08276
    3 H                |   1 C                |     2.04613  |     1.08277
    4 H                |   1 C                |     2.04613  |     1.08277
    5 H                |   1 C                |     2.04613  |     1.08277
 ------------------------------------------------------------------------------
                         number of included internuclear distances:          4
 ==============================================================================



 ==============================================================================
                                 internuclear angles
 ------------------------------------------------------------------------------
        center 1       |       center 2       |       center 3       |  degrees
 ------------------------------------------------------------------------------
    2 H                |   1 C                |   3 H                |   109.47
    2 H                |   1 C                |   4 H                |   109.47
    2 H                |   1 C                |   5 H                |   109.47
    3 H                |   1 C                |   4 H                |   109.47
    3 H                |   1 C                |   5 H                |   109.47
    4 H                |   1 C                |   5 H                |   109.47
 ------------------------------------------------------------------------------
                            number of included internuclear angles:          6
 ==============================================================================



 ==============================================================================
                             internuclear dihedral angles
 ------------------------------------------------------------------------------
    center 1   |   center 2   |   center 3   |   center 4   |  degrees
 ------------------------------------------------------------------------------
    4 H        |   1 C        |   2 H        |   3 H        |   120.00
    5 H        |   1 C        |   2 H        |   3 H        |   120.00
    5 H        |   1 C        |   2 H        |   4 H        |   120.00
    5 H        |   1 C        |   3 H        |   4 H        |   120.00
 ------------------------------------------------------------------------------
                            number of included dihedral angles:          4
 ==============================================================================




 Task  times  cpu:       11.0s     wall:       14.1s


                                NWChem Input Module
                                -------------------


 Summary of allocated global arrays
-----------------------------------
  No active global arrays



                         GA Statistics for process    0
                         ------------------------------

       create   destroy   get      put      acc     scatter   gather  read&inc
calls:  510      510     2.60e+04 3845     2791        0        0      388     
number of processes/call 1.41e+00 2.29e+00 2.07e+00 0.00e+00 0.00e+00
bytes total:             9.63e+07 1.29e+07 4.57e+07 0.00e+00 0.00e+00 3.10e+03
bytes remote:            7.93e+07 7.53e+06 3.91e+07 0.00e+00 0.00e+00 0.00e+00
Max memory consumed for GA by this process: 583200 bytes

MA_summarize_allocated_blocks: starting scan ...
MA_summarize_allocated_blocks: scan completed: 0 heap blocks, 0 stack blocks
MA usage statistics:

	allocation statistics:
					      heap	     stack
					      ----	     -----
	current number of blocks	         0	         0
	maximum number of blocks	        23	        51
	current total bytes		         0	         0
	maximum total bytes		  28733000	  42536424
	maximum total K-bytes		     28733	     42537
	maximum total M-bytes		        29	        43


                                     CITATION
                                     --------
                Please cite the following reference when publishing
                           results obtained with NWChem:

                 M. Valiev, E.J. Bylaska, N. Govind, K. Kowalski,
              T.P. Straatsma, H.J.J. van Dam, D. Wang, J. Nieplocha,
                        E. Apra, T.L. Windus, W.A. de Jong
                 "NWChem: a comprehensive and scalable open-source
                  solution for large scale molecular simulations"
                      Comput. Phys. Commun. 181, 1477 (2010)
                           doi:10.1016/j.cpc.2010.04.018

                                      AUTHORS
                                      -------
          E. Apra, E. J. Bylaska, W. A. de Jong, N. Govind, K. Kowalski,
       T. P. Straatsma, M. Valiev, H. J. J. van Dam, D. Wang, T. L. Windus,
        J. Hammond, J. Autschbach, K. Bhaskaran-Nair, J. Brabec, K. Lopata,
       S. A. Fischer, S. Krishnamoorthy, W. Ma, M. Klemm, O. Villa, Y. Chen,
    V. Anisimov, F. Aquino, S. Hirata, M. T. Hackler, T. Risthaus, M. Malagoli,
       A. Marenich, A. Otero-de-la-Roza, J. Mullin, P. Nichols, R. Peverati,
     J. Pittner, Y. Zhao, P.-D. Fan, A. Fonari, M. Williamson, R. J. Harrison,
       J. R. Rehr, M. Dupuis, D. Silverstein, D. M. A. Smith, J. Nieplocha,
        V. Tipparaju, M. Krishnan, B. E. Van Kuiken, A. Vazquez-Mayagoitia,
        L. Jensen, M. Swart, Q. Wu, T. Van Voorhis, A. A. Auer, M. Nooijen,
      L. D. Crosby, E. Brown, G. Cisneros, G. I. Fann, H. Fruchtl, J. Garza,
        K. Hirao, R. A. Kendall, J. A. Nichols, K. Tsemekhman, K. Wolinski,
     J. Anchell, D. E. Bernholdt, P. Borowski, T. Clark, D. Clerc, H. Dachsel,
   M. J. O. Deegan, K. Dyall, D. Elwood, E. Glendening, M. Gutowski, A. C. Hess,
         J. Jaffe, B. G. Johnson, J. Ju, R. Kobayashi, R. Kutteh, Z. Lin,
   R. Littlefield, X. Long, B. Meng, T. Nakajima, S. Niu, L. Pollack, M. Rosing,
   K. Glaesemann, G. Sandrone, M. Stave, H. Taylor, G. Thomas, J. H. van Lenthe,
                               A. T. Wong, Z. Zhang.

 Total times  cpu:       11.1s     wall:       14.2s
