[1537857209.731147] [r8n4:11153:0]         sys.c:744  MXM  WARN  Conflicting CPU frequencies detected, using: 2300.00
[1537857209.732204] [r8n4:11154:0]         sys.c:744  MXM  WARN  Conflicting CPU frequencies detected, using: 2300.00
[1537857209.733626] [r8n4:11156:0]         sys.c:744  MXM  WARN  Conflicting CPU frequencies detected, using: 2300.00
[1537857209.734078] [r8n4:11155:0]         sys.c:744  MXM  WARN  Conflicting CPU frequencies detected, using: 2300.00
[1537857209.743611] [r8n4:11157:0]         sys.c:744  MXM  WARN  Conflicting CPU frequencies detected, using: 2300.00
[1537857209.744130] [r8n4:11158:0]         sys.c:744  MXM  WARN  Conflicting CPU frequencies detected, using: 2300.00
[1537857209.765323] [r8n4:11161:0]         sys.c:744  MXM  WARN  Conflicting CPU frequencies detected, using: 2300.00
[1537857209.765436] [r8n4:11159:0]         sys.c:744  MXM  WARN  Conflicting CPU frequencies detected, using: 2300.00
[1537857209.765477] [r8n4:11163:0]         sys.c:744  MXM  WARN  Conflicting CPU frequencies detected, using: 2300.00
[1537857209.799396] [r8n4:11171:0]         sys.c:744  MXM  WARN  Conflicting CPU frequencies detected, using: 2300.00
[1537857209.799415] [r8n4:11173:0]         sys.c:744  MXM  WARN  Conflicting CPU frequencies detected, using: 2300.00
[1537857209.799415] [r8n4:11169:0]         sys.c:744  MXM  WARN  Conflicting CPU frequencies detected, using: 2300.00
[1537857209.799860] [r8n4:11176:0]         sys.c:744  MXM  WARN  Conflicting CPU frequencies detected, using: 2300.00
[1537857209.800376] [r8n4:11165:0]         sys.c:744  MXM  WARN  Conflicting CPU frequencies detected, using: 2300.00
[1537857209.801368] [r8n4:11167:0]         sys.c:744  MXM  WARN  Conflicting CPU frequencies detected, using: 2300.00
[1537857209.801597] [r8n4:11175:0]         sys.c:744  MXM  WARN  Conflicting CPU frequencies detected, using: 2300.00
 argument  1 = /storage/home/bikashp/nwchem_run/rabeet/mgbl19/nwmgbl19/CO.xyz.nw
                                         
                                         


              Northwest Computational Chemistry Package (NWChem) 6.6
              ------------------------------------------------------


                    Environmental Molecular Sciences Laboratory
                       Pacific Northwest National Laboratory
                                Richland, WA 99352

                              Copyright (c) 1994-2015
                       Pacific Northwest National Laboratory
                            Battelle Memorial Institute

             NWChem is an open-source computational chemistry package
                        distributed under the terms of the
                      Educational Community License (ECL) 2.0
             A copy of the license is included with this distribution
                              in the LICENSE.TXT file

                                  ACKNOWLEDGMENT
                                  --------------

            This software and its documentation were developed at the
            EMSL at Pacific Northwest National Laboratory, a multiprogram
            national laboratory, operated for the U.S. Department of Energy
            by Battelle under Contract Number DE-AC05-76RL01830. Support
            for this work was provided by the Department of Energy Office
            of Biological and Environmental Research, Office of Basic
            Energy Sciences, and the Office of Advanced Scientific Computing.


           Job information
           ---------------

    hostname        = r8n4.niserhpc.org
    program         = /home/bikashp/Code/nwchem-6.6_tpssloc/bin/LINUX64/nwchem
    date            = Tue Sep 25 12:03:32 2018

    compiled        = Tue_Sep_18_16:24:59_2018
    source          = /home/bikashp/Code/nwchem-6.6_tpssloc
    nwchem branch   = 6.6
    nwchem revision = 27746
    ga revision     = 10594
    input           = /storage/home/bikashp/nwchem_run/rabeet/mgbl19/nwmgbl19/CO.xyz.nw
    prefix          = CO.xyz.
    data base       = ./CO.xyz.db
    status          = startup
    nproc           =       16
    time left       =     -1s



           Memory information
           ------------------

    heap     =   13107196 doubles =    100.0 Mbytes
    stack    =   13107201 doubles =    100.0 Mbytes
    global   =   26214400 doubles =    200.0 Mbytes (distinct from heap & stack)
    total    =   52428797 doubles =    400.0 Mbytes
    verify   = yes
    hardfail = no 


           Directory information
           ---------------------

  0 permanent = .
  0 scratch   = .




                                NWChem Input Module
                                -------------------



 Scaling coordinates for geometry "geometry" by  1.889725989
 (inverse scale =  0.529177249)



                             Geometry "geometry" -> ""
                             -------------------------

 Output coordinates in angstroms (scale by  1.889725989 to convert to a.u.)

  No.       Tag          Charge          X              Y              Z
 ---- ---------------- ---------- -------------- -------------- --------------
    1 O                    8.0000     0.00000000     0.00000000    -0.48411857
    2 C                    6.0000     0.00000000     0.00000000     0.64549143

      Atomic Mass 
      ----------- 

      O                 15.994910
      C                 12.000000


 Effective nuclear repulsion energy (a.u.)      22.4860863059

            Nuclear Dipole moment (a.u.) 
            ----------------------------
        X                 Y               Z
 ---------------- ---------------- ----------------
     0.0000000000     0.0000000000     0.0000000000


            XYZ format geometry
            -------------------
     2
 geometry
 O                     0.00000000     0.00000000    -0.48411857
 C                     0.00000000     0.00000000     0.64549143

 ==============================================================================
                                internuclear distances
 ------------------------------------------------------------------------------
       center one      |      center two      | atomic units |  angstroms
 ------------------------------------------------------------------------------
    2 C                |   1 O                |     2.13465  |     1.12961
 ------------------------------------------------------------------------------
                         number of included internuclear distances:          1
 ==============================================================================





 Summary of "ao basis" -> "" (cartesian)
 ------------------------------------------------------------------------------
       Tag                 Description            Shells   Functions and Types
 ---------------- ------------------------------  ------  ---------------------
 *                     6-311++G(3df,3pd)              on all atoms 




                           NWChem Geometry Optimization
                           ----------------------------



                                 NWChem DFT Module
                                 -----------------


                      Basis "ao basis" -> "ao basis" (cartesian)
                      -----
  O (Oxygen)
  ----------
            Exponent  Coefficients 
       -------------- ---------------------------------------------------------
  1 S  8.58850000E+03  0.001895
  1 S  1.29723000E+03  0.014386
  1 S  2.99296000E+02  0.070732
  1 S  8.73771000E+01  0.240001
  1 S  2.56789000E+01  0.594797
  1 S  3.74004000E+00  0.280802

  2 S  4.21175000E+01  0.113889
  2 S  9.62837000E+00  0.920811
  2 S  2.85332000E+00 -0.003274

  3 P  4.21175000E+01  0.036511
  3 P  9.62837000E+00  0.237153
  3 P  2.85332000E+00  0.819702

  4 S  9.05661000E-01  1.000000

  5 P  9.05661000E-01  1.000000

  6 S  2.55611000E-01  1.000000

  7 P  2.55611000E-01  1.000000

  8 S  8.45000000E-02  1.000000

  9 P  8.45000000E-02  1.000000

 10 D  5.16000000E+00  1.000000

 11 D  1.29200000E+00  1.000000

 12 D  3.22500000E-01  1.000000

 13 F  1.40000000E+00  1.000000

  C (Carbon)
  ----------
            Exponent  Coefficients 
       -------------- ---------------------------------------------------------
  1 S  4.56324000E+03  0.001967
  1 S  6.82024000E+02  0.015231
  1 S  1.54973000E+02  0.076127
  1 S  4.44553000E+01  0.260801
  1 S  1.30290000E+01  0.616462
  1 S  1.82773000E+00  0.221006

  2 S  2.09642000E+01  0.114660
  2 S  4.80331000E+00  0.919999
  2 S  1.45933000E+00 -0.003031

  3 P  2.09642000E+01  0.040249
  3 P  4.80331000E+00  0.237594
  3 P  1.45933000E+00  0.815854

  4 S  4.83456000E-01  1.000000

  5 P  4.83456000E-01  1.000000

  6 S  1.45585000E-01  1.000000

  7 P  1.45585000E-01  1.000000

  8 S  4.38000000E-02  1.000000

  9 P  4.38000000E-02  1.000000

 10 D  2.50400000E+00  1.000000

 11 D  6.26000000E-01  1.000000

 12 D  1.56500000E-01  1.000000

 13 F  8.00000000E-01  1.000000



 Summary of "ao basis" -> "ao basis" (cartesian)
 ------------------------------------------------------------------------------
       Tag                 Description            Shells   Functions and Types
 ---------------- ------------------------------  ------  ---------------------
 O                     6-311++G(3df,3pd)            13       45   5s4p3d1f
 C                     6-311++G(3df,3pd)            13       45   5s4p3d1f




 Summary of "ao basis" -> "ao basis" (cartesian)
 ------------------------------------------------------------------------------
       Tag                 Description            Shells   Functions and Types
 ---------------- ------------------------------  ------  ---------------------
 O                     6-311++G(3df,3pd)            13       45   5s4p3d1f
 C                     6-311++G(3df,3pd)            13       45   5s4p3d1f


  Caching 1-el integrals 

            General Information
            -------------------
          SCF calculation type: DFT
          Wavefunction type:  closed shell.
          No. of atoms     :     2
          No. of electrons :    14
           Alpha electrons :     7
            Beta electrons :     7
          Charge           :     0
          Spin multiplicity:     1
          Use of symmetry is: off; symmetry adaption is: off
          Maximum number of iterations: ***
          AO basis - number of functions:    90
                     number of shells:    26
          Convergence on energy requested: 1.00D-06
          Convergence on density requested: 1.00D-05
          Convergence on gradient requested: 5.00D-04

              XC Information
              --------------
                  TPSS metaGGA Exchange Functional  1.000          
             TPSS03 metaGGA Correlation Functional  1.000          

             Grid Information
             ----------------
          Grid used for XC integration:  medium    
          Radial quadrature: Mura-Knowles        
          Angular quadrature: Lebedev. 
          Tag              B.-S. Rad. Rad. Pts. Rad. Cut. Ang. Pts.
          ---              ---------- --------- --------- ---------
          O                   0.60       49           8.0       434
          C                   0.70       49           8.0       434
          Grid pruning is: on 
          Number of quadrature shells:    98
          Spatial weights used:  Erf1

          Convergence Information
          -----------------------
          Convergence aids based upon iterative change in 
          total energy or number of iterations. 
          Levelshifting, if invoked, occurs when the 
          HOMO/LUMO gap drops below (HL_TOL): 1.00D-02
          DIIS, if invoked, will attempt to extrapolate 
          using up to (NFOCK): 10 stored Fock matrices.

                    Damping( 0%)  Levelshifting(0.5)       DIIS
                  --------------- ------------------- ---------------
          dE  on:    start            ASAP                start   
          dE off:    2 iters        *** iters           *** iters 


      Screening Tolerance Information
      -------------------------------
          Density screening/tol_rho: 1.00D-10
          AO Gaussian exp screening on grid/accAOfunc:  14
          CD Gaussian exp screening on grid/accCDfunc:  20
          XC Gaussian exp screening on grid/accXCfunc:  20
          Schwarz screening/accCoul: 1.00D-08


      Superposition of Atomic Density Guess
      -------------------------------------

 Sum of atomic energies:        -112.44690359

      Non-variational initial energy
      ------------------------------

 Total energy =    -112.867268
 1-e energy   =    -197.569519
 2-e energy   =      62.216165
 HOMO         =      -0.392496
 LUMO         =       0.019387

   Time after variat. SCF:      0.5
   Time prior to 1st pass:      0.5

 Integral file          = ./CO.xyz.aoints.00
 Record size in doubles =    65536    No. of integs per rec  =    43688
 Max. records in memory =       18    Max. records in file   = 11666402
 No. of bits per label  =        8    No. of bits per value  =       64


 #quartets = 6.176D+04 #integrals = 2.255D+06 #direct =  0.0% #cached =100.0%


File balance: exchanges=     0  moved=     0  time=   0.0


 Grid_pts file          = ./CO.xyz.gridpts.00
 Record size in doubles =  12289        No. of grid_pts per rec  =   3070
 Max. records in memory =      2        Max. recs in file   =  62215751


           Memory utilization after 1st SCF pass: 
           Heap Space remaining (MW):       11.90            11900060
          Stack Space remaining (MW):       13.11            13106644

   convergence    iter        energy       DeltaE   RMS-Dens  Diis-err    time
 ---------------- ----- ----------------- --------- --------- ---------  ------
 d= 0,ls=0.0,diis     1   -113.3183752319 -1.36D+02  1.48D-02  8.31D-01     0.9
 d= 0,ls=0.0,diis     2   -112.9174946185  4.01D-01  7.37D-03  4.56D+00     1.0
 d= 0,ls=0.0,diis     3   -113.3565377629 -4.39D-01  1.53D-03  8.31D-02     1.1
 d= 0,ls=0.0,diis     4   -113.3595605281 -3.02D-03  4.47D-04  1.80D-03     1.2
 d= 0,ls=0.0,diis     5   -113.3607058783 -1.15D-03  1.23D-04  1.29D-04     1.2
  Resetting Diis
 d= 0,ls=0.0,diis     6   -113.3603049821  4.01D-04  3.45D-05  9.72D-06     1.3
 d= 0,ls=0.0,diis     7   -113.3603798614 -7.49D-05  6.68D-06  7.33D-08     1.4
 d= 0,ls=0.0,diis     8   -113.3603702557  9.61D-06  1.89D-06  2.05D-07     1.4
 d= 0,ls=0.0,diis     9   -113.3603758819 -5.63D-06  1.17D-06  2.88D-08     1.5
 d= 0,ls=0.0,diis    10   -113.3603751305  7.51D-07  4.43D-07  4.36D-10     1.6


         Total DFT energy =     -113.360375130510
      One electron energy =     -197.802786810005
           Coulomb energy =       75.790332463218
          Exchange energy =      -13.379000954431
       Correlation energy =       -0.455006135173
 Nuclear repulsion energy =       22.486086305880

 Numeric. integr. density =       14.000000166399

     Total iterative time =      1.1s



                       DFT Final Molecular Orbital Analysis
                       ------------------------------------

 Vector    1  Occ=2.000000D+00  E=-1.906815D+01
              MO Center= -4.5D-17, -6.2D-18, -4.8D-01, r^2= 1.5D-02
   Bfn.  Coefficient  Atom+Function         Bfn.  Coefficient  Atom+Function  
  ----- ------------  ---------------      ----- ------------  ---------------
     1      0.550682  1 O  s                  2      0.470976  1 O  s          

 Vector    2  Occ=2.000000D+00  E=-1.018136D+01
              MO Center=  4.5D-17,  3.5D-17,  6.5D-01, r^2= 2.8D-02
   Bfn.  Coefficient  Atom+Function         Bfn.  Coefficient  Atom+Function  
  ----- ------------  ---------------      ----- ------------  ---------------
    46      0.562170  2 C  s                 47      0.465359  2 C  s          

 Vector    3  Occ=2.000000D+00  E=-1.154359D+00
              MO Center=  1.4D-15,  1.6D-15, -1.7D-01, r^2= 4.3D-01
   Bfn.  Coefficient  Atom+Function         Bfn.  Coefficient  Atom+Function  
  ----- ------------  ---------------      ----- ------------  ---------------
    10      0.596764  1 O  s                  6      0.493571  1 O  s          
     2     -0.190554  1 O  s                 51      0.172355  2 C  s          

 Vector    4  Occ=2.000000D+00  E=-5.955218D-01
              MO Center= -4.1D-15,  8.1D-16, -4.7D-01, r^2= 8.0D-01
   Bfn.  Coefficient  Atom+Function         Bfn.  Coefficient  Atom+Function  
  ----- ------------  ---------------      ----- ------------  ---------------
    10      0.543445  1 O  s                 13     -0.294044  1 O  pz         
     9     -0.287062  1 O  pz                51     -0.254763  2 C  s          
     6      0.243471  1 O  s                  5     -0.236994  1 O  pz         
    58     -0.178269  2 C  pz         

 Vector    5  Occ=2.000000D+00  E=-5.128915D-01
              MO Center=  4.3D-16, -5.4D-16, -1.8D-01, r^2= 8.1D-01
   Bfn.  Coefficient  Atom+Function         Bfn.  Coefficient  Atom+Function  
  ----- ------------  ---------------      ----- ------------  ---------------
    12      0.300098  1 O  py                 8      0.279096  1 O  py         
     4      0.217517  1 O  py                11      0.207357  1 O  px         
     7      0.192845  1 O  px                53      0.153914  2 C  py         
     3      0.150296  1 O  px         

 Vector    6  Occ=2.000000D+00  E=-5.128915D-01
              MO Center= -8.2D-16,  2.5D-15, -1.8D-01, r^2= 8.1D-01
   Bfn.  Coefficient  Atom+Function         Bfn.  Coefficient  Atom+Function  
  ----- ------------  ---------------      ----- ------------  ---------------
    11      0.300098  1 O  px                 7      0.279096  1 O  px         
     3      0.217517  1 O  px                12     -0.207357  1 O  py         
     8     -0.192845  1 O  py                52      0.153914  2 C  px         
     4     -0.150296  1 O  py         

 Vector    7  Occ=2.000000D+00  E=-4.012806D-01
              MO Center=  8.9D-15,  2.5D-15,  8.5D-01, r^2= 1.1D+00
   Bfn.  Coefficient  Atom+Function         Bfn.  Coefficient  Atom+Function  
  ----- ------------  ---------------      ----- ------------  ---------------
    55      0.839195  2 C  s                 13     -0.238222  1 O  pz         
    51      0.223198  2 C  s                 54      0.222585  2 C  pz         
    50      0.210799  2 C  pz                 9     -0.186390  1 O  pz         

 Vector    8  Occ=0.000000D+00  E=-1.356384D-01
              MO Center=  5.8D-15, -5.4D-15,  4.4D-01, r^2= 1.5D+00
   Bfn.  Coefficient  Atom+Function         Bfn.  Coefficient  Atom+Function  
  ----- ------------  ---------------      ----- ------------  ---------------
    57      0.450251  2 C  py                56     -0.357729  2 C  px         
    53      0.275994  2 C  py                12     -0.273875  1 O  py         
    52     -0.219280  2 C  px                11      0.217597  1 O  px         
     8     -0.203708  1 O  py                49      0.195949  2 C  py         
     7      0.161848  1 O  px                48     -0.155683  2 C  px         

 Vector    9  Occ=0.000000D+00  E=-1.356384D-01
              MO Center= -2.1D-15, -3.5D-15,  4.4D-01, r^2= 1.5D+00
   Bfn.  Coefficient  Atom+Function         Bfn.  Coefficient  Atom+Function  
  ----- ------------  ---------------      ----- ------------  ---------------
    56      0.450251  2 C  px                57      0.357729  2 C  py         
    52      0.275994  2 C  px                11     -0.273875  1 O  px         
    53      0.219280  2 C  py                12     -0.217597  1 O  py         
     7     -0.203708  1 O  px                48      0.195949  2 C  px         
     8     -0.161848  1 O  py                49      0.155683  2 C  py         

 Vector   10  Occ=0.000000D+00  E= 1.788444D-02
              MO Center=  7.4D-15,  8.0D-14, -4.2D-01, r^2= 7.8D+00
   Bfn.  Coefficient  Atom+Function         Bfn.  Coefficient  Atom+Function  
  ----- ------------  ---------------      ----- ------------  ---------------
    14      2.350625  1 O  s                 59     -2.320018  2 C  s          
    55     -1.127999  2 C  s                 58      0.969992  2 C  pz         
    10      0.814824  1 O  s                 62      0.793334  2 C  pz         
    17      0.526918  1 O  pz                13      0.287308  1 O  pz         
    80     -0.182129  2 C  dzz        

 Vector   11  Occ=0.000000D+00  E= 4.902089D-02
              MO Center= -1.1D-14,  7.4D-14,  2.1D+00, r^2= 7.1D+00
   Bfn.  Coefficient  Atom+Function         Bfn.  Coefficient  Atom+Function  
  ----- ------------  ---------------      ----- ------------  ---------------
    62      1.185717  2 C  pz                14      0.751328  1 O  s          
    59      0.533543  2 C  s                 75     -0.299980  2 C  dxx        
    78     -0.299980  2 C  dyy               80     -0.215899  2 C  dzz        
    51     -0.179526  2 C  s          

 Vector   12  Occ=0.000000D+00  E= 6.138560D-02
              MO Center= -6.9D-14, -8.2D-14,  6.8D-01, r^2= 9.2D+00
   Bfn.  Coefficient  Atom+Function         Bfn.  Coefficient  Atom+Function  
  ----- ------------  ---------------      ----- ------------  ---------------
    61      0.933198  2 C  py                60      0.753349  2 C  px         
    57     -0.258287  2 C  py                56     -0.208509  2 C  px         

 Vector   13  Occ=0.000000D+00  E= 6.138560D-02
              MO Center=  7.6D-14, -5.9D-14,  6.8D-01, r^2= 9.2D+00
   Bfn.  Coefficient  Atom+Function         Bfn.  Coefficient  Atom+Function  
  ----- ------------  ---------------      ----- ------------  ---------------
    60      0.933198  2 C  px                61     -0.753349  2 C  py         
    56     -0.258287  2 C  px                57      0.208509  2 C  py         

 Vector   14  Occ=0.000000D+00  E= 1.436766D-01
              MO Center= -7.1D-17,  3.5D-15, -1.1D+00, r^2= 5.7D+00
   Bfn.  Coefficient  Atom+Function         Bfn.  Coefficient  Atom+Function  
  ----- ------------  ---------------      ----- ------------  ---------------
    14      5.264513  1 O  s                 55     -3.882206  2 C  s          
    17      2.994091  1 O  pz                58      1.679620  2 C  pz         
    59     -1.461437  2 C  s                 80     -1.249457  2 C  dzz        
    10      0.919652  1 O  s                 13      0.510315  1 O  pz         
    51     -0.412897  2 C  s                 75     -0.411770  2 C  dxx        

 Vector   15  Occ=0.000000D+00  E= 1.918753D-01
              MO Center=  6.0D-15,  3.1D-14, -3.3D-01, r^2= 7.4D+00
   Bfn.  Coefficient  Atom+Function         Bfn.  Coefficient  Atom+Function  
  ----- ------------  ---------------      ----- ------------  ---------------
    16      2.047423  1 O  py                61     -1.159764  2 C  py         
    15      0.461686  1 O  px                57     -0.390967  2 C  py         
    79      0.319061  2 C  dyz               12     -0.260751  1 O  py         
    60     -0.261522  2 C  px         

 Vector   16  Occ=0.000000D+00  E= 1.918753D-01
              MO Center=  1.4D-14, -2.5D-15, -3.3D-01, r^2= 7.4D+00
   Bfn.  Coefficient  Atom+Function         Bfn.  Coefficient  Atom+Function  
  ----- ------------  ---------------      ----- ------------  ---------------
    15      2.047423  1 O  px                60     -1.159764  2 C  px         
    16     -0.461686  1 O  py                56     -0.390967  2 C  px         
    77      0.319061  2 C  dxz               11     -0.260751  1 O  px         
    61      0.261522  2 C  py         

 Vector   17  Occ=0.000000D+00  E= 2.111156D-01
              MO Center= -2.0D-14, -2.5D-14, -4.3D-01, r^2= 9.0D+00
   Bfn.  Coefficient  Atom+Function         Bfn.  Coefficient  Atom+Function  
  ----- ------------  ---------------      ----- ------------  ---------------
    14      6.672743  1 O  s                 59     -3.243095  2 C  s          
    55     -2.479424  2 C  s                 62      2.030046  2 C  pz         
    58      1.191037  2 C  pz                13      0.925511  1 O  pz         
    80     -0.739687  2 C  dzz               10      0.735977  1 O  s          
     6     -0.367451  1 O  s                 51     -0.229408  2 C  s          

 Vector   18  Occ=0.000000D+00  E= 2.514675D-01
              MO Center=  3.3D-15, -9.7D-15,  5.5D-01, r^2= 3.0D+00
   Bfn.  Coefficient  Atom+Function         Bfn.  Coefficient  Atom+Function  
  ----- ------------  ---------------      ----- ------------  ---------------
    75      0.795915  2 C  dxx               78     -0.795915  2 C  dyy        

 Vector   19  Occ=0.000000D+00  E= 2.514680D-01
              MO Center= -1.0D-15, -2.6D-15,  5.5D-01, r^2= 3.0D+00
   Bfn.  Coefficient  Atom+Function         Bfn.  Coefficient  Atom+Function  
  ----- ------------  ---------------      ----- ------------  ---------------
    76      1.591830  2 C  dxy               31      0.176147  1 O  dxy        

 Vector   20  Occ=0.000000D+00  E= 3.110709D-01
              MO Center=  3.5D-15,  4.4D-15,  1.3D+00, r^2= 5.0D+00
   Bfn.  Coefficient  Atom+Function         Bfn.  Coefficient  Atom+Function  
  ----- ------------  ---------------      ----- ------------  ---------------
    55     -5.032327  2 C  s                 14      4.605262  1 O  s          
    58      2.582679  2 C  pz                59     -2.246093  2 C  s          
    10      1.507034  1 O  s                 17      1.510539  1 O  pz         
    13      1.454749  1 O  pz                80      0.700951  2 C  dzz        
    51     -0.415568  2 C  s                 75      0.380863  2 C  dxx        

 Vector   21  Occ=0.000000D+00  E= 3.776838D-01
              MO Center=  1.4D-15, -3.3D-14,  4.6D-01, r^2= 5.7D+00
   Bfn.  Coefficient  Atom+Function         Bfn.  Coefficient  Atom+Function  
  ----- ------------  ---------------      ----- ------------  ---------------
    14      5.803994  1 O  s                 17      2.472544  1 O  pz         
    75     -2.368436  2 C  dxx               78     -2.368436  2 C  dyy        
    10     -1.462988  1 O  s                 80     -0.869649  2 C  dzz        
    62      0.692173  2 C  pz                35     -0.556374  1 O  dzz        
    13     -0.540743  1 O  pz                58     -0.440212  2 C  pz         

 Vector   22  Occ=0.000000D+00  E= 4.005582D-01
              MO Center= -1.3D-14,  1.2D-14,  1.2D+00, r^2= 3.6D+00
   Bfn.  Coefficient  Atom+Function         Bfn.  Coefficient  Atom+Function  
  ----- ------------  ---------------      ----- ------------  ---------------
    77      1.945172  2 C  dxz               79     -1.504091  2 C  dyz        
    15      0.654925  1 O  px                60     -0.599401  2 C  px         
    11      0.542732  1 O  px                16     -0.506416  1 O  py         
    61      0.463483  2 C  py                12     -0.419663  1 O  py         
    52     -0.319052  2 C  px                53      0.246704  2 C  py         

 Vector   23  Occ=0.000000D+00  E= 4.005582D-01
              MO Center=  9.0D-15,  1.3D-14,  1.2D+00, r^2= 3.6D+00
   Bfn.  Coefficient  Atom+Function         Bfn.  Coefficient  Atom+Function  
  ----- ------------  ---------------      ----- ------------  ---------------
    79      1.945172  2 C  dyz               77      1.504091  2 C  dxz        
    16      0.654925  1 O  py                61     -0.599401  2 C  py         
    12      0.542732  1 O  py                15      0.506416  1 O  px         
    60     -0.463483  2 C  px                11      0.419663  1 O  px         
    53     -0.319052  2 C  py                52     -0.246704  2 C  px         

 Vector   24  Occ=0.000000D+00  E= 4.866527D-01
              MO Center=  4.7D-15,  5.5D-14,  7.1D-02, r^2= 3.8D+00
   Bfn.  Coefficient  Atom+Function         Bfn.  Coefficient  Atom+Function  
  ----- ------------  ---------------      ----- ------------  ---------------
    57      2.365075  2 C  py                79     -1.973779  2 C  dyz        
    16     -1.162993  1 O  py                12     -0.750736  1 O  py         
    53     -0.748805  2 C  py                34     -0.468652  1 O  dyz        
    56      0.274207  2 C  px                77     -0.228840  2 C  dxz        
    49     -0.216800  2 C  py         

 Vector   25  Occ=0.000000D+00  E= 4.866527D-01
              MO Center= -1.1D-14,  7.8D-16,  7.1D-02, r^2= 3.8D+00
   Bfn.  Coefficient  Atom+Function         Bfn.  Coefficient  Atom+Function  
  ----- ------------  ---------------      ----- ------------  ---------------
    56      2.365075  2 C  px                77     -1.973779  2 C  dxz        
    15     -1.162993  1 O  px                11     -0.750736  1 O  px         
    52     -0.748805  2 C  px                32     -0.468652  1 O  dxz        
    57     -0.274207  2 C  py                79      0.228840  2 C  dyz        
    48     -0.216800  2 C  px         

 Vector   26  Occ=0.000000D+00  E= 5.290734D-01
              MO Center= -8.1D-15, -5.1D-14, -2.0D-01, r^2= 5.4D+00
   Bfn.  Coefficient  Atom+Function         Bfn.  Coefficient  Atom+Function  
  ----- ------------  ---------------      ----- ------------  ---------------
    14     12.405447  1 O  s                 55    -11.429989  2 C  s          
    58      8.333960  2 C  pz                10      5.498131  1 O  s          
    80     -4.550386  2 C  dzz               17      3.766485  1 O  pz         
    59     -2.799592  2 C  s                 13      2.002597  1 O  pz         
    35      1.381127  1 O  dzz               62      0.938109  2 C  pz         


 center of mass
 --------------
 x =   0.00000000 y =   0.00000000 z =   0.00016634

 moments of inertia (a.u.)
 ------------------
          31.241990747237           0.000000000000           0.000000000000
           0.000000000000          31.241990747237           0.000000000000
           0.000000000000           0.000000000000           0.000000000000

     Multipole analysis of the density
     ---------------------------------

     L   x y z        total         alpha         beta         nuclear
     -   - - -        -----         -----         ----         -------
     0   0 0 0     -0.000000     -7.000000     -7.000000     14.000000

     1   1 0 0     -0.000000     -0.000000     -0.000000      0.000000
     1   0 1 0     -0.000000     -0.000000     -0.000000      0.000000
     1   0 0 1     -0.042101     -0.021050     -0.021050      0.000000

     2   2 0 0     -7.820528     -3.910264     -3.910264      0.000000
     2   1 1 0      0.000000      0.000000      0.000000      0.000000
     2   1 0 1     -0.000000     -0.000000     -0.000000      0.000000
     2   0 2 0     -7.820528     -3.910264     -3.910264      0.000000
     2   0 1 1     -0.000000     -0.000000     -0.000000      0.000000
     2   0 0 2     -9.197281    -12.410204    -12.410204     15.623126


 Parallel integral file used      61 records with       0 large values


            General Information
            -------------------
          SCF calculation type: DFT
          Wavefunction type:  closed shell.
          No. of atoms     :     2
          No. of electrons :    14
           Alpha electrons :     7
            Beta electrons :     7
          Charge           :     0
          Spin multiplicity:     1
          Use of symmetry is: off; symmetry adaption is: off
          Maximum number of iterations: ***
          AO basis - number of functions:    90
                     number of shells:    26
          Convergence on energy requested: 1.00D-06
          Convergence on density requested: 1.00D-05
          Convergence on gradient requested: 5.00D-04

              XC Information
              --------------
                  TPSS metaGGA Exchange Functional  1.000          
             TPSS03 metaGGA Correlation Functional  1.000          

             Grid Information
             ----------------
          Grid used for XC integration:  medium    
          Radial quadrature: Mura-Knowles        
          Angular quadrature: Lebedev. 
          Tag              B.-S. Rad. Rad. Pts. Rad. Cut. Ang. Pts.
          ---              ---------- --------- --------- ---------
          O                   0.60       49           8.0       434
          C                   0.70       49           8.0       434
          Grid pruning is: on 
          Number of quadrature shells:    98
          Spatial weights used:  Erf1

          Convergence Information
          -----------------------
          Convergence aids based upon iterative change in 
          total energy or number of iterations. 
          Levelshifting, if invoked, occurs when the 
          HOMO/LUMO gap drops below (HL_TOL): 1.00D-02
          DIIS, if invoked, will attempt to extrapolate 
          using up to (NFOCK): 10 stored Fock matrices.

                    Damping( 0%)  Levelshifting(0.5)       DIIS
                  --------------- ------------------- ---------------
          dE  on:    start            ASAP                start   
          dE off:    2 iters        *** iters           *** iters 


      Screening Tolerance Information
      -------------------------------
          Density screening/tol_rho: 1.00D-10
          AO Gaussian exp screening on grid/accAOfunc:  14
          CD Gaussian exp screening on grid/accCDfunc:  20
          XC Gaussian exp screening on grid/accXCfunc:  20
          Schwarz screening/accCoul: 1.00D-08



                            NWChem DFT Gradient Module
                            --------------------------



  charge          =   0.00
  wavefunction    = closed shell



                         DFT ENERGY GRADIENTS

    atom               coordinates                        gradient
                 x          y          z           x          y          z
   1 O       0.000000   0.000000  -0.914851    0.000000  -0.000000  -0.015621
   2 C       0.000000   0.000000   1.219802   -0.000000   0.000000   0.015621

                 ----------------------------------------
                 |  Time  |  1-e(secs)   |  2-e(secs)   |
                 ----------------------------------------
                 |  CPU   |       0.00   |       0.33   |
                 ----------------------------------------
                 |  WALL  |       0.00   |       0.33   |
                 ----------------------------------------
                               NWChem STEPPER Module
                               ---------------------


   Step sought for minimum. 
   Update Hessian used. 
   Nuclear Hessian initialized with UNIT matrix. 
   Dependent rotation vector no.                    3
   found in ECKART; linear geometry  assumed. 
   Number of modes removed with force (in the spectral representation)
   less than:   0.000000 is:    0
   PARTIT has partitioned the input hessian 
   and gradient into two subspaces;  An 
   "external" hessian and gradient composed 
   of                     5  independent translations 
   and rotations, and an "internal" hessian 
   and gradient with a dimension of                     1
               e-diff         g-norm     g-max   
 value     -113.3603751305  0.022091  0.015621
 thres        0.0001000000  0.010000  0.000800
  trust radius =     0.10
   Calculating the Newton-Raphson step. 
  The length (norm) of the STEP is   0.022091

  The lowest few components in the bases 
  generated by the spectral decomposition 
  of the internal hessian (non-zero force). 

  Component  Hessian     Grad      Step   Scaled-Step
  ---------  --------  --------  -------- -----------
       1     0.10D+01  -.22D-01  0.22D-01  0.22D-01

  Clean-up the step; truncate at:   0.000001
  In cartesian coordinates; norm of this step is:   0.022091
         Walk statistics for step:   1
     Previous actual total energy:   0.000000000000D+00
      Current actual total energy:  -0.113360375131D+03
         Actual energy difference:  -0.113360375131D+03 threshold:         0.100000D-03
    Second order energy predicted:   0.000000000000D+00
             Ratio of differences:   0.000000000000D+00
               Fixed trust radius:   0.100000000000D+00
   Number of negative eigenvalues:   0
   Max absolute value of Gradient:   0.156209829062D-01 threshold:         0.800000D-03
                    Gradient norm:   0.220914058835D-01 threshold:         0.100000D-01
                RMS Gradient norm:   0.156209829062D-01
  Largest component of step v-tor:   0.220910000000D-01
  New 2nd order energy prediction:  -0.244015106873D-03



  ------------------- New geometry -------------------


                         Geometry "g-1-step" -> "g-1-step"
                         ---------------------------------

 Output coordinates in angstroms (scale by  1.889725989 to convert to a.u.)

  No.       Tag          Charge          X              Y              Z
 ---- ---------------- ---------- -------------- -------------- --------------
    1 O                    8.0000     0.00000000     0.00000000    -0.47585229
    2 C                    6.0000     0.00000000     0.00000000     0.63722515

      Atomic Mass 
      ----------- 

      O                 15.994910
      C                 12.000000


 Effective nuclear repulsion energy (a.u.)      22.8200724757

            Nuclear Dipole moment (a.u.) 
            ----------------------------
        X                 Y               Z
 ---------------- ---------------- ----------------
     0.0000000000     0.0000000000     0.0312420000

 ==============================================================================
                                internuclear distances
 ------------------------------------------------------------------------------
       center one      |      center two      | atomic units |  angstroms
 ------------------------------------------------------------------------------
    2 C                |   1 O                |     2.10341  |     1.11308
 ------------------------------------------------------------------------------
                         number of included internuclear distances:          1
 ==============================================================================




                                 NWChem DFT Module
                                 -----------------




 Summary of "ao basis" -> "ao basis" (cartesian)
 ------------------------------------------------------------------------------
       Tag                 Description            Shells   Functions and Types
 ---------------- ------------------------------  ------  ---------------------
 O                     6-311++G(3df,3pd)            13       45   5s4p3d1f
 C                     6-311++G(3df,3pd)            13       45   5s4p3d1f


  Caching 1-el integrals 

            General Information
            -------------------
          SCF calculation type: DFT
          Wavefunction type:  closed shell.
          No. of atoms     :     2
          No. of electrons :    14
           Alpha electrons :     7
            Beta electrons :     7
          Charge           :     0
          Spin multiplicity:     1
          Use of symmetry is: off; symmetry adaption is: off
          Maximum number of iterations: ***
          AO basis - number of functions:    90
                     number of shells:    26
          Convergence on energy requested: 1.00D-06
          Convergence on density requested: 1.00D-05
          Convergence on gradient requested: 5.00D-04

              XC Information
              --------------
                  TPSS metaGGA Exchange Functional  1.000          
             TPSS03 metaGGA Correlation Functional  1.000          

             Grid Information
             ----------------
          Grid used for XC integration:  medium    
          Radial quadrature: Mura-Knowles        
          Angular quadrature: Lebedev. 
          Tag              B.-S. Rad. Rad. Pts. Rad. Cut. Ang. Pts.
          ---              ---------- --------- --------- ---------
          O                   0.60       49           8.0       434
          C                   0.70       49           8.0       434
          Grid pruning is: on 
          Number of quadrature shells:    98
          Spatial weights used:  Erf1

          Convergence Information
          -----------------------
          Convergence aids based upon iterative change in 
          total energy or number of iterations. 
          Levelshifting, if invoked, occurs when the 
          HOMO/LUMO gap drops below (HL_TOL): 1.00D-02
          DIIS, if invoked, will attempt to extrapolate 
          using up to (NFOCK): 10 stored Fock matrices.

                    Damping( 0%)  Levelshifting(0.5)       DIIS
                  --------------- ------------------- ---------------
          dE  on:    start            ASAP                start   
          dE off:    2 iters        *** iters           *** iters 


      Screening Tolerance Information
      -------------------------------
          Density screening/tol_rho: 1.00D-10
          AO Gaussian exp screening on grid/accAOfunc:  14
          CD Gaussian exp screening on grid/accCDfunc:  20
          XC Gaussian exp screening on grid/accXCfunc:  20
          Schwarz screening/accCoul: 1.00D-08


 Loading old vectors from job with title :



   Time after variat. SCF:      2.1
   Time prior to 1st pass:      2.1

 Integral file          = ./CO.xyz.aoints.00
 Record size in doubles =    65536    No. of integs per rec  =    43688
 Max. records in memory =       18    Max. records in file   = 11666227
 No. of bits per label  =        8    No. of bits per value  =       64


 #quartets = 6.177D+04 #integrals = 2.256D+06 #direct =  0.0% #cached =100.0%


File balance: exchanges=     0  moved=     0  time=   0.0


 Grid_pts file          = ./CO.xyz.gridpts.00
 Record size in doubles =  12289        No. of grid_pts per rec  =   3070
 Max. records in memory =      2        Max. recs in file   =  62214819


           Memory utilization after 1st SCF pass: 
           Heap Space remaining (MW):       11.90            11900060
          Stack Space remaining (MW):       13.11            13106644

   convergence    iter        energy       DeltaE   RMS-Dens  Diis-err    time
 ---------------- ----- ----------------- --------- --------- ---------  ------
 d= 0,ls=0.0,diis     1   -113.3582663396 -1.36D+02  5.36D-04  3.40D-03     2.5
 d= 0,ls=0.0,diis     2   -113.3607120207 -2.45D-03  3.25D-04  3.83D-03     2.6
 d= 0,ls=0.0,diis     3   -113.3592503177  1.46D-03  1.81D-04  1.90D-03     2.7
 d= 0,ls=0.0,diis     4   -113.3595510563 -3.01D-04  6.56D-05  7.83D-05     2.7
 d= 0,ls=0.0,diis     5   -113.3596619758 -1.11D-04  4.09D-06  5.54D-08     2.8
 d= 0,ls=0.0,diis     6   -113.3596545723  7.40D-06  1.49D-06  3.06D-09     2.9
 d= 0,ls=0.0,diis     7   -113.3596554527 -8.80D-07  1.09D-07  4.34D-10     3.0


         Total DFT energy =     -113.359655452654
      One electron energy =     -198.437012113920
           Coulomb energy =       76.109353448439
          Exchange energy =      -13.396175688011
       Correlation energy =       -0.455893574875
 Nuclear repulsion energy =       22.820072475712

 Numeric. integr. density =       14.000000449746

     Total iterative time =      0.8s



                       DFT Final Molecular Orbital Analysis
                       ------------------------------------

 Vector    1  Occ=2.000000D+00  E=-1.906712D+01
              MO Center=  2.1D-16, -8.0D-17, -4.8D-01, r^2= 1.5D-02
   Bfn.  Coefficient  Atom+Function         Bfn.  Coefficient  Atom+Function  
  ----- ------------  ---------------      ----- ------------  ---------------
     1      0.550664  1 O  s                  2      0.470974  1 O  s          

 Vector    2  Occ=2.000000D+00  E=-1.017491D+01
              MO Center= -3.2D-16, -9.0D-18,  6.4D-01, r^2= 2.8D-02
   Bfn.  Coefficient  Atom+Function         Bfn.  Coefficient  Atom+Function  
  ----- ------------  ---------------      ----- ------------  ---------------
    46      0.562100  2 C  s                 47      0.465364  2 C  s          

 Vector    3  Occ=2.000000D+00  E=-1.163047D+00
              MO Center= -2.2D-15, -2.4D-15, -1.6D-01, r^2= 4.3D-01
   Bfn.  Coefficient  Atom+Function         Bfn.  Coefficient  Atom+Function  
  ----- ------------  ---------------      ----- ------------  ---------------
    10      0.598944  1 O  s                  6      0.493542  1 O  s          
     2     -0.190448  1 O  s                 51      0.169840  2 C  s          

 Vector    4  Occ=2.000000D+00  E=-5.955219D-01
              MO Center= -1.6D-16, -1.8D-15, -4.9D-01, r^2= 7.7D-01
   Bfn.  Coefficient  Atom+Function         Bfn.  Coefficient  Atom+Function  
  ----- ------------  ---------------      ----- ------------  ---------------
    10      0.546601  1 O  s                 13     -0.295286  1 O  pz         
     9     -0.291977  1 O  pz                51     -0.249038  2 C  s          
     5     -0.240472  1 O  pz                 6      0.241359  1 O  s          
    58     -0.179867  2 C  pz         

 Vector    5  Occ=2.000000D+00  E=-5.183369D-01
              MO Center=  6.4D-15, -7.0D-15, -1.8D-01, r^2= 8.0D-01
   Bfn.  Coefficient  Atom+Function         Bfn.  Coefficient  Atom+Function  
  ----- ------------  ---------------      ----- ------------  ---------------
    12      0.286565  1 O  py                 8      0.267090  1 O  py         
    11     -0.224153  1 O  px                 4      0.208256  1 O  py         
     7     -0.208919  1 O  px                 3     -0.162899  1 O  px         

 Vector    6  Occ=2.000000D+00  E=-5.183369D-01
              MO Center=  7.1D-16,  1.3D-15, -1.8D-01, r^2= 8.0D-01
   Bfn.  Coefficient  Atom+Function         Bfn.  Coefficient  Atom+Function  
  ----- ------------  ---------------      ----- ------------  ---------------
    11      0.286565  1 O  px                 7      0.267090  1 O  px         
    12      0.224153  1 O  py                 3      0.208256  1 O  px         
     8      0.208919  1 O  py                 4      0.162899  1 O  py         

 Vector    7  Occ=2.000000D+00  E=-3.998697D-01
              MO Center=  6.7D-16, -4.9D-15,  8.6D-01, r^2= 1.1D+00
   Bfn.  Coefficient  Atom+Function         Bfn.  Coefficient  Atom+Function  
  ----- ------------  ---------------      ----- ------------  ---------------
    55      0.843073  2 C  s                 13     -0.230916  1 O  pz         
    51      0.225431  2 C  s                 54      0.220254  2 C  pz         
    50      0.211606  2 C  pz                 9     -0.181902  1 O  pz         

 Vector    8  Occ=0.000000D+00  E=-1.295975D-01
              MO Center=  1.3D-15, -4.4D-16,  4.4D-01, r^2= 1.5D+00
   Bfn.  Coefficient  Atom+Function         Bfn.  Coefficient  Atom+Function  
  ----- ------------  ---------------      ----- ------------  ---------------
    57      0.542175  2 C  py                12     -0.329057  1 O  py         
    53      0.325294  2 C  py                 8     -0.242286  1 O  py         
    49      0.230892  2 C  py                56      0.215521  2 C  px         
     4     -0.181958  1 O  py                16     -0.151883  1 O  py         

 Vector    9  Occ=0.000000D+00  E=-1.295975D-01
              MO Center= -1.4D-16, -4.8D-15,  4.4D-01, r^2= 1.5D+00
   Bfn.  Coefficient  Atom+Function         Bfn.  Coefficient  Atom+Function  
  ----- ------------  ---------------      ----- ------------  ---------------
    56      0.542175  2 C  px                11     -0.329057  1 O  px         
    52      0.325294  2 C  px                 7     -0.242286  1 O  px         
    48      0.230892  2 C  px                57     -0.215521  2 C  py         
     3     -0.181958  1 O  px                15     -0.151883  1 O  px         

 Vector   10  Occ=0.000000D+00  E= 1.816362D-02
              MO Center= -2.4D-14, -1.2D-14, -4.4D-01, r^2= 7.8D+00
   Bfn.  Coefficient  Atom+Function         Bfn.  Coefficient  Atom+Function  
  ----- ------------  ---------------      ----- ------------  ---------------
    14      2.424654  1 O  s                 59     -2.343115  2 C  s          
    55     -1.187383  2 C  s                 58      0.991316  2 C  pz         
    10      0.839312  1 O  s                 62      0.797167  2 C  pz         
    17      0.539648  1 O  pz                13      0.294019  1 O  pz         
    80     -0.194038  2 C  dzz        

 Vector   11  Occ=0.000000D+00  E= 4.972721D-02
              MO Center= -5.4D-14, -7.4D-14,  2.1D+00, r^2= 7.1D+00
   Bfn.  Coefficient  Atom+Function         Bfn.  Coefficient  Atom+Function  
  ----- ------------  ---------------      ----- ------------  ---------------
    62      1.189618  2 C  pz                14      0.733228  1 O  s          
    59      0.536616  2 C  s                 75     -0.301938  2 C  dxx        
    78     -0.301938  2 C  dyy               80     -0.214596  2 C  dzz        
    51     -0.171257  2 C  s          

 Vector   12  Occ=0.000000D+00  E= 6.140873D-02
              MO Center= -1.4D-14,  5.9D-14,  6.6D-01, r^2= 9.2D+00
   Bfn.  Coefficient  Atom+Function         Bfn.  Coefficient  Atom+Function  
  ----- ------------  ---------------      ----- ------------  ---------------
    61      1.166788  2 C  py                57     -0.327631  2 C  py         
    60     -0.265188  2 C  px         

 Vector   13  Occ=0.000000D+00  E= 6.140873D-02
              MO Center=  7.6D-14,  1.6D-14,  6.6D-01, r^2= 9.2D+00
   Bfn.  Coefficient  Atom+Function         Bfn.  Coefficient  Atom+Function  
  ----- ------------  ---------------      ----- ------------  ---------------
    60      1.166788  2 C  px                56     -0.327631  2 C  px         
    61      0.265188  2 C  py         

 Vector   14  Occ=0.000000D+00  E= 1.435990D-01
              MO Center= -4.2D-16,  6.0D-16, -1.0D+00, r^2= 5.7D+00
   Bfn.  Coefficient  Atom+Function         Bfn.  Coefficient  Atom+Function  
  ----- ------------  ---------------      ----- ------------  ---------------
    14      5.417774  1 O  s                 55     -3.999732  2 C  s          
    17      3.035329  1 O  pz                58      1.699841  2 C  pz         
    59     -1.484016  2 C  s                 80     -1.265883  2 C  dzz        
    10      0.944191  1 O  s                 13      0.511479  1 O  pz         
    75     -0.436102  2 C  dxx               78     -0.436102  2 C  dyy        

 Vector   15  Occ=0.000000D+00  E= 1.919918D-01
              MO Center= -3.9D-14, -2.1D-15, -3.1D-01, r^2= 7.4D+00
   Bfn.  Coefficient  Atom+Function         Bfn.  Coefficient  Atom+Function  
  ----- ------------  ---------------      ----- ------------  ---------------
    15      2.121297  1 O  px                60     -1.208688  2 C  px         
    56     -0.413555  2 C  px                77      0.347262  2 C  dxz        
    11     -0.254435  1 O  px                 7     -0.151519  1 O  px         

 Vector   16  Occ=0.000000D+00  E= 1.919918D-01
              MO Center=  4.7D-15, -3.0D-14, -3.1D-01, r^2= 7.4D+00
   Bfn.  Coefficient  Atom+Function         Bfn.  Coefficient  Atom+Function  
  ----- ------------  ---------------      ----- ------------  ---------------
    16      2.121297  1 O  py                61     -1.208688  2 C  py         
    57     -0.413555  2 C  py                79      0.347262  2 C  dyz        
    12     -0.254435  1 O  py                 8     -0.151519  1 O  py         

 Vector   17  Occ=0.000000D+00  E= 2.120383D-01
              MO Center=  4.7D-14,  3.0D-14, -4.8D-01, r^2= 9.0D+00
   Bfn.  Coefficient  Atom+Function         Bfn.  Coefficient  Atom+Function  
  ----- ------------  ---------------      ----- ------------  ---------------
    14      6.884651  1 O  s                 59     -3.307567  2 C  s          
    55     -2.707180  2 C  s                 62      2.028550  2 C  pz         
    58      1.305816  2 C  pz                13      0.986586  1 O  pz         
    10      0.850169  1 O  s                 80     -0.762396  2 C  dzz        
     6     -0.356910  1 O  s                 51     -0.264878  2 C  s          

 Vector   18  Occ=0.000000D+00  E= 2.519696D-01
              MO Center= -1.4D-15,  4.9D-15,  5.5D-01, r^2= 3.0D+00
   Bfn.  Coefficient  Atom+Function         Bfn.  Coefficient  Atom+Function  
  ----- ------------  ---------------      ----- ------------  ---------------
    75      0.795768  2 C  dxx               78     -0.795768  2 C  dyy        

 Vector   19  Occ=0.000000D+00  E= 2.519699D-01
              MO Center=  1.5D-15,  1.2D-15,  5.5D-01, r^2= 3.0D+00
   Bfn.  Coefficient  Atom+Function         Bfn.  Coefficient  Atom+Function  
  ----- ------------  ---------------      ----- ------------  ---------------
    76      1.591536  2 C  dxy               31      0.173963  1 O  dxy        

 Vector   20  Occ=0.000000D+00  E= 3.151634D-01
              MO Center= -2.5D-14, -7.9D-15,  1.4D+00, r^2= 4.9D+00
   Bfn.  Coefficient  Atom+Function         Bfn.  Coefficient  Atom+Function  
  ----- ------------  ---------------      ----- ------------  ---------------
    55      5.223932  2 C  s                 14     -4.443221  1 O  s          
    58     -2.661653  2 C  pz                59      2.205527  2 C  s          
    10     -1.652957  1 O  s                 13     -1.504712  1 O  pz         
    17     -1.481957  1 O  pz                80     -0.738024  2 C  dzz        
    75     -0.441516  2 C  dxx               78     -0.441516  2 C  dyy        

 Vector   21  Occ=0.000000D+00  E= 3.810394D-01
              MO Center=  9.1D-14, -3.4D-14,  3.8D-01, r^2= 5.6D+00
   Bfn.  Coefficient  Atom+Function         Bfn.  Coefficient  Atom+Function  
  ----- ------------  ---------------      ----- ------------  ---------------
    14      6.012960  1 O  s                 17      2.566503  1 O  pz         
    75     -2.392812  2 C  dxx               78     -2.392812  2 C  dyy        
    10     -1.512980  1 O  s                 80     -0.805201  2 C  dzz        
    62      0.663095  2 C  pz                35     -0.548999  1 O  dzz        
    13     -0.514601  1 O  pz                58     -0.429692  2 C  pz         

 Vector   22  Occ=0.000000D+00  E= 4.030522D-01
              MO Center=  6.6D-15,  2.4D-14,  1.2D+00, r^2= 3.5D+00
   Bfn.  Coefficient  Atom+Function         Bfn.  Coefficient  Atom+Function  
  ----- ------------  ---------------      ----- ------------  ---------------
    79      2.348277  2 C  dyz               16      0.779512  1 O  py         
    61     -0.722235  2 C  py                77      0.721119  2 C  dxz        
    12      0.671483  1 O  py                53     -0.399101  2 C  py         
    15      0.239376  1 O  px                60     -0.221787  2 C  px         
    11      0.206202  1 O  px         

 Vector   23  Occ=0.000000D+00  E= 4.030522D-01
              MO Center= -7.0D-14,  2.3D-14,  1.2D+00, r^2= 3.5D+00
   Bfn.  Coefficient  Atom+Function         Bfn.  Coefficient  Atom+Function  
  ----- ------------  ---------------      ----- ------------  ---------------
    77      2.348277  2 C  dxz               15      0.779512  1 O  px         
    60     -0.722235  2 C  px                79     -0.721119  2 C  dyz        
    11      0.671483  1 O  px                52     -0.399101  2 C  px         
    16     -0.239376  1 O  py                61      0.221787  2 C  py         
    12     -0.206202  1 O  py         

 Vector   24  Occ=0.000000D+00  E= 4.876217D-01
              MO Center= -7.8D-15, -1.2D-14,  5.2D-02, r^2= 3.8D+00
   Bfn.  Coefficient  Atom+Function         Bfn.  Coefficient  Atom+Function  
  ----- ------------  ---------------      ----- ------------  ---------------
    57      2.178554  2 C  py                79     -1.850504  2 C  dyz        
    16     -1.101986  1 O  py                56      1.069389  2 C  px         
    77     -0.908359  2 C  dxz               12     -0.712440  1 O  py         
    53     -0.661475  2 C  py                15     -0.540933  1 O  px         
    34     -0.444355  1 O  dyz               11     -0.349716  1 O  px         

 Vector   25  Occ=0.000000D+00  E= 4.876217D-01
              MO Center=  1.4D-14, -3.4D-15,  5.2D-02, r^2= 3.8D+00
   Bfn.  Coefficient  Atom+Function         Bfn.  Coefficient  Atom+Function  
  ----- ------------  ---------------      ----- ------------  ---------------
    56      2.178554  2 C  px                77     -1.850504  2 C  dxz        
    15     -1.101986  1 O  px                57     -1.069389  2 C  py         
    79      0.908359  2 C  dyz               11     -0.712440  1 O  px         
    52     -0.661475  2 C  px                16      0.540933  1 O  py         
    32     -0.444355  1 O  dxz               12      0.349716  1 O  py         

 Vector   26  Occ=0.000000D+00  E= 5.274708D-01
              MO Center= -1.6D-14,  2.9D-14, -1.9D-01, r^2= 5.4D+00
   Bfn.  Coefficient  Atom+Function         Bfn.  Coefficient  Atom+Function  
  ----- ------------  ---------------      ----- ------------  ---------------
    14     12.570389  1 O  s                 55    -11.594703  2 C  s          
    58      8.363164  2 C  pz                10      5.568968  1 O  s          
    80     -4.591662  2 C  dzz               17      3.765141  1 O  pz         
    59     -2.811598  2 C  s                 13      1.917516  1 O  pz         
    35      1.374347  1 O  dzz               62      0.935901  2 C  pz         


 center of mass
 --------------
 x =   0.00000000 y =   0.00000000 z =   0.00239547

 moments of inertia (a.u.)
 ------------------
          30.334190311912           0.000000000000           0.000000000000
           0.000000000000          30.334190311912           0.000000000000
           0.000000000000           0.000000000000           0.000000000000

     Multipole analysis of the density
     ---------------------------------

     L   x y z        total         alpha         beta         nuclear
     -   - - -        -----         -----         ----         -------
     0   0 0 0     -0.000000     -7.000000     -7.000000     14.000000

     1   1 0 0     -0.000000     -0.000000     -0.000000      0.000000
     1   0 1 0      0.000000      0.000000      0.000000      0.000000
     1   0 0 1     -0.064876     -0.048059     -0.048059      0.031242

     2   2 0 0     -7.789126     -3.894563     -3.894563      0.000000
     2   1 1 0     -0.000000     -0.000000     -0.000000      0.000000
     2   1 0 1     -0.000000     -0.000000     -0.000000      0.000000
     2   0 2 0     -7.789126     -3.894563     -3.894563      0.000000
     2   0 1 1      0.000000      0.000000      0.000000      0.000000
     2   0 0 2     -9.196006    -12.182620    -12.182620     15.169233


 Parallel integral file used      60 records with       0 large values


            General Information
            -------------------
          SCF calculation type: DFT
          Wavefunction type:  closed shell.
          No. of atoms     :     2
          No. of electrons :    14
           Alpha electrons :     7
            Beta electrons :     7
          Charge           :     0
          Spin multiplicity:     1
          Use of symmetry is: off; symmetry adaption is: off
          Maximum number of iterations: ***
          AO basis - number of functions:    90
                     number of shells:    26
          Convergence on energy requested: 1.00D-06
          Convergence on density requested: 1.00D-05
          Convergence on gradient requested: 5.00D-04

              XC Information
              --------------
                  TPSS metaGGA Exchange Functional  1.000          
             TPSS03 metaGGA Correlation Functional  1.000          

             Grid Information
             ----------------
          Grid used for XC integration:  medium    
          Radial quadrature: Mura-Knowles        
          Angular quadrature: Lebedev. 
          Tag              B.-S. Rad. Rad. Pts. Rad. Cut. Ang. Pts.
          ---              ---------- --------- --------- ---------
          O                   0.60       49           8.0       434
          C                   0.70       49           8.0       434
          Grid pruning is: on 
          Number of quadrature shells:    98
          Spatial weights used:  Erf1

          Convergence Information
          -----------------------
          Convergence aids based upon iterative change in 
          total energy or number of iterations. 
          Levelshifting, if invoked, occurs when the 
          HOMO/LUMO gap drops below (HL_TOL): 1.00D-02
          DIIS, if invoked, will attempt to extrapolate 
          using up to (NFOCK): 10 stored Fock matrices.

                    Damping( 0%)  Levelshifting(0.5)       DIIS
                  --------------- ------------------- ---------------
          dE  on:    start            ASAP                start   
          dE off:    2 iters        *** iters           *** iters 


      Screening Tolerance Information
      -------------------------------
          Density screening/tol_rho: 1.00D-10
          AO Gaussian exp screening on grid/accAOfunc:  14
          CD Gaussian exp screening on grid/accCDfunc:  20
          XC Gaussian exp screening on grid/accXCfunc:  20
          Schwarz screening/accCoul: 1.00D-08



                            NWChem DFT Gradient Module
                            --------------------------



  charge          =   0.00
  wavefunction    = closed shell



                         DFT ENERGY GRADIENTS

    atom               coordinates                        gradient
                 x          y          z           x          y          z
   1 O       0.000000   0.000000  -0.899230    0.000000  -0.000000   0.024669
   2 C       0.000000   0.000000   1.204181   -0.000000   0.000000  -0.024669

                 ----------------------------------------
                 |  Time  |  1-e(secs)   |  2-e(secs)   |
                 ----------------------------------------
                 |  CPU   |       0.00   |       0.33   |
                 ----------------------------------------
                 |  WALL  |       0.00   |       0.33   |
                 ----------------------------------------
                               NWChem STEPPER Module
                               ---------------------


   Step sought for minimum. 
  Energy ratio, actual to predicted =   0.339062
   Update Hessian used. 
   Dependent rotation vector no.                    3
   found in ECKART; linear geometry  assumed. 
   Number of modes removed with force (in the spectral representation)
   less than:   0.000000 is:    0
   PARTIT has partitioned the input hessian 
   and gradient into two subspaces;  An 
   "external" hessian and gradient composed 
   of                     5  independent translations 
   and rotations, and an "internal" hessian 
   and gradient with a dimension of                     1
               e-diff         g-norm     g-max   
 value        0.0007196779  0.034888  0.024669
 thres        0.0001000000  0.010000  0.000800
  trust radius =     0.10
   Calculating the Newton-Raphson step. 
  The length (norm) of the STEP is   0.013526

  The lowest few components in the bases 
  generated by the spectral decomposition 
  of the internal hessian (non-zero force). 

  Component  Hessian     Grad      Step   Scaled-Step
  ---------  --------  --------  -------- -----------
       1     0.26D+01  0.35D-01  -.14D-01  -.14D-01

  Clean-up the step; truncate at:   0.000001
  In cartesian coordinates; norm of this step is:   0.013527
         Walk statistics for step:   2
     Previous actual total energy:  -0.113360375131D+03
      Current actual total energy:  -0.113359655453D+03
         Actual energy difference:   0.719677855884D-03 threshold:         0.100000D-03
    Second order energy predicted:  -0.244015106873D-03
             Ratio of differences:   0.339061574395D+00
               Fixed trust radius:   0.100000000000D+00
   Number of negative eigenvalues:   0
   Max absolute value of Gradient:   0.246693098406D-01 threshold:         0.800000D-03
                    Gradient norm:   0.348876725509D-01 threshold:         0.100000D-01
                RMS Gradient norm:   0.246693098406D-01
  Largest component of step v-tor:   0.135260000000D-01
  New 2nd order energy prediction:  -0.235951318458D-03



  ------------------- New geometry -------------------


                         Geometry "g-2-step" -> "g-2-step"
                         ---------------------------------

 Output coordinates in angstroms (scale by  1.889725989 to convert to a.u.)

  No.       Tag          Charge          X              Y              Z
 ---- ---------------- ---------- -------------- -------------- --------------
    1 O                    8.0000     0.00000000     0.00000000    -0.48091387
    2 C                    6.0000     0.00000000     0.00000000     0.64228673

      Atomic Mass 
      ----------- 

      O                 15.994910
      C                 12.000000


 Effective nuclear repulsion energy (a.u.)      22.6144001662

            Nuclear Dipole moment (a.u.) 
            ----------------------------
        X                 Y               Z
 ---------------- ---------------- ----------------
     0.0000000000     0.0000000000     0.0121120000

 ==============================================================================
                                internuclear distances
 ------------------------------------------------------------------------------
       center one      |      center two      | atomic units |  angstroms
 ------------------------------------------------------------------------------
    2 C                |   1 O                |     2.12254  |     1.12320
 ------------------------------------------------------------------------------
                         number of included internuclear distances:          1
 ==============================================================================




                                 NWChem DFT Module
                                 -----------------




 Summary of "ao basis" -> "ao basis" (cartesian)
 ------------------------------------------------------------------------------
       Tag                 Description            Shells   Functions and Types
 ---------------- ------------------------------  ------  ---------------------
 O                     6-311++G(3df,3pd)            13       45   5s4p3d1f
 C                     6-311++G(3df,3pd)            13       45   5s4p3d1f


  Caching 1-el integrals 

            General Information
            -------------------
          SCF calculation type: DFT
          Wavefunction type:  closed shell.
          No. of atoms     :     2
          No. of electrons :    14
           Alpha electrons :     7
            Beta electrons :     7
          Charge           :     0
          Spin multiplicity:     1
          Use of symmetry is: off; symmetry adaption is: off
          Maximum number of iterations: ***
          AO basis - number of functions:    90
                     number of shells:    26
          Convergence on energy requested: 1.00D-06
          Convergence on density requested: 1.00D-05
          Convergence on gradient requested: 5.00D-04

              XC Information
              --------------
                  TPSS metaGGA Exchange Functional  1.000          
             TPSS03 metaGGA Correlation Functional  1.000          

             Grid Information
             ----------------
          Grid used for XC integration:  medium    
          Radial quadrature: Mura-Knowles        
          Angular quadrature: Lebedev. 
          Tag              B.-S. Rad. Rad. Pts. Rad. Cut. Ang. Pts.
          ---              ---------- --------- --------- ---------
          O                   0.60       49           8.0       434
          C                   0.70       49           8.0       434
          Grid pruning is: on 
          Number of quadrature shells:    98
          Spatial weights used:  Erf1

          Convergence Information
          -----------------------
          Convergence aids based upon iterative change in 
          total energy or number of iterations. 
          Levelshifting, if invoked, occurs when the 
          HOMO/LUMO gap drops below (HL_TOL): 1.00D-02
          DIIS, if invoked, will attempt to extrapolate 
          using up to (NFOCK): 10 stored Fock matrices.

                    Damping( 0%)  Levelshifting(0.5)       DIIS
                  --------------- ------------------- ---------------
          dE  on:    start            ASAP                start   
          dE off:    2 iters        *** iters           *** iters 


      Screening Tolerance Information
      -------------------------------
          Density screening/tol_rho: 1.00D-10
          AO Gaussian exp screening on grid/accAOfunc:  14
          CD Gaussian exp screening on grid/accCDfunc:  20
          XC Gaussian exp screening on grid/accXCfunc:  20
          Schwarz screening/accCoul: 1.00D-08


 Loading old vectors from job with title :



   Time after variat. SCF:      3.5
   Time prior to 1st pass:      3.5

 Integral file          = ./CO.xyz.aoints.00
 Record size in doubles =    65536    No. of integs per rec  =    43688
 Max. records in memory =       18    Max. records in file   = 11665830
 No. of bits per label  =        8    No. of bits per value  =       64


 #quartets = 6.177D+04 #integrals = 2.256D+06 #direct =  0.0% #cached =100.0%


File balance: exchanges=     0  moved=     0  time=   0.0


 Grid_pts file          = ./CO.xyz.gridpts.00
 Record size in doubles =  12289        No. of grid_pts per rec  =   3070
 Max. records in memory =      2        Max. recs in file   =  62212701


           Memory utilization after 1st SCF pass: 
           Heap Space remaining (MW):       11.90            11900060
          Stack Space remaining (MW):       13.11            13106644

   convergence    iter        energy       DeltaE   RMS-Dens  Diis-err    time
 ---------------- ----- ----------------- --------- --------- ---------  ------
 d= 0,ls=0.0,diis     1   -113.3608671050 -1.36D+02  3.33D-04  1.31D-03     3.8
 d= 0,ls=0.0,diis     2   -113.3592994770  1.57D-03  2.06D-04  1.55D-03     3.9
 d= 0,ls=0.0,diis     3   -113.3603190917 -1.02D-03  1.15D-04  7.75D-04     4.0
 d= 0,ls=0.0,diis     4   -113.3603061085  1.30D-05  4.02D-05  2.90D-05     4.0
 d= 0,ls=0.0,diis     5   -113.3602408714  6.52D-05  2.52D-06  2.09D-08     4.1
 d= 0,ls=0.0,diis     6   -113.3602453400 -4.47D-06  9.21D-07  1.10D-09     4.2
 d= 0,ls=0.0,diis     7   -113.3602448756  4.64D-07  6.05D-08  1.32D-10     4.3


         Total DFT energy =     -113.360244875629
      One electron energy =     -198.046677482670
           Coulomb energy =       75.912954370341
          Exchange energy =      -13.385573349047
       Correlation energy =       -0.455348580432
 Nuclear repulsion energy =       22.614400166179

 Numeric. integr. density =       14.000000256568

     Total iterative time =      0.8s



                       DFT Final Molecular Orbital Analysis
                       ------------------------------------

 Vector    1  Occ=2.000000D+00  E=-1.906776D+01
              MO Center=  1.2D-16, -4.3D-17, -4.8D-01, r^2= 1.5D-02
   Bfn.  Coefficient  Atom+Function         Bfn.  Coefficient  Atom+Function  
  ----- ------------  ---------------      ----- ------------  ---------------
     1      0.550675  1 O  s                  2      0.470976  1 O  s          

 Vector    2  Occ=2.000000D+00  E=-1.017887D+01
              MO Center= -3.1D-17,  1.2D-16,  6.4D-01, r^2= 2.8D-02
   Bfn.  Coefficient  Atom+Function         Bfn.  Coefficient  Atom+Function  
  ----- ------------  ---------------      ----- ------------  ---------------
    46      0.562144  2 C  s                 47      0.465361  2 C  s          

 Vector    3  Occ=2.000000D+00  E=-1.157721D+00
              MO Center= -2.7D-15, -8.2D-17, -1.7D-01, r^2= 4.3D-01
   Bfn.  Coefficient  Atom+Function         Bfn.  Coefficient  Atom+Function  
  ----- ------------  ---------------      ----- ------------  ---------------
    10      0.597560  1 O  s                  6      0.493520  1 O  s          
     2     -0.190504  1 O  s                 51      0.171430  2 C  s          

 Vector    4  Occ=2.000000D+00  E=-5.955202D-01
              MO Center= -6.1D-15,  4.3D-16, -4.8D-01, r^2= 7.9D-01
   Bfn.  Coefficient  Atom+Function         Bfn.  Coefficient  Atom+Function  
  ----- ------------  ---------------      ----- ------------  ---------------
    10      0.544643  1 O  s                 13     -0.294585  1 O  pz         
     9     -0.288974  1 O  pz                51     -0.252529  2 C  s          
     6      0.242687  1 O  s                  5     -0.238352  1 O  pz         
    58     -0.178964  2 C  pz         

 Vector    5  Occ=2.000000D+00  E=-5.149860D-01
              MO Center= -3.8D-15,  1.1D-14, -1.8D-01, r^2= 8.1D-01
   Bfn.  Coefficient  Atom+Function         Bfn.  Coefficient  Atom+Function  
  ----- ------------  ---------------      ----- ------------  ---------------
    12      0.343111  1 O  py                 8      0.319364  1 O  py         
     4      0.248944  1 O  py                53      0.176136  2 C  py         

 Vector    6  Occ=2.000000D+00  E=-5.149860D-01
              MO Center=  1.9D-15,  1.6D-15, -1.8D-01, r^2= 8.1D-01
   Bfn.  Coefficient  Atom+Function         Bfn.  Coefficient  Atom+Function  
  ----- ------------  ---------------      ----- ------------  ---------------
    11      0.343111  1 O  px                 7      0.319364  1 O  px         
     3      0.248944  1 O  px                52      0.176136  2 C  px         

 Vector    7  Occ=2.000000D+00  E=-4.007397D-01
              MO Center=  3.4D-15, -1.4D-14,  8.6D-01, r^2= 1.1D+00
   Bfn.  Coefficient  Atom+Function         Bfn.  Coefficient  Atom+Function  
  ----- ------------  ---------------      ----- ------------  ---------------
    55      0.840805  2 C  s                 13     -0.235392  1 O  pz         
    51      0.224076  2 C  s                 54      0.221700  2 C  pz         
    50      0.211112  2 C  pz                 9     -0.184655  1 O  pz         

 Vector    8  Occ=0.000000D+00  E=-1.333163D-01
              MO Center=  4.1D-15,  6.8D-15,  4.4D-01, r^2= 1.5D+00
   Bfn.  Coefficient  Atom+Function         Bfn.  Coefficient  Atom+Function  
  ----- ------------  ---------------      ----- ------------  ---------------
    56      0.425247  2 C  px                57      0.391857  2 C  py         
    11     -0.258454  1 O  px                52      0.258544  2 C  px         
    12     -0.238161  1 O  py                53      0.238243  2 C  py         
     7     -0.191494  1 O  px                48      0.183543  2 C  px         
     8     -0.176458  1 O  py                49      0.169131  2 C  py         

 Vector    9  Occ=0.000000D+00  E=-1.333163D-01
              MO Center=  1.1D-15,  1.5D-15,  4.4D-01, r^2= 1.5D+00
   Bfn.  Coefficient  Atom+Function         Bfn.  Coefficient  Atom+Function  
  ----- ------------  ---------------      ----- ------------  ---------------
    57     -0.425247  2 C  py                56      0.391857  2 C  px         
    12      0.258454  1 O  py                53     -0.258544  2 C  py         
    11     -0.238161  1 O  px                52      0.238243  2 C  px         
     8      0.191494  1 O  py                49     -0.183543  2 C  py         
     7     -0.176458  1 O  px                48      0.169131  2 C  px         

 Vector   10  Occ=0.000000D+00  E= 1.799452D-02
              MO Center= -1.8D-14, -2.1D-14, -4.3D-01, r^2= 7.8D+00
   Bfn.  Coefficient  Atom+Function         Bfn.  Coefficient  Atom+Function  
  ----- ------------  ---------------      ----- ------------  ---------------
    14      2.379003  1 O  s                 59     -2.328953  2 C  s          
    55     -1.150716  2 C  s                 58      0.978215  2 C  pz         
    10      0.824199  1 O  s                 62      0.794803  2 C  pz         
    17      0.531798  1 O  pz                13      0.289900  1 O  pz         
    80     -0.186718  2 C  dzz        

 Vector   11  Occ=0.000000D+00  E= 4.929869D-02
              MO Center= -7.4D-15, -1.4D-14,  2.1D+00, r^2= 7.1D+00
   Bfn.  Coefficient  Atom+Function         Bfn.  Coefficient  Atom+Function  
  ----- ------------  ---------------      ----- ------------  ---------------
    62      1.187349  2 C  pz                14      0.744792  1 O  s          
    59      0.534500  2 C  s                 75     -0.300759  2 C  dxx        
    78     -0.300759  2 C  dyy               80     -0.215450  2 C  dzz        
    51     -0.176351  2 C  s          

 Vector   12  Occ=0.000000D+00  E= 6.139327D-02
              MO Center= -7.7D-15,  2.5D-14,  6.7D-01, r^2= 9.2D+00
   Bfn.  Coefficient  Atom+Function         Bfn.  Coefficient  Atom+Function  
  ----- ------------  ---------------      ----- ------------  ---------------
    61      1.161665  2 C  py                57     -0.323257  2 C  py         
    60     -0.293961  2 C  px         

 Vector   13  Occ=0.000000D+00  E= 6.139327D-02
              MO Center=  2.5D-14,  7.9D-15,  6.7D-01, r^2= 9.2D+00
   Bfn.  Coefficient  Atom+Function         Bfn.  Coefficient  Atom+Function  
  ----- ------------  ---------------      ----- ------------  ---------------
    60      1.161665  2 C  px                56     -0.323257  2 C  px         
    61      0.293961  2 C  py         

 Vector   14  Occ=0.000000D+00  E= 1.436418D-01
              MO Center= -1.3D-15,  3.2D-15, -1.0D+00, r^2= 5.7D+00
   Bfn.  Coefficient  Atom+Function         Bfn.  Coefficient  Atom+Function  
  ----- ------------  ---------------      ----- ------------  ---------------
    14      5.323872  1 O  s                 55     -3.928162  2 C  s          
    17      3.010157  1 O  pz                58      1.687980  2 C  pz         
    59     -1.470238  2 C  s                 80     -1.255874  2 C  dzz        
    10      0.929649  1 O  s                 13      0.511162  1 O  pz         
    75     -0.421089  2 C  dxx               78     -0.421089  2 C  dyy        

 Vector   15  Occ=0.000000D+00  E= 1.919213D-01
              MO Center= -3.0D-14,  8.6D-14, -3.2D-01, r^2= 7.4D+00
   Bfn.  Coefficient  Atom+Function         Bfn.  Coefficient  Atom+Function  
  ----- ------------  ---------------      ----- ------------  ---------------
    16      2.004833  1 O  py                61     -1.138242  2 C  py         
    15     -0.650155  1 O  px                57     -0.385913  2 C  py         
    60      0.369125  2 C  px                79      0.318536  2 C  dyz        
    12     -0.249603  1 O  py         

 Vector   16  Occ=0.000000D+00  E= 1.919213D-01
              MO Center= -2.9D-14, -6.6D-15, -3.2D-01, r^2= 7.4D+00
   Bfn.  Coefficient  Atom+Function         Bfn.  Coefficient  Atom+Function  
  ----- ------------  ---------------      ----- ------------  ---------------
    15      2.004833  1 O  px                60     -1.138242  2 C  px         
    16      0.650155  1 O  py                56     -0.385913  2 C  px         
    61     -0.369125  2 C  py                77      0.318536  2 C  dxz        
    11     -0.249603  1 O  px         

 Vector   17  Occ=0.000000D+00  E= 2.114955D-01
              MO Center=  4.7D-14, -6.1D-14, -4.5D-01, r^2= 9.0D+00
   Bfn.  Coefficient  Atom+Function         Bfn.  Coefficient  Atom+Function  
  ----- ------------  ---------------      ----- ------------  ---------------
[...]
              MO Center=  1.4D-14, -5.3D-15,  6.7D-01, r^2= 9.2D+00
   Bfn.  Coefficient  Atom+Function         Bfn.  Coefficient  Atom+Function  
  ----- ------------  ---------------      ----- ------------  ---------------
    60      1.174401  2 C  px                56     -0.326864  2 C  px         
    61     -0.237850  2 C  py         

 Vector   14  Occ=0.000000D+00  E= 1.436408D-01
              MO Center= -6.9D-15, -4.5D-15, -1.0D+00, r^2= 5.7D+00
   Bfn.  Coefficient  Atom+Function         Bfn.  Coefficient  Atom+Function  
  ----- ------------  ---------------      ----- ------------  ---------------
    14      5.325912  1 O  s                 55     -3.929733  2 C  s          
    17      3.010707  1 O  pz                58      1.688257  2 C  pz         
    59     -1.470539  2 C  s                 80     -1.256093  2 C  dzz        
    10      0.929982  1 O  s                 13      0.511182  1 O  pz         
    75     -0.421411  2 C  dxx               78     -0.421411  2 C  dyy        

 Vector   15  Occ=0.000000D+00  E= 1.919229D-01
              MO Center= -4.1D-15, -2.7D-14, -3.2D-01, r^2= 7.4D+00
   Bfn.  Coefficient  Atom+Function         Bfn.  Coefficient  Atom+Function  
  ----- ------------  ---------------      ----- ------------  ---------------
    16      2.088898  1 O  py                61     -1.186063  2 C  py         
    57     -0.402206  2 C  py                79      0.332112  2 C  dyz        
    15      0.282560  1 O  px                12     -0.259864  1 O  py         
    60     -0.160436  2 C  px                 8     -0.150212  1 O  py         

 Vector   16  Occ=0.000000D+00  E= 1.919229D-01
              MO Center=  1.7D-14, -8.4D-15, -3.2D-01, r^2= 7.4D+00
   Bfn.  Coefficient  Atom+Function         Bfn.  Coefficient  Atom+Function  
  ----- ------------  ---------------      ----- ------------  ---------------
    15      2.088898  1 O  px                60     -1.186063  2 C  px         
    56     -0.402206  2 C  px                77      0.332112  2 C  dxz        
    16     -0.282560  1 O  py                11     -0.259864  1 O  px         
    61      0.160436  2 C  py                 7     -0.150212  1 O  px         

 Vector   17  Occ=0.000000D+00  E= 2.115081D-01
              MO Center= -5.6D-15,  3.0D-14, -4.5D-01, r^2= 9.0D+00
   Bfn.  Coefficient  Atom+Function         Bfn.  Coefficient  Atom+Function  
  ----- ------------  ---------------      ----- ------------  ---------------
    14      6.759362  1 O  s                 59     -3.269800  2 C  s          
    55     -2.571278  2 C  s                 62      2.029604  2 C  pz         
    58      1.237667  2 C  pz                13      0.950463  1 O  pz         
    10      0.781522  1 O  s                 80     -0.748813  2 C  dzz        
     6     -0.363349  1 O  s                 51     -0.243628  2 C  s          

 Vector   18  Occ=0.000000D+00  E= 2.516660D-01
              MO Center=  2.1D-15,  3.3D-15,  5.5D-01, r^2= 3.0D+00
   Bfn.  Coefficient  Atom+Function         Bfn.  Coefficient  Atom+Function  
  ----- ------------  ---------------      ----- ------------  ---------------
    75      0.795849  2 C  dxx               78     -0.795849  2 C  dyy        

 Vector   19  Occ=0.000000D+00  E= 2.516664D-01
              MO Center=  4.2D-18,  2.1D-15,  5.5D-01, r^2= 3.0D+00
   Bfn.  Coefficient  Atom+Function         Bfn.  Coefficient  Atom+Function  
  ----- ------------  ---------------      ----- ------------  ---------------
    76      1.591698  2 C  dxy               31      0.175295  1 O  dxy        

 Vector   20  Occ=0.000000D+00  E= 3.127823D-01
              MO Center= -3.9D-14, -3.7D-14,  1.3D+00, r^2= 5.0D+00
   Bfn.  Coefficient  Atom+Function         Bfn.  Coefficient  Atom+Function  
  ----- ------------  ---------------      ----- ------------  ---------------
    55      5.107985  2 C  s                 14     -4.537207  1 O  s          
    58     -2.613658  2 C  pz                59      2.228832  2 C  s          
    10     -1.564277  1 O  s                 17     -1.498989  1 O  pz         
    13     -1.474509  1 O  pz                80     -0.717165  2 C  dzz        
    51      0.421607  2 C  s                 75     -0.405274  2 C  dxx        

 Vector   21  Occ=0.000000D+00  E= 3.790115D-01
              MO Center=  7.9D-14, -5.5D-14,  4.3D-01, r^2= 5.6D+00
   Bfn.  Coefficient  Atom+Function         Bfn.  Coefficient  Atom+Function  
  ----- ------------  ---------------      ----- ------------  ---------------
    14      5.887904  1 O  s                 17      2.510209  1 O  pz         
    75     -2.378291  2 C  dxx               78     -2.378291  2 C  dyy        
    10     -1.483731  1 O  s                 80     -0.843388  2 C  dzz        
    62      0.680670  2 C  pz                35     -0.553878  1 O  dzz        
    13     -0.530739  1 O  pz                58     -0.436165  2 C  pz         

 Vector   22  Occ=0.000000D+00  E= 4.015512D-01
              MO Center= -2.9D-14, -7.5D-15,  1.2D+00, r^2= 3.6D+00
   Bfn.  Coefficient  Atom+Function         Bfn.  Coefficient  Atom+Function  
  ----- ------------  ---------------      ----- ------------  ---------------
    77      2.374855  2 C  dxz               15      0.795150  1 O  px         
    60     -0.731296  2 C  px                11      0.669200  1 O  px         
    79      0.634079  2 C  dyz               52     -0.395155  2 C  px         
    16      0.212302  1 O  py                61     -0.195254  2 C  py         
    12      0.178674  1 O  py         

 Vector   23  Occ=0.000000D+00  E= 4.015512D-01
              MO Center= -2.7D-14,  9.0D-14,  1.2D+00, r^2= 3.6D+00
   Bfn.  Coefficient  Atom+Function         Bfn.  Coefficient  Atom+Function  
  ----- ------------  ---------------      ----- ------------  ---------------
    79      2.374855  2 C  dyz               16      0.795150  1 O  py         
    61     -0.731296  2 C  py                12      0.669200  1 O  py         
    77     -0.634079  2 C  dxz               53     -0.395155  2 C  py         
    15     -0.212302  1 O  px                60      0.195254  2 C  px         
    11     -0.178674  1 O  px         

 Vector   24  Occ=0.000000D+00  E= 4.870455D-01
              MO Center=  2.2D-16, -5.7D-15,  6.3D-02, r^2= 3.8D+00
   Bfn.  Coefficient  Atom+Function         Bfn.  Coefficient  Atom+Function  
  ----- ------------  ---------------      ----- ------------  ---------------
    57      2.378690  2 C  py                79     -1.999591  2 C  dyz        
    16     -1.183189  1 O  py                12     -0.764210  1 O  py         
    53     -0.740826  2 C  py                34     -0.476937  1 O  dyz        
    56     -0.312110  2 C  px                77      0.262368  2 C  dxz        
    49     -0.215259  2 C  py                15      0.155247  1 O  px         

 Vector   25  Occ=0.000000D+00  E= 4.870455D-01
              MO Center=  8.1D-15,  1.2D-14,  6.3D-02, r^2= 3.8D+00
   Bfn.  Coefficient  Atom+Function         Bfn.  Coefficient  Atom+Function  
  ----- ------------  ---------------      ----- ------------  ---------------
    56      2.378690  2 C  px                77     -1.999591  2 C  dxz        
    15     -1.183189  1 O  px                11     -0.764210  1 O  px         
    52     -0.740826  2 C  px                32     -0.476937  1 O  dxz        
    57      0.312110  2 C  py                79     -0.262368  2 C  dyz        
    48     -0.215259  2 C  px                16     -0.155247  1 O  py         

 Vector   26  Occ=0.000000D+00  E= 5.284065D-01
              MO Center= -1.0D-14,  3.4D-14, -1.9D-01, r^2= 5.4D+00
   Bfn.  Coefficient  Atom+Function         Bfn.  Coefficient  Atom+Function  
  ----- ------------  ---------------      ----- ------------  ---------------
    14     12.472180  1 O  s                 55    -11.497449  2 C  s          
    58      8.346444  2 C  pz                10      5.527831  1 O  s          
    80     -4.566967  2 C  dzz               17      3.766418  1 O  pz         
    59     -2.804558  2 C  s                 13      1.969612  1 O  pz         
    35      1.378665  1 O  dzz               62      0.937257  2 C  pz         


 center of mass
 --------------
 x =   0.00000000 y =   0.00000000 z =   0.00106022

 moments of inertia (a.u.)
 ------------------
          30.876356562063           0.000000000000           0.000000000000
           0.000000000000          30.876356562063           0.000000000000
           0.000000000000           0.000000000000           0.000000000000

     Multipole analysis of the density
     ---------------------------------

     L   x y z        total         alpha         beta         nuclear
     -   - - -        -----         -----         ----         -------
     0   0 0 0     -0.000000     -7.000000     -7.000000     14.000000

     1   1 0 0      0.000000      0.000000      0.000000      0.000000
     1   0 1 0      0.000000      0.000000      0.000000      0.000000
     1   0 0 1     -0.051257     -0.031893     -0.031893      0.012528

     2   2 0 0     -7.808010     -3.904005     -3.904005      0.000000
     2   1 1 0     -0.000000     -0.000000     -0.000000      0.000000
     2   1 0 1      0.000000      0.000000      0.000000      0.000000
     2   0 2 0     -7.808010     -3.904005     -3.904005      0.000000
     2   0 1 1      0.000000      0.000000      0.000000      0.000000
     2   0 0 2     -9.196981    -12.318638    -12.318638     15.440295


 Parallel integral file used      60 records with       0 large values


            General Information
            -------------------
          SCF calculation type: DFT
          Wavefunction type:  closed shell.
          No. of atoms     :     2
          No. of electrons :    14
           Alpha electrons :     7
            Beta electrons :     7
          Charge           :     0
          Spin multiplicity:     1
          Use of symmetry is: off; symmetry adaption is: off
          Maximum number of iterations: ***
          AO basis - number of functions:    90
                     number of shells:    26
          Convergence on energy requested: 1.00D-06
          Convergence on density requested: 1.00D-05
          Convergence on gradient requested: 5.00D-04

              XC Information
              --------------
                  TPSS metaGGA Exchange Functional  1.000          
             TPSS03 metaGGA Correlation Functional  1.000          

             Grid Information
             ----------------
          Grid used for XC integration:  medium    
          Radial quadrature: Mura-Knowles        
          Angular quadrature: Lebedev. 
          Tag              B.-S. Rad. Rad. Pts. Rad. Cut. Ang. Pts.
          ---              ---------- --------- --------- ---------
          O                   0.60       49           8.0       434
          C                   0.70       49           8.0       434
          Grid pruning is: on 
          Number of quadrature shells:    98
          Spatial weights used:  Erf1

          Convergence Information
          -----------------------
          Convergence aids based upon iterative change in 
          total energy or number of iterations. 
          Levelshifting, if invoked, occurs when the 
          HOMO/LUMO gap drops below (HL_TOL): 1.00D-02
          DIIS, if invoked, will attempt to extrapolate 
          using up to (NFOCK): 10 stored Fock matrices.

                    Damping( 0%)  Levelshifting(0.5)       DIIS
                  --------------- ------------------- ---------------
          dE  on:    start            ASAP                start   
          dE off:    2 iters        *** iters           *** iters 


      Screening Tolerance Information
      -------------------------------
          Density screening/tol_rho: 1.00D-10
          AO Gaussian exp screening on grid/accAOfunc:  14
          CD Gaussian exp screening on grid/accCDfunc:  20
          XC Gaussian exp screening on grid/accXCfunc:  20
          Schwarz screening/accCoul: 1.00D-08



                            NWChem DFT Gradient Module
                            --------------------------



  charge          =   0.00
  wavefunction    = closed shell



                         DFT ENERGY GRADIENTS

    atom               coordinates                        gradient
                 x          y          z           x          y          z
   1 O       0.000000   0.000000  -0.908587   -0.000000  -0.000000  -0.000019
   2 C       0.000000   0.000000   1.213538    0.000000   0.000000   0.000019

                 ----------------------------------------
                 |  Time  |  1-e(secs)   |  2-e(secs)   |
                 ----------------------------------------
                 |  CPU   |       0.00   |       0.33   |
                 ----------------------------------------
                 |  WALL  |       0.00   |       0.33   |
                 ----------------------------------------
                               NWChem STEPPER Module
                               ---------------------


   Step sought for minimum. 
   Actual energy difference is :    7.6643486579541786E-006
   2nd order predicted energy difference  was :   -1.1423099667857935E-007
   One of these is below the energy  tolerance:    1.0000000000000000E-004
   Backstepping possibilities are NO 
   longer considered appropriate. 
   Update Hessian used. 
   Dependent rotation vector no.                    3
   found in ECKART; linear geometry  assumed. 
   Number of modes removed with force (in the spectral representation)
   less than:   0.000000 is:    0
   PARTIT has partitioned the input hessian 
   and gradient into two subspaces;  An 
   "external" hessian and gradient composed 
   of                     5  independent translations 
   and rotations, and an "internal" hessian 
   and gradient with a dimension of                     1
               e-diff         g-norm     g-max   
 value        0.0000076643  0.000027  0.000019
 thres        0.0001000000  0.010000  0.000800
   ENERGY =   -113.36023721128016     
   The hessian exhibits the "proper" 
   structure, and the gradient and energy 
   convergence criterion has been met.  
   This geometry walk is HISTORY.
   Calculating the Newton-Raphson step. 
  The length (norm) of the STEP is   0.000011

  The lowest few components in the bases 
  generated by the spectral decomposition 
  of the internal hessian (non-zero force). 

  Component  Hessian     Grad      Step   Scaled-Step
  ---------  --------  --------  -------- -----------
       1     0.25D+01  -.27D-04  0.11D-04  0.11D-04

  Clean-up the step; truncate at:   0.000001
  In cartesian coordinates; norm of this step is:   0.000011



  ---------------- Converged geometry ----------------


                         Geometry "g-4-step" -> "g-4-step"
                         ---------------------------------

 Output coordinates in angstroms (scale by  1.889725989 to convert to a.u.)

  No.       Tag          Charge          X              Y              Z
 ---- ---------------- ---------- -------------- -------------- --------------
    1 O                    8.0000     0.00000000     0.00000000    -0.48080381
    2 C                    6.0000     0.00000000     0.00000000     0.64217666

      Atomic Mass 
      ----------- 

      O                 15.994910
      C                 12.000000


 Effective nuclear repulsion energy (a.u.)      22.6188332645

            Nuclear Dipole moment (a.u.) 
            ----------------------------
        X                 Y               Z
 ---------------- ---------------- ----------------
     0.0000000000     0.0000000000     0.0125280000

 ==============================================================================
                                internuclear distances
 ------------------------------------------------------------------------------
       center one      |      center two      | atomic units |  angstroms
 ------------------------------------------------------------------------------
    2 C                |   1 O                |     2.12213  |     1.12298
 ------------------------------------------------------------------------------
                         number of included internuclear distances:          1
 ==============================================================================




 Task  times  cpu:        5.7s     wall:        8.5s


                                NWChem Input Module
                                -------------------


 Summary of allocated global arrays
-----------------------------------
  No active global arrays



                         GA Statistics for process    0
                         ------------------------------

       create   destroy   get      put      acc     scatter   gather  read&inc
calls:  564      564     4.60e+04 3286      609        0        0      321     
number of processes/call 1.14e+00 1.59e+00 4.25e+00 0.00e+00 0.00e+00
bytes total:             5.81e+07 1.09e+07 2.63e+07 0.00e+00 0.00e+00 2.57e+03
bytes remote:            4.07e+07 4.51e+06 2.06e+07 0.00e+00 0.00e+00 0.00e+00
Max memory consumed for GA by this process: 583200 bytes

MA_summarize_allocated_blocks: starting scan ...
MA_summarize_allocated_blocks: scan completed: 0 heap blocks, 0 stack blocks
MA usage statistics:

	allocation statistics:
					      heap	     stack
					      ----	     -----
	current number of blocks	         0	         0
	maximum number of blocks	        23	        51
	current total bytes		         0	         0
	maximum total bytes		   9656568	  42214632
	maximum total K-bytes		      9657	     42215
	maximum total M-bytes		        10	        43


                                     CITATION
                                     --------
                Please cite the following reference when publishing
                           results obtained with NWChem:

                 M. Valiev, E.J. Bylaska, N. Govind, K. Kowalski,
              T.P. Straatsma, H.J.J. van Dam, D. Wang, J. Nieplocha,
                        E. Apra, T.L. Windus, W.A. de Jong
                 "NWChem: a comprehensive and scalable open-source
                  solution for large scale molecular simulations"
                      Comput. Phys. Commun. 181, 1477 (2010)
                           doi:10.1016/j.cpc.2010.04.018

                                      AUTHORS
                                      -------
          E. Apra, E. J. Bylaska, W. A. de Jong, N. Govind, K. Kowalski,
       T. P. Straatsma, M. Valiev, H. J. J. van Dam, D. Wang, T. L. Windus,
        J. Hammond, J. Autschbach, K. Bhaskaran-Nair, J. Brabec, K. Lopata,
       S. A. Fischer, S. Krishnamoorthy, W. Ma, M. Klemm, O. Villa, Y. Chen,
    V. Anisimov, F. Aquino, S. Hirata, M. T. Hackler, T. Risthaus, M. Malagoli,
       A. Marenich, A. Otero-de-la-Roza, J. Mullin, P. Nichols, R. Peverati,
     J. Pittner, Y. Zhao, P.-D. Fan, A. Fonari, M. Williamson, R. J. Harrison,
       J. R. Rehr, M. Dupuis, D. Silverstein, D. M. A. Smith, J. Nieplocha,
        V. Tipparaju, M. Krishnan, B. E. Van Kuiken, A. Vazquez-Mayagoitia,
        L. Jensen, M. Swart, Q. Wu, T. Van Voorhis, A. A. Auer, M. Nooijen,
      L. D. Crosby, E. Brown, G. Cisneros, G. I. Fann, H. Fruchtl, J. Garza,
        K. Hirao, R. A. Kendall, J. A. Nichols, K. Tsemekhman, K. Wolinski,
     J. Anchell, D. E. Bernholdt, P. Borowski, T. Clark, D. Clerc, H. Dachsel,
   M. J. O. Deegan, K. Dyall, D. Elwood, E. Glendening, M. Gutowski, A. C. Hess,
         J. Jaffe, B. G. Johnson, J. Ju, R. Kobayashi, R. Kutteh, Z. Lin,
   R. Littlefield, X. Long, B. Meng, T. Nakajima, S. Niu, L. Pollack, M. Rosing,
   K. Glaesemann, G. Sandrone, M. Stave, H. Taylor, G. Thomas, J. H. van Lenthe,
                               A. T. Wong, Z. Zhang.

 Total times  cpu:        5.7s     wall:        8.7s
