[1537857193.551001] [r8n4:10986:0]         sys.c:744  MXM  WARN  Conflicting CPU frequencies detected, using: 1595.00
[1537857193.562100] [r8n4:10988:0]         sys.c:744  MXM  WARN  Conflicting CPU frequencies detected, using: 1596.79
[1537857193.562438] [r8n4:10987:0]         sys.c:744  MXM  WARN  Conflicting CPU frequencies detected, using: 1596.79
[1537857193.562451] [r8n4:10990:0]         sys.c:744  MXM  WARN  Conflicting CPU frequencies detected, using: 1596.79
[1537857193.562539] [r8n4:10989:0]         sys.c:744  MXM  WARN  Conflicting CPU frequencies detected, using: 1596.79
[1537857193.562749] [r8n4:10991:0]         sys.c:744  MXM  WARN  Conflicting CPU frequencies detected, using: 1596.79
[1537857193.582492] [r8n4:10985:0]         sys.c:744  MXM  WARN  Conflicting CPU frequencies detected, using: 1796.25
[1537857193.583031] [r8n4:10995:0]         sys.c:744  MXM  WARN  Conflicting CPU frequencies detected, using: 1796.25
[1537857193.583327] [r8n4:10992:0]         sys.c:744  MXM  WARN  Conflicting CPU frequencies detected, using: 1796.25
[1537857193.616272] [r8n4:10997:0]         sys.c:744  MXM  WARN  Conflicting CPU frequencies detected, using: 1997.77
[1537857193.620500] [r8n4:11002:0]         sys.c:744  MXM  WARN  Conflicting CPU frequencies detected, using: 1997.77
[1537857193.620589] [r8n4:11009:0]         sys.c:744  MXM  WARN  Conflicting CPU frequencies detected, using: 1997.77
[1537857193.621064] [r8n4:11006:0]         sys.c:744  MXM  WARN  Conflicting CPU frequencies detected, using: 1997.77
[1537857193.621309] [r8n4:10998:0]         sys.c:744  MXM  WARN  Conflicting CPU frequencies detected, using: 2096.95
[1537857193.621806] [r8n4:11000:0]         sys.c:744  MXM  WARN  Conflicting CPU frequencies detected, using: 2096.95
[1537857193.622325] [r8n4:11004:0]         sys.c:744  MXM  WARN  Conflicting CPU frequencies detected, using: 2096.95
 argument  1 = /storage/home/bikashp/nwchem_run/rabeet/mgbl19/nwmgbl19/CO2.xyz.nw
                                         
                                         


              Northwest Computational Chemistry Package (NWChem) 6.6
              ------------------------------------------------------


                    Environmental Molecular Sciences Laboratory
                       Pacific Northwest National Laboratory
                                Richland, WA 99352

                              Copyright (c) 1994-2015
                       Pacific Northwest National Laboratory
                            Battelle Memorial Institute

             NWChem is an open-source computational chemistry package
                        distributed under the terms of the
                      Educational Community License (ECL) 2.0
             A copy of the license is included with this distribution
                              in the LICENSE.TXT file

                                  ACKNOWLEDGMENT
                                  --------------

            This software and its documentation were developed at the
            EMSL at Pacific Northwest National Laboratory, a multiprogram
            national laboratory, operated for the U.S. Department of Energy
            by Battelle under Contract Number DE-AC05-76RL01830. Support
            for this work was provided by the Department of Energy Office
            of Biological and Environmental Research, Office of Basic
            Energy Sciences, and the Office of Advanced Scientific Computing.


           Job information
           ---------------

    hostname        = r8n4.niserhpc.org
    program         = /home/bikashp/Code/nwchem-6.6_tpssloc/bin/LINUX64/nwchem
    date            = Tue Sep 25 12:03:16 2018

    compiled        = Tue_Sep_18_16:24:59_2018
    source          = /home/bikashp/Code/nwchem-6.6_tpssloc
    nwchem branch   = 6.6
    nwchem revision = 27746
    ga revision     = 10594
    input           = /storage/home/bikashp/nwchem_run/rabeet/mgbl19/nwmgbl19/CO2.xyz.nw
    prefix          = CO2.xyz.
    data base       = ./CO2.xyz.db
    status          = startup
    nproc           =       16
    time left       =     -1s



           Memory information
           ------------------

    heap     =   13107196 doubles =    100.0 Mbytes
    stack    =   13107201 doubles =    100.0 Mbytes
    global   =   26214400 doubles =    200.0 Mbytes (distinct from heap & stack)
    total    =   52428797 doubles =    400.0 Mbytes
    verify   = yes
    hardfail = no 


           Directory information
           ---------------------

  0 permanent = .
  0 scratch   = .




                                NWChem Input Module
                                -------------------



 Scaling coordinates for geometry "geometry" by  1.889725989
 (inverse scale =  0.529177249)



                             Geometry "geometry" -> ""
                             -------------------------

 Output coordinates in angstroms (scale by  1.889725989 to convert to a.u.)

  No.       Tag          Charge          X              Y              Z
 ---- ---------------- ---------- -------------- -------------- --------------
    1 C                    6.0000     0.00000000     0.00000000     0.00000000
    2 O                    8.0000     0.00000000     0.00000000     1.15949000
    3 O                    8.0000     0.00000000     0.00000000    -1.15949000

      Atomic Mass 
      ----------- 

      C                 12.000000
      O                 15.994910


 Effective nuclear repulsion energy (a.u.)      58.4176559280

            Nuclear Dipole moment (a.u.) 
            ----------------------------
        X                 Y               Z
 ---------------- ---------------- ----------------
     0.0000000000     0.0000000000     0.0000000000


            XYZ format geometry
            -------------------
     3
 geometry
 C                     0.00000000     0.00000000     0.00000000
 O                     0.00000000     0.00000000     1.15949000
 O                     0.00000000     0.00000000    -1.15949000

 ==============================================================================
                                internuclear distances
 ------------------------------------------------------------------------------
       center one      |      center two      | atomic units |  angstroms
 ------------------------------------------------------------------------------
    2 O                |   1 C                |     2.19112  |     1.15949
    3 O                |   1 C                |     2.19112  |     1.15949
 ------------------------------------------------------------------------------
                         number of included internuclear distances:          2
 ==============================================================================



 ==============================================================================
                                 internuclear angles
 ------------------------------------------------------------------------------
        center 1       |       center 2       |       center 3       |  degrees
 ------------------------------------------------------------------------------
    2 O                |   1 C                |   3 O                |   180.00
 ------------------------------------------------------------------------------
                            number of included internuclear angles:          1
 ==============================================================================





 Summary of "ao basis" -> "" (cartesian)
 ------------------------------------------------------------------------------
       Tag                 Description            Shells   Functions and Types
 ---------------- ------------------------------  ------  ---------------------
 *                     6-311++G(3df,3pd)              on all atoms 




                           NWChem Geometry Optimization
                           ----------------------------



                                 NWChem DFT Module
                                 -----------------


                      Basis "ao basis" -> "ao basis" (cartesian)
                      -----
  C (Carbon)
  ----------
            Exponent  Coefficients 
       -------------- ---------------------------------------------------------
  1 S  4.56324000E+03  0.001967
  1 S  6.82024000E+02  0.015231
  1 S  1.54973000E+02  0.076127
  1 S  4.44553000E+01  0.260801
  1 S  1.30290000E+01  0.616462
  1 S  1.82773000E+00  0.221006

  2 S  2.09642000E+01  0.114660
  2 S  4.80331000E+00  0.919999
  2 S  1.45933000E+00 -0.003031

  3 P  2.09642000E+01  0.040249
  3 P  4.80331000E+00  0.237594
  3 P  1.45933000E+00  0.815854

  4 S  4.83456000E-01  1.000000

  5 P  4.83456000E-01  1.000000

  6 S  1.45585000E-01  1.000000

  7 P  1.45585000E-01  1.000000

  8 S  4.38000000E-02  1.000000

  9 P  4.38000000E-02  1.000000

 10 D  2.50400000E+00  1.000000

 11 D  6.26000000E-01  1.000000

 12 D  1.56500000E-01  1.000000

 13 F  8.00000000E-01  1.000000

  O (Oxygen)
  ----------
            Exponent  Coefficients 
       -------------- ---------------------------------------------------------
  1 S  8.58850000E+03  0.001895
  1 S  1.29723000E+03  0.014386
  1 S  2.99296000E+02  0.070732
  1 S  8.73771000E+01  0.240001
  1 S  2.56789000E+01  0.594797
  1 S  3.74004000E+00  0.280802

  2 S  4.21175000E+01  0.113889
  2 S  9.62837000E+00  0.920811
  2 S  2.85332000E+00 -0.003274

  3 P  4.21175000E+01  0.036511
  3 P  9.62837000E+00  0.237153
  3 P  2.85332000E+00  0.819702

  4 S  9.05661000E-01  1.000000

  5 P  9.05661000E-01  1.000000

  6 S  2.55611000E-01  1.000000

  7 P  2.55611000E-01  1.000000

  8 S  8.45000000E-02  1.000000

  9 P  8.45000000E-02  1.000000

 10 D  5.16000000E+00  1.000000

 11 D  1.29200000E+00  1.000000

 12 D  3.22500000E-01  1.000000

 13 F  1.40000000E+00  1.000000



 Summary of "ao basis" -> "ao basis" (cartesian)
 ------------------------------------------------------------------------------
       Tag                 Description            Shells   Functions and Types
 ---------------- ------------------------------  ------  ---------------------
 C                     6-311++G(3df,3pd)            13       45   5s4p3d1f
 O                     6-311++G(3df,3pd)            13       45   5s4p3d1f




 Summary of "ao basis" -> "ao basis" (cartesian)
 ------------------------------------------------------------------------------
       Tag                 Description            Shells   Functions and Types
 ---------------- ------------------------------  ------  ---------------------
 C                     6-311++G(3df,3pd)            13       45   5s4p3d1f
 O                     6-311++G(3df,3pd)            13       45   5s4p3d1f


  Caching 1-el integrals 

            General Information
            -------------------
          SCF calculation type: DFT
          Wavefunction type:  closed shell.
          No. of atoms     :     3
          No. of electrons :    22
           Alpha electrons :    11
            Beta electrons :    11
          Charge           :     0
          Spin multiplicity:     1
          Use of symmetry is: off; symmetry adaption is: off
          Maximum number of iterations: ***
          AO basis - number of functions:   135
                     number of shells:    39
          Convergence on energy requested: 1.00D-06
          Convergence on density requested: 1.00D-05
          Convergence on gradient requested: 5.00D-04

              XC Information
              --------------
                  TPSS metaGGA Exchange Functional  1.000          
             TPSS03 metaGGA Correlation Functional  1.000          

             Grid Information
             ----------------
          Grid used for XC integration:  medium    
          Radial quadrature: Mura-Knowles        
          Angular quadrature: Lebedev. 
          Tag              B.-S. Rad. Rad. Pts. Rad. Cut. Ang. Pts.
          ---              ---------- --------- --------- ---------
          C                   0.70       49           8.0       434
          O                   0.60       49           9.0       434
          Grid pruning is: on 
          Number of quadrature shells:   147
          Spatial weights used:  Erf1

          Convergence Information
          -----------------------
          Convergence aids based upon iterative change in 
          total energy or number of iterations. 
          Levelshifting, if invoked, occurs when the 
          HOMO/LUMO gap drops below (HL_TOL): 1.00D-02
          DIIS, if invoked, will attempt to extrapolate 
          using up to (NFOCK): 10 stored Fock matrices.

                    Damping( 0%)  Levelshifting(0.5)       DIIS
                  --------------- ------------------- ---------------
          dE  on:    start            ASAP                start   
          dE off:    2 iters        *** iters           *** iters 


      Screening Tolerance Information
      -------------------------------
          Density screening/tol_rho: 1.00D-10
          AO Gaussian exp screening on grid/accAOfunc:  14
          CD Gaussian exp screening on grid/accCDfunc:  20
          XC Gaussian exp screening on grid/accXCfunc:  20
          Schwarz screening/accCoul: 1.00D-08


      Superposition of Atomic Density Guess
      -------------------------------------

 Sum of atomic energies:        -187.22468930

      Non-variational initial energy
      ------------------------------

 Total energy =    -188.277402
 1-e energy   =    -371.860750
 2-e energy   =     125.165692
 HOMO         =      -0.484156
 LUMO         =       0.037493

   Time after variat. SCF:      0.5
   Time prior to 1st pass:      0.5

 Integral file          = ./CO2.xyz.aoints.00
 Record size in doubles =    65536    No. of integs per rec  =    43688
 Max. records in memory =       83    Max. records in file   = 11666362
 No. of bits per label  =        8    No. of bits per value  =       64


 #quartets = 2.842D+05 #integrals = 9.900D+06 #direct =  0.0% #cached =100.0%


File balance: exchanges=     0  moved=     0  time=   0.0


 Grid_pts file          = ./CO2.xyz.gridpts.00
 Record size in doubles =  12289        No. of grid_pts per rec  =   3070
 Max. records in memory =      3        Max. recs in file   =  62215538


           Memory utilization after 1st SCF pass: 
           Heap Space remaining (MW):        7.63             7627340
          Stack Space remaining (MW):       13.11            13106396

   convergence    iter        energy       DeltaE   RMS-Dens  Diis-err    time
 ---------------- ----- ----------------- --------- --------- ---------  ------
 d= 0,ls=0.0,diis     1   -188.5708302087 -2.47D+02  1.12D-02  1.79D+00     1.1
 d= 0,ls=0.0,diis     2   -188.1444404525  4.26D-01  7.09D-03  5.64D+00     1.3
 d= 0,ls=0.0,diis     3   -188.6806056567 -5.36D-01  6.54D-04  6.26D-02     1.5
 d= 0,ls=0.0,diis     4   -188.6754559519  5.15D-03  4.09D-04  4.65D-03     1.7
 d= 0,ls=0.0,diis     5   -188.6785502120 -3.09D-03  4.24D-05  6.61D-05     1.9
  Resetting Diis
 d= 0,ls=0.0,diis     6   -188.6780504383  5.00D-04  1.00D-05  4.25D-06     2.1
 d= 0,ls=0.0,diis     7   -188.6781247735 -7.43D-05  1.48D-06  9.80D-09     2.3
 d= 0,ls=0.0,diis     8   -188.6781236050  1.17D-06  4.11D-07  5.55D-09     2.5
 d= 0,ls=0.0,diis     9   -188.6781255232 -1.92D-06  1.92D-07  4.20D-09     2.7
 d= 0,ls=0.0,diis    10   -188.6781241807  1.34D-06  6.63D-08  6.39D-11     2.9
 d= 0,ls=0.0,diis    11   -188.6781245354 -3.55D-07  3.24D-08  8.15D-11     3.1


         Total DFT energy =     -188.678124535353
      One electron energy =     -372.158460090061
           Coulomb energy =      147.548126373708
          Exchange energy =      -21.731166065245
       Correlation energy =       -0.754280681758
 Nuclear repulsion energy =       58.417655928004

 Numeric. integr. density =       21.999999745513

     Total iterative time =      2.6s



                       DFT Final Molecular Orbital Analysis
                       ------------------------------------

 Vector    1  Occ=2.000000D+00  E=-1.905012D+01
              MO Center=  1.0D-16,  5.4D-17,  1.2D+00, r^2= 1.8D-02
   Bfn.  Coefficient  Atom+Function         Bfn.  Coefficient  Atom+Function  
  ----- ------------  ---------------      ----- ------------  ---------------
    46      0.550567  2 O  s                 47      0.470860  2 O  s          

 Vector    2  Occ=2.000000D+00  E=-1.905012D+01
              MO Center= -4.2D-17,  1.1D-16, -1.2D+00, r^2= 1.8D-02
   Bfn.  Coefficient  Atom+Function         Bfn.  Coefficient  Atom+Function  
  ----- ------------  ---------------      ----- ------------  ---------------
    91      0.550567  3 O  s                 92      0.470859  3 O  s          

 Vector    3  Occ=2.000000D+00  E=-1.023150D+01
              MO Center= -1.8D-16, -8.8D-17,  2.6D-10, r^2= 2.8D-02
   Bfn.  Coefficient  Atom+Function         Bfn.  Coefficient  Atom+Function  
  ----- ------------  ---------------      ----- ------------  ---------------
     1      0.561881  1 C  s                  2      0.465641  1 C  s          

 Vector    4  Occ=2.000000D+00  E=-1.157312D+00
              MO Center= -5.6D-14, -5.6D-14,  7.9D-06, r^2= 1.1D+00
   Bfn.  Coefficient  Atom+Function         Bfn.  Coefficient  Atom+Function  
  ----- ------------  ---------------      ----- ------------  ---------------
    55      0.379124  2 O  s                100      0.379120  3 O  s          
    51      0.328024  2 O  s                 96      0.328020  3 O  s          
     6      0.240974  1 C  s          

 Vector    5  Occ=2.000000D+00  E=-1.116378D+00
              MO Center=  4.1D-14,  4.3D-14, -7.7D-06, r^2= 1.2D+00
   Bfn.  Coefficient  Atom+Function         Bfn.  Coefficient  Atom+Function  
  ----- ------------  ---------------      ----- ------------  ---------------
    55      0.436942  2 O  s                100     -0.436946  3 O  s          
    51      0.364204  2 O  s                 96     -0.364207  3 O  s          
     5      0.164282  1 C  pz         

 Vector    6  Occ=2.000000D+00  E=-5.888044D-01
              MO Center=  8.2D-15,  8.2D-15,  1.2D-05, r^2= 2.2D+00
   Bfn.  Coefficient  Atom+Function         Bfn.  Coefficient  Atom+Function  
  ----- ------------  ---------------      ----- ------------  ---------------
    55      0.349333  2 O  s                100      0.349330  3 O  s          
    10      0.270066  1 C  s                  6     -0.259605  1 C  s          
    58      0.245058  2 O  pz               103     -0.245056  3 O  pz         
    35      0.210972  1 C  dzz               51      0.203121  2 O  s          
    96      0.203119  3 O  s                 54      0.188182  2 O  pz         

 Vector    7  Occ=2.000000D+00  E=-5.541526D-01
              MO Center= -2.7D-14, -2.6D-14,  2.3D-06, r^2= 1.4D+00
   Bfn.  Coefficient  Atom+Function         Bfn.  Coefficient  Atom+Function  
  ----- ------------  ---------------      ----- ------------  ---------------
     7      0.158696  1 C  px                56      0.158098  2 O  px         
   101      0.158097  3 O  px                 8     -0.155604  1 C  py         
    57     -0.155018  2 O  py               102     -0.155017  3 O  py         

 Vector    8  Occ=2.000000D+00  E=-5.541526D-01
              MO Center= -5.4D-14, -5.4D-14,  2.3D-06, r^2= 1.4D+00
   Bfn.  Coefficient  Atom+Function         Bfn.  Coefficient  Atom+Function  
  ----- ------------  ---------------      ----- ------------  ---------------
     8      0.158696  1 C  py                57      0.158098  2 O  py         
   102      0.158097  3 O  py                 7      0.155604  1 C  px         
    56      0.155018  2 O  px               101      0.155017  3 O  px         

 Vector    9  Occ=2.000000D+00  E=-5.448134D-01
              MO Center= -1.1D-13, -1.1D-13, -1.2D-05, r^2= 2.2D+00
   Bfn.  Coefficient  Atom+Function         Bfn.  Coefficient  Atom+Function  
  ----- ------------  ---------------      ----- ------------  ---------------
    55      0.337791  2 O  s                100     -0.337795  3 O  s          
    58      0.250320  2 O  pz               103      0.250322  3 O  pz         
    54      0.243582  2 O  pz                99      0.243584  3 O  pz         
    13      0.214786  1 C  pz                50      0.194528  2 O  pz         
    95      0.194530  3 O  pz                 9     -0.176544  1 C  pz         

 Vector   10  Occ=2.000000D+00  E=-4.153330D-01
              MO Center=  1.3D-13,  1.4D-13, -1.6D-06, r^2= 1.9D+00
   Bfn.  Coefficient  Atom+Function         Bfn.  Coefficient  Atom+Function  
  ----- ------------  ---------------      ----- ------------  ---------------
    57      0.264917  2 O  py               102     -0.264917  3 O  py         
    56      0.254907  2 O  px               101     -0.254907  3 O  px         
    53      0.207439  2 O  py                98     -0.207439  3 O  py         
    52      0.199600  2 O  px                97     -0.199600  3 O  px         
    49      0.161071  2 O  py                94     -0.161071  3 O  py         

 Vector   11  Occ=2.000000D+00  E=-4.153330D-01
              MO Center=  4.5D-15,  3.3D-15, -1.6D-06, r^2= 1.9D+00
   Bfn.  Coefficient  Atom+Function         Bfn.  Coefficient  Atom+Function  
  ----- ------------  ---------------      ----- ------------  ---------------
    56      0.264917  2 O  px               101     -0.264917  3 O  px         
    57     -0.254907  2 O  py               102      0.254907  3 O  py         
    52      0.207439  2 O  px                97     -0.207439  3 O  px         
    53     -0.199600  2 O  py                98      0.199600  3 O  py         
    48      0.161071  2 O  px                93     -0.161071  3 O  px         

 Vector   12  Occ=0.000000D+00  E=-8.097151D-02
              MO Center=  1.6D-12,  1.7D-12, -5.8D-07, r^2= 1.6D+00
   Bfn.  Coefficient  Atom+Function         Bfn.  Coefficient  Atom+Function  
  ----- ------------  ---------------      ----- ------------  ---------------
    12      0.444197  1 C  py                11      0.437991  1 C  px         
     8      0.256632  1 C  py                 7      0.253047  1 C  px         
    57     -0.239834  2 O  py               102     -0.239834  3 O  py         
    56     -0.236483  2 O  px               101     -0.236484  3 O  px         
     4      0.193138  1 C  py                 3      0.190440  1 C  px         

 Vector   13  Occ=0.000000D+00  E=-8.097151D-02
              MO Center= -4.4D-14, -3.9D-14, -5.8D-07, r^2= 1.6D+00
   Bfn.  Coefficient  Atom+Function         Bfn.  Coefficient  Atom+Function  
  ----- ------------  ---------------      ----- ------------  ---------------
    11      0.444197  1 C  px                12     -0.437991  1 C  py         
     7      0.256632  1 C  px                 8     -0.253047  1 C  py         
    56     -0.239834  2 O  px               101     -0.239834  3 O  px         
    57      0.236483  2 O  py               102      0.236484  3 O  py         
     3      0.193138  1 C  px                 4     -0.190440  1 C  py         

 Vector   14  Occ=0.000000D+00  E=-6.453211D-02
              MO Center= -1.4D-12, -1.4D-12,  4.0D-07, r^2= 4.0D+00
   Bfn.  Coefficient  Atom+Function         Bfn.  Coefficient  Atom+Function  
  ----- ------------  ---------------      ----- ------------  ---------------
    10      1.332760  1 C  s                 14      1.163700  1 C  s          
    55     -0.518549  2 O  s                100     -0.518549  3 O  s          
    59     -0.479298  2 O  s                104     -0.479298  3 O  s          
    51     -0.226775  2 O  s                 96     -0.226775  3 O  s          
    58      0.206644  2 O  pz               103     -0.206644  3 O  pz         

 Vector   15  Occ=0.000000D+00  E= 5.030905D-02
              MO Center=  6.9D-14,  5.9D-14,  3.2D-06, r^2= 1.2D+01
   Bfn.  Coefficient  Atom+Function         Bfn.  Coefficient  Atom+Function  
  ----- ------------  ---------------      ----- ------------  ---------------
    59     -2.320889  2 O  s                104      2.320883  3 O  s          
    17      2.159455  1 C  pz                13      1.182756  1 C  pz         
    55     -0.574814  2 O  s                100      0.574813  3 O  s          
    62      0.381176  2 O  pz               107      0.381173  3 O  pz         
    58      0.233721  2 O  pz               103      0.233721  3 O  pz         

 Vector   16  Occ=0.000000D+00  E= 5.118781D-02
              MO Center=  1.0D-12,  1.3D-12,  5.3D-07, r^2= 9.7D+00
   Bfn.  Coefficient  Atom+Function         Bfn.  Coefficient  Atom+Function  
  ----- ------------  ---------------      ----- ------------  ---------------
    16      1.095207  1 C  py                15      0.833621  1 C  px         
    61     -0.179192  2 O  py               106     -0.179192  3 O  py         

 Vector   17  Occ=0.000000D+00  E= 5.118781D-02
              MO Center=  2.3D-13, -4.9D-14,  5.3D-07, r^2= 9.7D+00
   Bfn.  Coefficient  Atom+Function         Bfn.  Coefficient  Atom+Function  
  ----- ------------  ---------------      ----- ------------  ---------------
    15      1.095207  1 C  px                16     -0.833621  1 C  py         
    60     -0.179192  2 O  px               105     -0.179192  3 O  px         

 Vector   18  Occ=0.000000D+00  E= 7.625846D-02
              MO Center= -1.3D-12, -1.4D-12, -2.8D-06, r^2= 1.0D+01
   Bfn.  Coefficient  Atom+Function         Bfn.  Coefficient  Atom+Function  
  ----- ------------  ---------------      ----- ------------  ---------------
    59     -4.224287  2 O  s                104     -4.224292  3 O  s          
    14      4.120390  1 C  s                 10      3.671173  1 C  s          
    35      2.229790  1 C  dzz               62      1.280644  2 O  pz         
   107     -1.280644  3 O  pz                55     -0.796991  2 O  s          
   100     -0.796992  3 O  s                 30      0.368337  1 C  dxx        

 Vector   19  Occ=0.000000D+00  E= 1.483859D-01
              MO Center= -4.0D-14, -2.9D-14,  1.3D-06, r^2= 9.0D+00
   Bfn.  Coefficient  Atom+Function         Bfn.  Coefficient  Atom+Function  
  ----- ------------  ---------------      ----- ------------  ---------------
    62      1.671064  2 O  pz               107     -1.671061  3 O  pz         
    10      1.299351  1 C  s                 59     -1.175945  2 O  s          
   104     -1.175944  3 O  s                 30      1.074464  1 C  dxx        
    33      1.074464  1 C  dyy               35      0.438750  1 C  dzz        
    14     -0.403655  1 C  s                  6      0.386113  1 C  s          

 Vector   20  Occ=0.000000D+00  E= 1.679907D-01
              MO Center=  6.8D-14,  4.5D-14,  9.0D-07, r^2= 8.3D+00
   Bfn.  Coefficient  Atom+Function         Bfn.  Coefficient  Atom+Function  
  ----- ------------  ---------------      ----- ------------  ---------------
    60      1.136459  2 O  px               105     -1.136457  3 O  px         
    32     -1.004119  1 C  dxz               61      0.742321  2 O  py         
   106     -0.742319  3 O  py                34     -0.655878  1 C  dyz        
    77     -0.152303  2 O  dxz              122     -0.152303  3 O  dxz        

 Vector   21  Occ=0.000000D+00  E= 1.679907D-01
              MO Center= -4.0D-15,  1.4D-14,  9.0D-07, r^2= 8.3D+00
   Bfn.  Coefficient  Atom+Function         Bfn.  Coefficient  Atom+Function  
  ----- ------------  ---------------      ----- ------------  ---------------
    61      1.136459  2 O  py               106     -1.136457  3 O  py         
    34     -1.004119  1 C  dyz               60     -0.742321  2 O  px         
   105      0.742319  3 O  px                32      0.655878  1 C  dxz        
    79     -0.152303  2 O  dyz              124     -0.152303  3 O  dyz        

 Vector   22  Occ=0.000000D+00  E= 2.163428D-01
              MO Center= -1.2D-13, -1.0D-13, -1.4D-06, r^2= 8.7D+00
   Bfn.  Coefficient  Atom+Function         Bfn.  Coefficient  Atom+Function  
  ----- ------------  ---------------      ----- ------------  ---------------
    59      5.713472  2 O  s                104     -5.713469  3 O  s          
    13     -4.266724  1 C  pz                62     -3.249304  2 O  pz         
   107     -3.249305  3 O  pz                55      1.074955  2 O  s          
   100     -1.074954  3 O  s                 58     -0.855704  2 O  pz         
   103     -0.855704  3 O  pz                 9     -0.348574  1 C  pz         

 Vector   23  Occ=0.000000D+00  E= 2.276977D-01
              MO Center=  5.0D-13,  5.0D-13,  1.7D-07, r^2= 2.9D+00
   Bfn.  Coefficient  Atom+Function         Bfn.  Coefficient  Atom+Function  
  ----- ------------  ---------------      ----- ------------  ---------------
    30      0.769730  1 C  dxx               33     -0.769730  1 C  dyy        

 Vector   24  Occ=0.000000D+00  E= 2.276979D-01
              MO Center=  7.3D-13,  7.3D-13,  1.7D-07, r^2= 2.9D+00
   Bfn.  Coefficient  Atom+Function         Bfn.  Coefficient  Atom+Function  
  ----- ------------  ---------------      ----- ------------  ---------------
    31      1.539461  1 C  dxy        

 Vector   25  Occ=0.000000D+00  E= 2.442569D-01
              MO Center= -1.9D-13,  2.3D-12, -1.2D-06, r^2= 9.9D+00
   Bfn.  Coefficient  Atom+Function         Bfn.  Coefficient  Atom+Function  
  ----- ------------  ---------------      ----- ------------  ---------------
    16      2.179341  1 C  py                61     -1.871630  2 O  py         
   106     -1.871632  3 O  py                12      0.509476  1 C  py         
    15      0.418586  1 C  px                60     -0.359484  2 O  px         
   105     -0.359485  3 O  px                57      0.263103  2 O  py         
   102      0.263103  3 O  py         

 Vector   26  Occ=0.000000D+00  E= 2.442569D-01
              MO Center=  1.7D-12, -1.1D-12, -1.2D-06, r^2= 9.9D+00
   Bfn.  Coefficient  Atom+Function         Bfn.  Coefficient  Atom+Function  
  ----- ------------  ---------------      ----- ------------  ---------------
    15      2.179341  1 C  px                60     -1.871630  2 O  px         
   105     -1.871632  3 O  px                11      0.509476  1 C  px         
    16     -0.418586  1 C  py                61      0.359484  2 O  py         
   106      0.359485  3 O  py                56      0.263103  2 O  px         
   101      0.263103  3 O  px         

 Vector   27  Occ=0.000000D+00  E= 2.596400D-01
              MO Center= -2.7D-12, -2.5D-12,  3.8D-05, r^2= 8.2D+00
   Bfn.  Coefficient  Atom+Function         Bfn.  Coefficient  Atom+Function  
  ----- ------------  ---------------      ----- ------------  ---------------
    10      9.524608  1 C  s                 59     -7.476399  2 O  s          
   104     -7.476265  3 O  s                 14      5.017038  1 C  s          
    35      3.292510  1 C  dzz               55     -1.912480  2 O  s          
   100     -1.912474  3 O  s                 62      1.666186  2 O  pz         
   107     -1.666198  3 O  pz                58      0.986608  2 O  pz         

 Vector   28  Occ=0.000000D+00  E= 2.628435D-01
              MO Center=  1.1D-14,  7.2D-15, -3.9D-05, r^2= 1.2D+01
   Bfn.  Coefficient  Atom+Function         Bfn.  Coefficient  Atom+Function  
  ----- ------------  ---------------      ----- ------------  ---------------
    59      5.208222  2 O  s                104     -5.208420  3 O  s          
    17     -3.476950  1 C  pz                13     -1.582076  1 C  pz         
    58     -0.681470  2 O  pz               103     -0.681497  3 O  pz         
    62      0.366364  2 O  pz               107      0.366321  3 O  pz         
    51     -0.284833  2 O  s                 96      0.284833  3 O  s          

 Vector   29  Occ=0.000000D+00  E= 4.856661D-01
              MO Center=  8.2D-12,  9.8D-12,  3.9D-07, r^2= 4.2D+00
   Bfn.  Coefficient  Atom+Function         Bfn.  Coefficient  Atom+Function  
  ----- ------------  ---------------      ----- ------------  ---------------
    12      2.051877  1 C  py                11      1.721422  1 C  px         
    61     -0.818319  2 O  py               106     -0.818319  3 O  py         
    60     -0.686529  2 O  px               105     -0.686529  3 O  px         
     8     -0.633024  1 C  py                 7     -0.531076  1 C  px         
    16      0.227766  1 C  py                79      0.227411  2 O  dyz        

 Vector   30  Occ=0.000000D+00  E= 4.856661D-01
              MO Center=  1.0D-12, -1.1D-12,  3.9D-07, r^2= 4.2D+00
   Bfn.  Coefficient  Atom+Function         Bfn.  Coefficient  Atom+Function  
  ----- ------------  ---------------      ----- ------------  ---------------
    11      2.051877  1 C  px                12     -1.721422  1 C  py         
    60     -0.818319  2 O  px               105     -0.818319  3 O  px         
    61      0.686529  2 O  py               106      0.686529  3 O  py         
     7     -0.633024  1 C  px                 8      0.531076  1 C  py         
    15      0.227766  1 C  px                77      0.227411  2 O  dxz        

 Vector   31  Occ=0.000000D+00  E= 4.912732D-01
              MO Center= -9.5D-12, -9.0D-12,  2.6D-06, r^2= 7.1D+00
   Bfn.  Coefficient  Atom+Function         Bfn.  Coefficient  Atom+Function  
  ----- ------------  ---------------      ----- ------------  ---------------
    59      7.627076  2 O  s                104      7.627062  3 O  s          
    30     -4.201292  1 C  dxx               33     -4.201292  1 C  dyy        
    62     -3.232658  2 O  pz               107      3.232651  3 O  pz         
    35     -3.113068  1 C  dzz               14     -2.431399  1 C  s          
    10     -1.830822  1 C  s                 55     -1.555264  2 O  s          

 Vector   32  Occ=0.000000D+00  E= 5.429989D-01
              MO Center= -9.9D-13,  2.2D-12, -4.5D-07, r^2= 4.4D+00
   Bfn.  Coefficient  Atom+Function         Bfn.  Coefficient  Atom+Function  
  ----- ------------  ---------------      ----- ------------  ---------------
    34      4.823399  1 C  dyz               32     -2.073880  1 C  dxz        
    57     -1.130574  2 O  py               102      1.130575  3 O  py         
    61     -0.942893  2 O  py               106      0.942894  3 O  py         
    56      0.486104  2 O  px               101     -0.486105  3 O  px         
    60      0.405409  2 O  px               105     -0.405409  3 O  px         


 center of mass
 --------------
 x =   0.00000000 y =   0.00000000 z =   0.00000000

 moments of inertia (a.u.)
 ------------------
         153.583118899077           0.000000000000           0.000000000000
           0.000000000000         153.583118899077           0.000000000000
           0.000000000000           0.000000000000           0.000000000000

     Multipole analysis of the density
     ---------------------------------

     L   x y z        total         alpha         beta         nuclear
     -   - - -        -----         -----         ----         -------
     0   0 0 0     -0.000000    -11.000000    -11.000000     22.000000

     1   1 0 0      0.000000      0.000000      0.000000      0.000000
     1   0 1 0      0.000000      0.000000      0.000000      0.000000
     1   0 0 1     -0.000005     -0.000003     -0.000003      0.000000

     2   2 0 0    -11.234545     -5.617272     -5.617272      0.000000
     2   1 1 0      0.000000      0.000000      0.000000      0.000000
     2   1 0 1      0.000000      0.000000      0.000000      0.000000
     2   0 2 0    -11.234545     -5.617272     -5.617272      0.000000
     2   0 1 1      0.000000      0.000000      0.000000      0.000000
     2   0 0 2    -14.215445    -45.515721    -45.515721     76.815997


 Parallel integral file used     236 records with       0 large values


            General Information
            -------------------
          SCF calculation type: DFT
          Wavefunction type:  closed shell.
          No. of atoms     :     3
          No. of electrons :    22
           Alpha electrons :    11
            Beta electrons :    11
          Charge           :     0
          Spin multiplicity:     1
          Use of symmetry is: off; symmetry adaption is: off
          Maximum number of iterations: ***
          AO basis - number of functions:   135
                     number of shells:    39
          Convergence on energy requested: 1.00D-06
          Convergence on density requested: 1.00D-05
          Convergence on gradient requested: 5.00D-04

              XC Information
              --------------
                  TPSS metaGGA Exchange Functional  1.000          
             TPSS03 metaGGA Correlation Functional  1.000          

             Grid Information
             ----------------
          Grid used for XC integration:  medium    
          Radial quadrature: Mura-Knowles        
          Angular quadrature: Lebedev. 
          Tag              B.-S. Rad. Rad. Pts. Rad. Cut. Ang. Pts.
          ---              ---------- --------- --------- ---------
          C                   0.70       49           8.0       434
          O                   0.60       49           9.0       434
          Grid pruning is: on 
          Number of quadrature shells:   147
          Spatial weights used:  Erf1

          Convergence Information
          -----------------------
          Convergence aids based upon iterative change in 
          total energy or number of iterations. 
          Levelshifting, if invoked, occurs when the 
          HOMO/LUMO gap drops below (HL_TOL): 1.00D-02
          DIIS, if invoked, will attempt to extrapolate 
          using up to (NFOCK): 10 stored Fock matrices.

                    Damping( 0%)  Levelshifting(0.5)       DIIS
                  --------------- ------------------- ---------------
          dE  on:    start            ASAP                start   
          dE off:    2 iters        *** iters           *** iters 


      Screening Tolerance Information
      -------------------------------
          Density screening/tol_rho: 1.00D-10
          AO Gaussian exp screening on grid/accAOfunc:  14
          CD Gaussian exp screening on grid/accCDfunc:  20
          XC Gaussian exp screening on grid/accXCfunc:  20
          Schwarz screening/accCoul: 1.00D-08



                            NWChem DFT Gradient Module
                            --------------------------



  charge          =   0.00
  wavefunction    = closed shell



                         DFT ENERGY GRADIENTS

    atom               coordinates                        gradient
                 x          y          z           x          y          z
   1 C       0.000000   0.000000   0.000000   -0.000000  -0.000000   0.000001
   2 O       0.000000   0.000000   2.191118    0.000000   0.000000   0.009367
   3 O       0.000000   0.000000  -2.191118    0.000000   0.000000  -0.009368

                 ----------------------------------------
                 |  Time  |  1-e(secs)   |  2-e(secs)   |
                 ----------------------------------------
                 |  CPU   |       0.00   |       0.61   |
                 ----------------------------------------
                 |  WALL  |       0.00   |       0.62   |
                 ----------------------------------------
                               NWChem STEPPER Module
                               ---------------------


   Step sought for minimum. 
   Update Hessian used. 
   Nuclear Hessian initialized with UNIT matrix. 
   Dependent rotation vector no.                    3
   found in ECKART; linear geometry  assumed. 
   Number of modes removed with force (in the spectral representation)
   less than:   0.000000 is:    2
   PARTIT has partitioned the input hessian 
   and gradient into two subspaces;  An 
   "external" hessian and gradient composed 
   of                     5  independent translations 
   and rotations, and an "internal" hessian 
   and gradient with a dimension of                     2
               e-diff         g-norm     g-max   
 value     -188.6781245354  0.013247  0.009368
 thres        0.0001000000  0.010000  0.000800
  trust radius =     0.10
   Calculating the Newton-Raphson step. 
  The length (norm) of the STEP is   0.013247

  The lowest few components in the bases 
  generated by the spectral decomposition 
  of the internal hessian (non-zero force). 

  Component  Hessian     Grad      Step   Scaled-Step
  ---------  --------  --------  -------- -----------
       1     0.10D+01  0.13D-01  -.13D-01  -.13D-01
       2     0.10D+01  0.14D-05  -.14D-05  -.14D-05

  Clean-up the step; truncate at:   0.000001
  In cartesian coordinates; norm of this step is:   0.013248
         Walk statistics for step:   1
     Previous actual total energy:   0.000000000000D+00
      Current actual total energy:  -0.188678124535D+03
         Actual energy difference:  -0.188678124535D+03 threshold:         0.100000D-03
    Second order energy predicted:   0.000000000000D+00
             Ratio of differences:   0.000000000000D+00
               Fixed trust radius:   0.100000000000D+00
   Number of negative eigenvalues:   0
   Max absolute value of Gradient:   0.936794938372D-02 threshold:         0.800000D-03
                    Gradient norm:   0.132474553723D-01 threshold:         0.100000D-01
                RMS Gradient norm:   0.764842192528D-02
  Largest component of step v-tor:   0.132470000000D-01
  New 2nd order energy prediction:  -0.877475367244D-04



  ------------------- New geometry -------------------


                         Geometry "g-1-step" -> "g-1-step"
                         ---------------------------------

 Output coordinates in angstroms (scale by  1.889725989 to convert to a.u.)

  No.       Tag          Charge          X              Y              Z
 ---- ---------------- ---------- -------------- -------------- --------------
    1 C                    6.0000     0.00000000     0.00000000    -0.00000053
    2 O                    8.0000     0.00000000     0.00000000     1.15453320
    3 O                    8.0000     0.00000000     0.00000000    -1.15453267

      Atomic Mass 
      ----------- 

      C                 12.000000
      O                 15.994910


 Effective nuclear repulsion energy (a.u.)      58.6684762189

            Nuclear Dipole moment (a.u.) 
            ----------------------------
        X                 Y               Z
 ---------------- ---------------- ----------------
     0.0000000000     0.0000000000     0.0000020000

 ==============================================================================
                                internuclear distances
 ------------------------------------------------------------------------------
       center one      |      center two      | atomic units |  angstroms
 ------------------------------------------------------------------------------
    2 O                |   1 C                |     2.18175  |     1.15453
    3 O                |   1 C                |     2.18175  |     1.15453
 ------------------------------------------------------------------------------
                         number of included internuclear distances:          2
 ==============================================================================



 ==============================================================================
                                 internuclear angles
 ------------------------------------------------------------------------------
        center 1       |       center 2       |       center 3       |  degrees
 ------------------------------------------------------------------------------
    2 O                |   1 C                |   3 O                |   180.00
 ------------------------------------------------------------------------------
                            number of included internuclear angles:          1
 ==============================================================================




                                 NWChem DFT Module
                                 -----------------




 Summary of "ao basis" -> "ao basis" (cartesian)
 ------------------------------------------------------------------------------
       Tag                 Description            Shells   Functions and Types
 ---------------- ------------------------------  ------  ---------------------
 C                     6-311++G(3df,3pd)            13       45   5s4p3d1f
 O                     6-311++G(3df,3pd)            13       45   5s4p3d1f


  Caching 1-el integrals 

            General Information
            -------------------
          SCF calculation type: DFT
          Wavefunction type:  closed shell.
          No. of atoms     :     3
          No. of electrons :    22
           Alpha electrons :    11
            Beta electrons :    11
          Charge           :     0
          Spin multiplicity:     1
          Use of symmetry is: off; symmetry adaption is: off
          Maximum number of iterations: ***
          AO basis - number of functions:   135
                     number of shells:    39
          Convergence on energy requested: 1.00D-06
          Convergence on density requested: 1.00D-05
          Convergence on gradient requested: 5.00D-04

              XC Information
              --------------
                  TPSS metaGGA Exchange Functional  1.000          
             TPSS03 metaGGA Correlation Functional  1.000          

             Grid Information
             ----------------
          Grid used for XC integration:  medium    
          Radial quadrature: Mura-Knowles        
          Angular quadrature: Lebedev. 
          Tag              B.-S. Rad. Rad. Pts. Rad. Cut. Ang. Pts.
          ---              ---------- --------- --------- ---------
          C                   0.70       49           8.0       434
          O                   0.60       49           9.0       434
          Grid pruning is: on 
          Number of quadrature shells:   147
          Spatial weights used:  Erf1

          Convergence Information
          -----------------------
          Convergence aids based upon iterative change in 
          total energy or number of iterations. 
          Levelshifting, if invoked, occurs when the 
          HOMO/LUMO gap drops below (HL_TOL): 1.00D-02
          DIIS, if invoked, will attempt to extrapolate 
          using up to (NFOCK): 10 stored Fock matrices.

                    Damping( 0%)  Levelshifting(0.5)       DIIS
                  --------------- ------------------- ---------------
          dE  on:    start            ASAP                start   
          dE off:    2 iters        *** iters           *** iters 


      Screening Tolerance Information
      -------------------------------
          Density screening/tol_rho: 1.00D-10
          AO Gaussian exp screening on grid/accAOfunc:  14
          CD Gaussian exp screening on grid/accCDfunc:  20
          XC Gaussian exp screening on grid/accXCfunc:  20
          Schwarz screening/accCoul: 1.00D-08


 Loading old vectors from job with title :



   Time after variat. SCF:      4.1
   Time prior to 1st pass:      4.1

 Integral file          = ./CO2.xyz.aoints.00
 Record size in doubles =    65536    No. of integs per rec  =    43688
 Max. records in memory =       83    Max. records in file   = 11666174
 No. of bits per label  =        8    No. of bits per value  =       64


 #quartets = 2.888D+05 #integrals = 1.002D+07 #direct =  0.0% #cached =100.0%


File balance: exchanges=     8  moved=    13  time=   0.0


 Grid_pts file          = ./CO2.xyz.gridpts.00
 Record size in doubles =  12289        No. of grid_pts per rec  =   3070
 Max. records in memory =      3        Max. recs in file   =  62214535


           Memory utilization after 1st SCF pass: 
           Heap Space remaining (MW):        7.63             7627340
          Stack Space remaining (MW):       13.11            13106396

   convergence    iter        energy       DeltaE   RMS-Dens  Diis-err    time
 ---------------- ----- ----------------- --------- --------- ---------  ------
 d= 0,ls=0.0,diis     1   -188.6770827529 -2.47D+02  1.99D-04  5.25D-04     4.7
 d= 0,ls=0.0,diis     2   -188.6785417472 -1.46D-03  7.02D-05  4.18D-04     4.9
 d= 0,ls=0.0,diis     3   -188.6775361860  1.01D-03  4.18D-05  1.33D-04     5.1
 d= 0,ls=0.0,diis     4   -188.6777387714 -2.03D-04  1.25D-05  9.25D-06     5.3
 d= 0,ls=0.0,diis     5   -188.6777600359 -2.13D-05  2.74D-06  1.47D-07     5.5
 d= 0,ls=0.0,diis     6   -188.6777612926 -1.26D-06  5.44D-07  1.39D-08     5.7
 d= 0,ls=0.0,diis     7   -188.6777608547  4.38D-07  3.45D-07  1.25D-08     5.9


         Total DFT energy =     -188.677760854662
      One electron energy =     -372.649012279590
           Coulomb energy =      147.798686061116
          Exchange energy =      -21.741050262013
       Correlation energy =       -0.754860593046
 Nuclear repulsion energy =       58.668476218871

 Numeric. integr. density =       21.999999540901

     Total iterative time =      1.8s



                       DFT Final Molecular Orbital Analysis
                       ------------------------------------

 Vector    1  Occ=2.000000D+00  E=-1.904892D+01
              MO Center=  4.0D-17, -2.3D-17, -1.1D+00, r^2= 2.5D-02
   Bfn.  Coefficient  Atom+Function         Bfn.  Coefficient  Atom+Function  
  ----- ------------  ---------------      ----- ------------  ---------------
    91      0.550195  3 O  s                 92      0.470545  3 O  s          

 Vector    2  Occ=2.000000D+00  E=-1.904892D+01
              MO Center= -1.6D-16, -5.3D-17,  1.1D+00, r^2= 2.5D-02
   Bfn.  Coefficient  Atom+Function         Bfn.  Coefficient  Atom+Function  
  ----- ------------  ---------------      ----- ------------  ---------------
    46      0.550195  2 O  s                 47      0.470543  2 O  s          

 Vector    3  Occ=2.000000D+00  E=-1.022909D+01
              MO Center=  2.7D-16,  2.7D-16, -5.3D-07, r^2= 2.8D-02
   Bfn.  Coefficient  Atom+Function         Bfn.  Coefficient  Atom+Function  
  ----- ------------  ---------------      ----- ------------  ---------------
     1      0.561846  1 C  s                  2      0.465647  1 C  s          

 Vector    4  Occ=2.000000D+00  E=-1.159392D+00
              MO Center=  8.4D-16, -3.1D-15, -2.5D-05, r^2= 1.1D+00
   Bfn.  Coefficient  Atom+Function         Bfn.  Coefficient  Atom+Function  
  ----- ------------  ---------------      ----- ------------  ---------------
    55      0.379120  2 O  s                100      0.379133  3 O  s          
    51      0.327785  2 O  s                 96      0.327796  3 O  s          
     6      0.240210  1 C  s          

 Vector    5  Occ=2.000000D+00  E=-1.118448D+00
              MO Center=  3.9D-16,  2.2D-16,  2.5D-05, r^2= 1.1D+00
   Bfn.  Coefficient  Atom+Function         Bfn.  Coefficient  Atom+Function  
  ----- ------------  ---------------      ----- ------------  ---------------
    55      0.437034  2 O  s                100     -0.437022  3 O  s          
    51      0.364004  2 O  s                 96     -0.363994  3 O  s          
     5      0.165832  1 C  pz         

 Vector    6  Occ=2.000000D+00  E=-5.878388D-01
              MO Center=  2.9D-15,  5.8D-16, -1.3D-05, r^2= 2.2D+00
   Bfn.  Coefficient  Atom+Function         Bfn.  Coefficient  Atom+Function  
  ----- ------------  ---------------      ----- ------------  ---------------
    55      0.348814  2 O  s                100      0.348817  3 O  s          
    10      0.278456  1 C  s                  6     -0.258004  1 C  s          
    58      0.246300  2 O  pz               103     -0.246302  3 O  pz         
    35      0.207765  1 C  dzz               51      0.202694  2 O  s          
    96      0.202696  3 O  s                 54      0.189035  2 O  pz         

 Vector    7  Occ=2.000000D+00  E=-5.558180D-01
              MO Center= -1.3D-15,  4.4D-16, -5.6D-06, r^2= 1.4D+00
   Bfn.  Coefficient  Atom+Function         Bfn.  Coefficient  Atom+Function  
  ----- ------------  ---------------      ----- ------------  ---------------
     7      0.179188  1 C  px                56      0.178478  2 O  px         
   101      0.178479  3 O  px                52      0.167811  2 O  px         
    97      0.167812  3 O  px                 3      0.153910  1 C  px         

 Vector    8  Occ=2.000000D+00  E=-5.558180D-01
              MO Center=  1.9D-16, -2.3D-15, -5.6D-06, r^2= 1.4D+00
   Bfn.  Coefficient  Atom+Function         Bfn.  Coefficient  Atom+Function  
  ----- ------------  ---------------      ----- ------------  ---------------
     8      0.179188  1 C  py                57      0.178478  2 O  py         
   102      0.178479  3 O  py                53      0.167811  2 O  py         
    98      0.167812  3 O  py                 4      0.153910  1 C  py         

 Vector    9  Occ=2.000000D+00  E=-5.448593D-01
              MO Center=  7.8D-15, -7.9D-16,  1.2D-05, r^2= 2.2D+00
   Bfn.  Coefficient  Atom+Function         Bfn.  Coefficient  Atom+Function  
  ----- ------------  ---------------      ----- ------------  ---------------
    55      0.338655  2 O  s                100     -0.338653  3 O  s          
    58      0.249755  2 O  pz               103      0.249752  3 O  pz         
    54      0.244242  2 O  pz                99      0.244240  3 O  pz         
    13      0.215671  1 C  pz                50      0.194640  2 O  pz         
    95      0.194638  3 O  pz                 9     -0.174121  1 C  pz         

 Vector   10  Occ=2.000000D+00  E=-4.154076D-01
              MO Center=  5.1D-16, -9.2D-16,  6.2D-06, r^2= 1.8D+00
   Bfn.  Coefficient  Atom+Function         Bfn.  Coefficient  Atom+Function  
  ----- ------------  ---------------      ----- ------------  ---------------
    57      0.367056  2 O  py               102     -0.367055  3 O  py         
    53      0.286901  2 O  py                98     -0.286900  3 O  py         
    49      0.222766  2 O  py                94     -0.222765  3 O  py         

 Vector   11  Occ=2.000000D+00  E=-4.154076D-01
              MO Center= -7.6D-15,  1.5D-15,  6.2D-06, r^2= 1.8D+00
   Bfn.  Coefficient  Atom+Function         Bfn.  Coefficient  Atom+Function  
  ----- ------------  ---------------      ----- ------------  ---------------
    56      0.367056  2 O  px               101     -0.367055  3 O  px         
    52      0.286901  2 O  px                97     -0.286900  3 O  px         
    48      0.222766  2 O  px                93     -0.222765  3 O  px         

 Vector   12  Occ=0.000000D+00  E=-7.772967D-02
              MO Center=  5.7D-15, -1.9D-14, -5.1D-07, r^2= 1.6D+00
   Bfn.  Coefficient  Atom+Function         Bfn.  Coefficient  Atom+Function  
  ----- ------------  ---------------      ----- ------------  ---------------
    12      0.604312  1 C  py                 8      0.345716  1 C  py         
    57     -0.325400  2 O  py               102     -0.325401  3 O  py         
     4      0.260424  1 C  py                53     -0.230346  2 O  py         
    98     -0.230346  3 O  py                11     -0.175941  1 C  px         
    49     -0.172432  2 O  py                94     -0.172432  3 O  py         

 Vector   13  Occ=0.000000D+00  E=-7.772967D-02
              MO Center= -4.5D-14, -1.3D-14, -5.1D-07, r^2= 1.6D+00
   Bfn.  Coefficient  Atom+Function         Bfn.  Coefficient  Atom+Function  
  ----- ------------  ---------------      ----- ------------  ---------------
    11      0.604312  1 C  px                 7      0.345716  1 C  px         
    56     -0.325400  2 O  px               101     -0.325401  3 O  px         
     3      0.260424  1 C  px                52     -0.230346  2 O  px         
    97     -0.230346  3 O  px                12      0.175941  1 C  py         
    48     -0.172432  2 O  px                93     -0.172432  3 O  px         

 Vector   14  Occ=0.000000D+00  E=-6.292127D-02
              MO Center=  4.8D-14,  1.5D-14,  4.3D-08, r^2= 4.1D+00
   Bfn.  Coefficient  Atom+Function         Bfn.  Coefficient  Atom+Function  
  ----- ------------  ---------------      ----- ------------  ---------------
    10      1.333224  1 C  s                 14      1.188280  1 C  s          
    55     -0.520331  2 O  s                100     -0.520335  3 O  s          
    59     -0.495821  2 O  s                104     -0.495829  3 O  s          
    51     -0.225922  2 O  s                 96     -0.225922  3 O  s          
    58      0.201385  2 O  pz               103     -0.201386  3 O  pz         

 Vector   15  Occ=0.000000D+00  E= 5.040138D-02
              MO Center=  1.6D-14, -1.3D-14, -2.5D-05, r^2= 1.2D+01
   Bfn.  Coefficient  Atom+Function         Bfn.  Coefficient  Atom+Function  
  ----- ------------  ---------------      ----- ------------  ---------------
    59     -2.332371  2 O  s                104      2.332461  3 O  s          
    17      2.159708  1 C  pz                13      1.188656  1 C  pz         
    55     -0.579251  2 O  s                100      0.579281  3 O  s          
    62      0.381312  2 O  pz               107      0.381338  3 O  pz         
    58      0.234864  2 O  pz               103      0.234871  3 O  pz         

 Vector   16  Occ=0.000000D+00  E= 5.112654D-02
              MO Center=  2.2D-14,  1.5D-14, -1.3D-06, r^2= 9.7D+00
   Bfn.  Coefficient  Atom+Function         Bfn.  Coefficient  Atom+Function  
  ----- ------------  ---------------      ----- ------------  ---------------
    15      1.075780  1 C  px                16      0.860377  1 C  py         
    60     -0.176968  2 O  px               105     -0.176968  3 O  px         

 Vector   17  Occ=0.000000D+00  E= 5.112654D-02
              MO Center= -3.1D-14,  4.1D-14, -1.3D-06, r^2= 9.7D+00
   Bfn.  Coefficient  Atom+Function         Bfn.  Coefficient  Atom+Function  
  ----- ------------  ---------------      ----- ------------  ---------------
    16      1.075780  1 C  py                15     -0.860377  1 C  px         
    61     -0.176968  2 O  py               106     -0.176968  3 O  py         

 Vector   18  Occ=0.000000D+00  E= 7.750653D-02
              MO Center=  1.3D-14, -4.0D-14,  2.0D-05, r^2= 1.0D+01
   Bfn.  Coefficient  Atom+Function         Bfn.  Coefficient  Atom+Function  
  ----- ------------  ---------------      ----- ------------  ---------------
    59     -4.296982  2 O  s                104     -4.297009  3 O  s          
    14      4.145870  1 C  s                 10      3.756749  1 C  s          
    35      2.259323  1 C  dzz               62      1.307392  2 O  pz         
   107     -1.307403  3 O  pz                55     -0.800837  2 O  s          
   100     -0.800849  3 O  s                 30      0.386228  1 C  dxx        

 Vector   19  Occ=0.000000D+00  E= 1.491982D-01
              MO Center= -3.6D-15, -5.1D-15,  9.6D-07, r^2= 9.0D+00
   Bfn.  Coefficient  Atom+Function         Bfn.  Coefficient  Atom+Function  
  ----- ------------  ---------------      ----- ------------  ---------------
    62      1.649552  2 O  pz               107     -1.649559  3 O  pz         
    10      1.133484  1 C  s                 30      1.084841  1 C  dxx        
    33      1.084841  1 C  dyy               59     -1.070385  2 O  s          
   104     -1.070403  3 O  s                 14     -0.496477  1 C  s          
    55      0.399861  2 O  s                100      0.399859  3 O  s          

 Vector   20  Occ=0.000000D+00  E= 1.680361D-01
              MO Center= -1.6D-14,  1.0D-14, -6.9D-07, r^2= 8.3D+00
   Bfn.  Coefficient  Atom+Function         Bfn.  Coefficient  Atom+Function  
  ----- ------------  ---------------      ----- ------------  ---------------
    60      1.157525  2 O  px               105     -1.157529  3 O  px         
    32     -1.028301  1 C  dxz               61     -0.719454  2 O  py         
   106      0.719457  3 O  py                34      0.639135  1 C  dyz        
    77     -0.155413  2 O  dxz              122     -0.155414  3 O  dxz        

 Vector   21  Occ=0.000000D+00  E= 1.680361D-01
              MO Center= -3.4D-16, -1.5D-15, -6.9D-07, r^2= 8.3D+00
   Bfn.  Coefficient  Atom+Function         Bfn.  Coefficient  Atom+Function  
  ----- ------------  ---------------      ----- ------------  ---------------
    61      1.157525  2 O  py               106     -1.157529  3 O  py         
    34     -1.028301  1 C  dyz               60      0.719454  2 O  px         
   105     -0.719457  3 O  px                32     -0.639135  1 C  dxz        
    79     -0.155413  2 O  dyz              124     -0.155414  3 O  dyz        

 Vector   22  Occ=0.000000D+00  E= 2.167777D-01
              MO Center=  7.1D-15,  2.9D-15,  5.1D-07, r^2= 8.7D+00
   Bfn.  Coefficient  Atom+Function         Bfn.  Coefficient  Atom+Function  
  ----- ------------  ---------------      ----- ------------  ---------------
    59      5.793522  2 O  s                104     -5.793564  3 O  s          
    13     -4.303748  1 C  pz                62     -3.276345  2 O  pz         
   107     -3.276355  3 O  pz                55      1.094176  2 O  s          
   100     -1.094180  3 O  s                 58     -0.859739  2 O  pz         
   103     -0.859741  3 O  pz                 9     -0.350036  1 C  pz         

 Vector   23  Occ=0.000000D+00  E= 2.279497D-01
              MO Center=  4.2D-15, -3.7D-14, -5.7D-07, r^2= 2.9D+00
   Bfn.  Coefficient  Atom+Function         Bfn.  Coefficient  Atom+Function  
  ----- ------------  ---------------      ----- ------------  ---------------
    30      0.769750  1 C  dxx               33     -0.769750  1 C  dyy        

 Vector   24  Occ=0.000000D+00  E= 2.279499D-01
              MO Center=  1.0D-14, -2.4D-14, -5.7D-07, r^2= 2.9D+00
   Bfn.  Coefficient  Atom+Function         Bfn.  Coefficient  Atom+Function  
  ----- ------------  ---------------      ----- ------------  ---------------
    31      1.539501  1 C  dxy        

 Vector   25  Occ=0.000000D+00  E= 2.441680D-01
              MO Center=  1.7D-13,  3.1D-14,  1.7D-06, r^2= 9.9D+00
   Bfn.  Coefficient  Atom+Function         Bfn.  Coefficient  Atom+Function  
  ----- ------------  ---------------      ----- ------------  ---------------
    15      2.220638  1 C  px                60     -1.905519  2 O  px         
   105     -1.905519  3 O  px                11      0.521710  1 C  px         
    56      0.266253  2 O  px               101      0.266251  3 O  px         

 Vector   26  Occ=0.000000D+00  E= 2.441680D-01
              MO Center= -4.6D-15, -9.3D-14,  1.7D-06, r^2= 9.9D+00
   Bfn.  Coefficient  Atom+Function         Bfn.  Coefficient  Atom+Function  
  ----- ------------  ---------------      ----- ------------  ---------------
    16      2.220638  1 C  py                61     -1.905519  2 O  py         
   106     -1.905519  3 O  py                12      0.521710  1 C  py         
    57      0.266253  2 O  py               102      0.266251  3 O  py         

 Vector   27  Occ=0.000000D+00  E= 2.616059D-01
              MO Center= -1.8D-13,  1.2D-13, -8.1D-04, r^2= 8.2D+00
   Bfn.  Coefficient  Atom+Function         Bfn.  Coefficient  Atom+Function  
  ----- ------------  ---------------      ----- ------------  ---------------
    10      9.609571  1 C  s                 59     -7.521080  2 O  s          
   104     -7.524069  3 O  s                 14      5.007391  1 C  s          
    35      3.302217  1 C  dzz               55     -1.918024  2 O  s          
   100     -1.918198  3 O  s                 62      1.686854  2 O  pz         
   107     -1.686651  3 O  pz                58      0.976057  2 O  pz         

 Vector   28  Occ=0.000000D+00  E= 2.630054D-01
              MO Center=  3.8D-15, -1.0D-15,  8.1D-04, r^2= 1.2D+01
   Bfn.  Coefficient  Atom+Function         Bfn.  Coefficient  Atom+Function  
  ----- ------------  ---------------      ----- ------------  ---------------
    59      5.216006  2 O  s                104     -5.211799  3 O  s          
    17     -3.472541  1 C  pz                13     -1.601143  1 C  pz         
    58     -0.688043  2 O  pz               103     -0.687503  3 O  pz         
    62      0.372512  2 O  pz               107      0.373458  3 O  pz         
    51     -0.283054  2 O  s                 96      0.283057  3 O  s          

 Vector   29  Occ=0.000000D+00  E= 4.864486D-01
              MO Center=  6.3D-14,  4.9D-16, -2.5D-06, r^2= 4.2D+00
   Bfn.  Coefficient  Atom+Function         Bfn.  Coefficient  Atom+Function  
  ----- ------------  ---------------      ----- ------------  ---------------
    11      2.696492  1 C  px                60     -1.081914  2 O  px         
   105     -1.081919  3 O  px                 7     -0.822287  1 C  px         
    15      0.310377  1 C  px                77      0.302908  2 O  dxz        
   122     -0.302911  3 O  dxz               56     -0.274068  2 O  px         
   101     -0.274073  3 O  px                 3     -0.231586  1 C  px         

 Vector   30  Occ=0.000000D+00  E= 4.864486D-01
              MO Center= -1.9D-15, -7.7D-14, -2.5D-06, r^2= 4.2D+00
   Bfn.  Coefficient  Atom+Function         Bfn.  Coefficient  Atom+Function  
  ----- ------------  ---------------      ----- ------------  ---------------
    12      2.696492  1 C  py                61     -1.081914  2 O  py         
   106     -1.081919  3 O  py                 8     -0.822287  1 C  py         
    16      0.310377  1 C  py                79      0.302908  2 O  dyz        
   124     -0.302911  3 O  dyz               57     -0.274068  2 O  py         
   102     -0.274073  3 O  py                 4     -0.231586  1 C  py         

 Vector   31  Occ=0.000000D+00  E= 4.926711D-01
              MO Center= -6.7D-14,  8.5D-14, -1.9D-05, r^2= 7.1D+00
   Bfn.  Coefficient  Atom+Function         Bfn.  Coefficient  Atom+Function  
  ----- ------------  ---------------      ----- ------------  ---------------
    59      7.611869  2 O  s                104      7.612055  3 O  s          
    30     -4.235996  1 C  dxx               33     -4.235996  1 C  dyy        
    62     -3.228189  2 O  pz               107      3.228254  3 O  pz         
    35     -3.098551  1 C  dzz               14     -2.413228  1 C  s          
    10     -1.665753  1 C  s                 55     -1.624928  2 O  s          

 Vector   32  Occ=0.000000D+00  E= 5.447218D-01
              MO Center= -2.6D-15, -2.2D-13,  1.1D-06, r^2= 4.4D+00
   Bfn.  Coefficient  Atom+Function         Bfn.  Coefficient  Atom+Function  
  ----- ------------  ---------------      ----- ------------  ---------------
    34      5.299376  1 C  dyz               57     -1.246990  2 O  py         
   102      1.246992  3 O  py                61     -1.040967  2 O  py         
   106      1.040968  3 O  py                79      0.318952  2 O  dyz        
   124      0.318953  3 O  dyz               28      0.173024  1 C  dyz        
    53     -0.154259  2 O  py                98      0.154259  3 O  py         


 center of mass
 --------------
 x =   0.00000000 y =   0.00000000 z =   0.00000009

 moments of inertia (a.u.)
 ------------------
         152.272724607666           0.000000000000           0.000000000000
           0.000000000000         152.272724607666           0.000000000000
           0.000000000000           0.000000000000           0.000000000000

     Multipole analysis of the density
     ---------------------------------

     L   x y z        total         alpha         beta         nuclear
     -   - - -        -----         -----         ----         -------
     0   0 0 0     -0.000000    -11.000000    -11.000000     22.000000

     1   1 0 0     -0.000000     -0.000000     -0.000000      0.000000
     1   0 1 0      0.000000      0.000000      0.000000      0.000000
     1   0 0 1     -0.000002     -0.000002     -0.000002      0.000002

     2   2 0 0    -11.213434     -5.606717     -5.606717      0.000000
     2   1 1 0      0.000000      0.000000      0.000000      0.000000
     2   1 0 1      0.000000      0.000000      0.000000      0.000000
     2   0 2 0    -11.213434     -5.606717     -5.606717      0.000000
     2   0 1 1     -0.000000     -0.000000     -0.000000      0.000000
     2   0 0 2    -14.206740    -45.183666    -45.183666     76.160591


 Parallel integral file used     236 records with       0 large values


            General Information
            -------------------
          SCF calculation type: DFT
          Wavefunction type:  closed shell.
          No. of atoms     :     3
          No. of electrons :    22
           Alpha electrons :    11
            Beta electrons :    11
          Charge           :     0
          Spin multiplicity:     1
          Use of symmetry is: off; symmetry adaption is: off
          Maximum number of iterations: ***
          AO basis - number of functions:   135
                     number of shells:    39
          Convergence on energy requested: 1.00D-06
          Convergence on density requested: 1.00D-05
          Convergence on gradient requested: 5.00D-04

              XC Information
              --------------
                  TPSS metaGGA Exchange Functional  1.000          
             TPSS03 metaGGA Correlation Functional  1.000          

             Grid Information
             ----------------
          Grid used for XC integration:  medium    
          Radial quadrature: Mura-Knowles        
          Angular quadrature: Lebedev. 
          Tag              B.-S. Rad. Rad. Pts. Rad. Cut. Ang. Pts.
          ---              ---------- --------- --------- ---------
          C                   0.70       49           8.0       434
          O                   0.60       49           9.0       434
          Grid pruning is: on 
          Number of quadrature shells:   147
          Spatial weights used:  Erf1

          Convergence Information
          -----------------------
          Convergence aids based upon iterative change in 
          total energy or number of iterations. 
          Levelshifting, if invoked, occurs when the 
          HOMO/LUMO gap drops below (HL_TOL): 1.00D-02
          DIIS, if invoked, will attempt to extrapolate 
          using up to (NFOCK): 10 stored Fock matrices.

                    Damping( 0%)  Levelshifting(0.5)       DIIS
                  --------------- ------------------- ---------------
          dE  on:    start            ASAP                start   
          dE off:    2 iters        *** iters           *** iters 


      Screening Tolerance Information
      -------------------------------
          Density screening/tol_rho: 1.00D-10
          AO Gaussian exp screening on grid/accAOfunc:  14
          CD Gaussian exp screening on grid/accCDfunc:  20
          XC Gaussian exp screening on grid/accXCfunc:  20
          Schwarz screening/accCoul: 1.00D-08



                            NWChem DFT Gradient Module
                            --------------------------



  charge          =   0.00
  wavefunction    = closed shell



                         DFT ENERGY GRADIENTS

    atom               coordinates                        gradient
                 x          y          z           x          y          z
   1 C       0.000000   0.000000  -0.000001   -0.000000   0.000000  -0.000003
   2 O       0.000000   0.000000   2.181751    0.000000  -0.000000  -0.001391
   3 O       0.000000   0.000000  -2.181750    0.000000  -0.000000   0.001394

                 ----------------------------------------
                 |  Time  |  1-e(secs)   |  2-e(secs)   |
                 ----------------------------------------
                 |  CPU   |       0.00   |       0.62   |
                 ----------------------------------------
                 |  WALL  |       0.00   |       0.62   |
                 ----------------------------------------
                               NWChem STEPPER Module
                               ---------------------


   Step sought for minimum. 
   Actual energy difference is :    3.6368069066838871E-004
   2nd order predicted energy difference  was :   -8.7747536724359440E-005
   One of these is below the energy  tolerance:    1.0000000000000000E-004
   Backstepping possibilities are NO 
   longer considered appropriate. 
   Update Hessian used. 
   Dependent rotation vector no.                    3
   found in ECKART; linear geometry  assumed. 
   Number of modes removed with force (in the spectral representation)
   less than:   0.000000 is:    2
   PARTIT has partitioned the input hessian 
   and gradient into two subspaces;  An 
   "external" hessian and gradient composed 
   of                     5  independent translations 
   and rotations, and an "internal" hessian 
   and gradient with a dimension of                     2
               e-diff         g-norm     g-max   
 value        0.0003636807  0.001969  0.001394
 thres        0.0001000000  0.010000  0.000800
  trust radius =     0.10
   Calculating the Newton-Raphson step. 
  The length (norm) of the STEP is   0.001714

  The lowest few components in the bases 
  generated by the spectral decomposition 
  of the internal hessian (non-zero force). 

  Component  Hessian     Grad      Step   Scaled-Step
  ---------  --------  --------  -------- -----------
       1     0.10D+01  0.21D-06  -.21D-06  -.21D-06
       2     0.11D+01  -.20D-02  0.17D-02  0.17D-02

  Clean-up the step; truncate at:   0.000001
  In cartesian coordinates; norm of this step is:   0.001715
         Walk statistics for step:   2
     Previous actual total energy:  -0.188678124535D+03
      Current actual total energy:  -0.188677760855D+03
         Actual energy difference:   0.363680690668D-03 threshold:         0.100000D-03
    Second order energy predicted:  -0.877475367244D-04
             Ratio of differences:   0.241276314569D+00
               Fixed trust radius:   0.100000000000D+00
   Number of negative eigenvalues:   0
   Max absolute value of Gradient:   0.139399289654D-02 threshold:         0.800000D-03
                    Gradient norm:   0.196920386935D-02 threshold:         0.100000D-01
                RMS Gradient norm:   0.113692038406D-02
  Largest component of step v-tor:   0.171400000000D-02
  New 2nd order energy prediction:  -0.168799286331D-05



  ------------------- New geometry -------------------


                         Geometry "g-2-step" -> "g-2-step"
                         ---------------------------------

 Output coordinates in angstroms (scale by  1.889725989 to convert to a.u.)

  No.       Tag          Charge          X              Y              Z
 ---- ---------------- ---------- -------------- -------------- --------------
    1 C                    6.0000     0.00000000     0.00000000     0.00000106
    2 O                    8.0000     0.00000000     0.00000000     1.15517403
    3 O                    8.0000     0.00000000     0.00000000    -1.15517509

      Atomic Mass 
      ----------- 

      C                 12.000000
      O                 15.994910


 Effective nuclear repulsion energy (a.u.)      58.6358895398

            Nuclear Dipole moment (a.u.) 
            ----------------------------
        X                 Y               Z
 ---------------- ---------------- ----------------
     0.0000000000     0.0000000000    -0.0000040000

 ==============================================================================
                                internuclear distances
 ------------------------------------------------------------------------------
       center one      |      center two      | atomic units |  angstroms
 ------------------------------------------------------------------------------
    2 O                |   1 C                |     2.18296  |     1.15517
    3 O                |   1 C                |     2.18297  |     1.15518
 ------------------------------------------------------------------------------
                         number of included internuclear distances:          2
 ==============================================================================



 ==============================================================================
                                 internuclear angles
 ------------------------------------------------------------------------------
        center 1       |       center 2       |       center 3       |  degrees
 ------------------------------------------------------------------------------
    2 O                |   1 C                |   3 O                |   180.00
 ------------------------------------------------------------------------------
                            number of included internuclear angles:          1
 ==============================================================================




                                 NWChem DFT Module
                                 -----------------




 Summary of "ao basis" -> "ao basis" (cartesian)
 ------------------------------------------------------------------------------
       Tag                 Description            Shells   Functions and Types
 ---------------- ------------------------------  ------  ---------------------
 C                     6-311++G(3df,3pd)            13       45   5s4p3d1f
 O                     6-311++G(3df,3pd)            13       45   5s4p3d1f


  Caching 1-el integrals 

            General Information
            -------------------
          SCF calculation type: DFT
          Wavefunction type:  closed shell.
          No. of atoms     :     3
          No. of electrons :    22
           Alpha electrons :    11
            Beta electrons :    11
          Charge           :     0
          Spin multiplicity:     1
          Use of symmetry is: off; symmetry adaption is: off
          Maximum number of iterations: ***
          AO basis - number of functions:   135
                     number of shells:    39
          Convergence on energy requested: 1.00D-06
          Convergence on density requested: 1.00D-05
          Convergence on gradient requested: 5.00D-04

              XC Information
              --------------
                  TPSS metaGGA Exchange Functional  1.000          
             TPSS03 metaGGA Correlation Functional  1.000          

             Grid Information
             ----------------
          Grid used for XC integration:  medium    
          Radial quadrature: Mura-Knowles        
          Angular quadrature: Lebedev. 
          Tag              B.-S. Rad. Rad. Pts. Rad. Cut. Ang. Pts.
          ---              ---------- --------- --------- ---------
          C                   0.70       49           8.0       434
          O                   0.60       49           9.0       434
          Grid pruning is: on 
          Number of quadrature shells:   147
          Spatial weights used:  Erf1

          Convergence Information
          -----------------------
          Convergence aids based upon iterative change in 
          total energy or number of iterations. 
          Levelshifting, if invoked, occurs when the 
          HOMO/LUMO gap drops below (HL_TOL): 1.00D-02
          DIIS, if invoked, will attempt to extrapolate 
          using up to (NFOCK): 10 stored Fock matrices.

                    Damping( 0%)  Levelshifting(0.5)       DIIS
                  --------------- ------------------- ---------------
          dE  on:    start            ASAP                start   
          dE off:    2 iters        *** iters           *** iters 


[...]

 Vector   21  Occ=0.000000D+00  E= 1.680302D-01
              MO Center=  1.6D-15,  9.0D-15,  3.9D-07, r^2= 8.3D+00
   Bfn.  Coefficient  Atom+Function         Bfn.  Coefficient  Atom+Function  
  ----- ------------  ---------------      ----- ------------  ---------------
    61      1.350683  2 O  py               106     -1.350676  3 O  py         
    34     -1.199054  1 C  dyz               79     -0.181305  2 O  dyz        
   124     -0.181304  3 O  dyz               60      0.176654  2 O  px         
   105     -0.176653  3 O  px                32     -0.156822  1 C  dxz        

 Vector   22  Occ=0.000000D+00  E= 2.167212D-01
              MO Center= -2.3D-15, -8.9D-15, -2.1D-06, r^2= 8.7D+00
   Bfn.  Coefficient  Atom+Function         Bfn.  Coefficient  Atom+Function  
  ----- ------------  ---------------      ----- ------------  ---------------
    59      5.783118  2 O  s                104     -5.783139  3 O  s          
    13     -4.298957  1 C  pz                62     -3.272828  2 O  pz         
   107     -3.272831  3 O  pz                55      1.091680  2 O  s          
   100     -1.091692  3 O  s                 58     -0.859225  2 O  pz         
   103     -0.859231  3 O  pz                 9     -0.349848  1 C  pz         

 Vector   23  Occ=0.000000D+00  E= 2.279170D-01
              MO Center= -1.2D-14, -1.6D-16,  9.9D-07, r^2= 2.9D+00
   Bfn.  Coefficient  Atom+Function         Bfn.  Coefficient  Atom+Function  
  ----- ------------  ---------------      ----- ------------  ---------------
    30      0.769746  1 C  dxx               33     -0.769746  1 C  dyy        

 Vector   24  Occ=0.000000D+00  E= 2.279173D-01
              MO Center= -6.2D-15,  6.3D-15,  9.9D-07, r^2= 2.9D+00
   Bfn.  Coefficient  Atom+Function         Bfn.  Coefficient  Atom+Function  
  ----- ------------  ---------------      ----- ------------  ---------------
    31      1.539494  1 C  dxy        

 Vector   25  Occ=0.000000D+00  E= 2.441797D-01
              MO Center= -8.6D-15,  1.0D-13, -2.2D-06, r^2= 9.9D+00
   Bfn.  Coefficient  Atom+Function         Bfn.  Coefficient  Atom+Function  
  ----- ------------  ---------------      ----- ------------  ---------------
    16      2.194553  1 C  py                61     -1.883337  2 O  py         
   106     -1.883336  3 O  py                12      0.515251  1 C  py         
    15     -0.351934  1 C  px                60      0.302026  2 O  px         
   105      0.302026  3 O  px                57      0.263358  2 O  py         
   102      0.263361  3 O  py         

 Vector   26  Occ=0.000000D+00  E= 2.441797D-01
              MO Center=  3.6D-14, -5.0D-15, -2.2D-06, r^2= 9.9D+00
   Bfn.  Coefficient  Atom+Function         Bfn.  Coefficient  Atom+Function  
  ----- ------------  ---------------      ----- ------------  ---------------
    15      2.194553  1 C  px                60     -1.883337  2 O  px         
   105     -1.883336  3 O  px                11      0.515251  1 C  px         
    16      0.351934  1 C  py                61     -0.302026  2 O  py         
   106     -0.302026  3 O  py                56      0.263358  2 O  px         
   101      0.263361  3 O  px         

 Vector   27  Occ=0.000000D+00  E= 2.613479D-01
              MO Center= -7.8D-15, -1.0D-13,  5.8D-04, r^2= 8.2D+00
   Bfn.  Coefficient  Atom+Function         Bfn.  Coefficient  Atom+Function  
  ----- ------------  ---------------      ----- ------------  ---------------
    10      9.598693  1 C  s                 59     -7.517654  2 O  s          
   104     -7.515477  3 O  s                 14      5.008673  1 C  s          
    35      3.300977  1 C  dzz               55     -1.917520  2 O  s          
   100     -1.917395  3 O  s                 62      1.683999  2 O  pz         
   107     -1.684117  3 O  pz                58      0.977788  2 O  pz         

 Vector   28  Occ=0.000000D+00  E= 2.629846D-01
              MO Center= -6.3D-16, -1.8D-16, -5.7D-04, r^2= 1.2D+01
   Bfn.  Coefficient  Atom+Function         Bfn.  Coefficient  Atom+Function  
  ----- ------------  ---------------      ----- ------------  ---------------
    59      5.211659  2 O  s                104     -5.214653  3 O  s          
    17     -3.473113  1 C  pz                13     -1.598653  1 C  pz         
    58     -0.686767  2 O  pz               103     -0.687144  3 O  pz         
    62      0.372477  2 O  pz               107      0.371798  3 O  pz         
    51     -0.283289  2 O  s                 96      0.283288  3 O  s          

 Vector   29  Occ=0.000000D+00  E= 4.863474D-01
              MO Center= -1.7D-14,  1.4D-13,  3.2D-06, r^2= 4.2D+00
   Bfn.  Coefficient  Atom+Function         Bfn.  Coefficient  Atom+Function  
  ----- ------------  ---------------      ----- ------------  ---------------
    12      2.672100  1 C  py                61     -1.071303  2 O  py         
   106     -1.071295  3 O  py                 8     -0.816087  1 C  py         
    11     -0.353083  1 C  px                16      0.306157  1 C  py         
    79      0.299650  2 O  dyz              124     -0.299644  3 O  dyz        
    57     -0.271285  2 O  py               102     -0.271279  3 O  py         

 Vector   30  Occ=0.000000D+00  E= 4.863474D-01
              MO Center=  2.7D-13,  3.6D-14,  3.2D-06, r^2= 4.2D+00
   Bfn.  Coefficient  Atom+Function         Bfn.  Coefficient  Atom+Function  
  ----- ------------  ---------------      ----- ------------  ---------------
    11      2.672100  1 C  px                60     -1.071303  2 O  px         
   105     -1.071295  3 O  px                 7     -0.816087  1 C  px         
    12      0.353083  1 C  py                15      0.306157  1 C  px         
    77      0.299650  2 O  dxz              122     -0.299644  3 O  dxz        
    56     -0.271285  2 O  px               101     -0.271279  3 O  px         

 Vector   31  Occ=0.000000D+00  E= 4.924880D-01
              MO Center= -2.5D-13, -1.8D-13,  1.8D-06, r^2= 7.1D+00
   Bfn.  Coefficient  Atom+Function         Bfn.  Coefficient  Atom+Function  
  ----- ------------  ---------------      ----- ------------  ---------------
    59      7.614119  2 O  s                104      7.614036  3 O  s          
    30     -4.231452  1 C  dxx               33     -4.231452  1 C  dyy        
    62     -3.228840  2 O  pz               107      3.228814  3 O  pz         
    35     -3.100520  1 C  dzz               14     -2.415672  1 C  s          
    10     -1.687733  1 C  s                 55     -1.615662  2 O  s          

 Vector   32  Occ=0.000000D+00  E= 5.445007D-01
              MO Center= -4.3D-14,  8.1D-16, -2.4D-07, r^2= 4.4D+00
   Bfn.  Coefficient  Atom+Function         Bfn.  Coefficient  Atom+Function  
  ----- ------------  ---------------      ----- ------------  ---------------
    32      5.293238  1 C  dxz               56     -1.244925  2 O  px         
   101      1.244918  3 O  px                60     -1.039108  2 O  px         
   105      1.039103  3 O  px                77      0.317647  2 O  dxz        
   122      0.317645  3 O  dxz               26      0.172724  1 C  dxz        
    52     -0.154243  2 O  px                97      0.154243  3 O  px         


 center of mass
 --------------
 x =   0.00000000 y =   0.00000000 z =  -0.00000018

 moments of inertia (a.u.)
 ------------------
         152.442021646758           0.000000000000           0.000000000000
           0.000000000000         152.442021646758           0.000000000000
           0.000000000000           0.000000000000           0.000000000000

     Multipole analysis of the density
     ---------------------------------

     L   x y z        total         alpha         beta         nuclear
     -   - - -        -----         -----         ----         -------
     0   0 0 0     -0.000000    -11.000000    -11.000000     22.000000

     1   1 0 0     -0.000000     -0.000000     -0.000000      0.000000
     1   0 1 0      0.000000      0.000000      0.000000      0.000000
     1   0 0 1      0.000010      0.000007      0.000007     -0.000004

     2   2 0 0    -11.216172     -5.608086     -5.608086      0.000000
     2   1 1 0     -0.000000     -0.000000     -0.000000      0.000000
     2   1 0 1     -0.000000     -0.000000     -0.000000      0.000000
     2   0 2 0    -11.216172     -5.608086     -5.608086      0.000000
     2   0 1 1     -0.000000     -0.000000     -0.000000      0.000000
     2   0 0 2    -14.207868    -45.226567    -45.226567     76.245266


 Parallel integral file used     237 records with       0 large values


            General Information
            -------------------
          SCF calculation type: DFT
          Wavefunction type:  closed shell.
          No. of atoms     :     3
          No. of electrons :    22
           Alpha electrons :    11
            Beta electrons :    11
          Charge           :     0
          Spin multiplicity:     1
          Use of symmetry is: off; symmetry adaption is: off
          Maximum number of iterations: ***
          AO basis - number of functions:   135
                     number of shells:    39
          Convergence on energy requested: 1.00D-06
          Convergence on density requested: 1.00D-05
          Convergence on gradient requested: 5.00D-04

              XC Information
              --------------
                  TPSS metaGGA Exchange Functional  1.000          
             TPSS03 metaGGA Correlation Functional  1.000          

             Grid Information
             ----------------
          Grid used for XC integration:  medium    
          Radial quadrature: Mura-Knowles        
          Angular quadrature: Lebedev. 
          Tag              B.-S. Rad. Rad. Pts. Rad. Cut. Ang. Pts.
          ---              ---------- --------- --------- ---------
          C                   0.70       49           8.0       434
          O                   0.60       49           9.0       434
          Grid pruning is: on 
          Number of quadrature shells:   147
          Spatial weights used:  Erf1

          Convergence Information
          -----------------------
          Convergence aids based upon iterative change in 
          total energy or number of iterations. 
          Levelshifting, if invoked, occurs when the 
          HOMO/LUMO gap drops below (HL_TOL): 1.00D-02
          DIIS, if invoked, will attempt to extrapolate 
          using up to (NFOCK): 10 stored Fock matrices.

                    Damping( 0%)  Levelshifting(0.5)       DIIS
                  --------------- ------------------- ---------------
          dE  on:    start            ASAP                start   
          dE off:    2 iters        *** iters           *** iters 


      Screening Tolerance Information
      -------------------------------
          Density screening/tol_rho: 1.00D-10
          AO Gaussian exp screening on grid/accAOfunc:  14
          CD Gaussian exp screening on grid/accCDfunc:  20
          XC Gaussian exp screening on grid/accXCfunc:  20
          Schwarz screening/accCoul: 1.00D-08



                            NWChem DFT Gradient Module
                            --------------------------



  charge          =   0.00
  wavefunction    = closed shell



                         DFT ENERGY GRADIENTS

    atom               coordinates                        gradient
                 x          y          z           x          y          z
   1 C       0.000000   0.000000   0.000002    0.000000  -0.000000   0.000005
   2 O       0.000000   0.000000   2.182962   -0.000000   0.000000   0.000017
   3 O       0.000000   0.000000  -2.182964   -0.000000   0.000000  -0.000023

                 ----------------------------------------
                 |  Time  |  1-e(secs)   |  2-e(secs)   |
                 ----------------------------------------
                 |  CPU   |       0.00   |       0.63   |
                 ----------------------------------------
                 |  WALL  |       0.00   |       0.63   |
                 ----------------------------------------
                               NWChem STEPPER Module
                               ---------------------


   Step sought for minimum. 
   Actual energy difference is :   -5.7984251100151596E-005
   2nd order predicted energy difference  was :   -1.6879928633134052E-006
   One of these is below the energy  tolerance:    1.0000000000000000E-004
   Backstepping possibilities are NO 
   longer considered appropriate. 
   Update Hessian used. 
   Dependent rotation vector no.                    3
   found in ECKART; linear geometry  assumed. 
   Number of modes removed with force (in the spectral representation)
   less than:   0.000000 is:    2
   PARTIT has partitioned the input hessian 
   and gradient into two subspaces;  An 
   "external" hessian and gradient composed 
   of                     5  independent translations 
   and rotations, and an "internal" hessian 
   and gradient with a dimension of                     2
               e-diff         g-norm     g-max   
 value       -0.0000579843  0.000029  0.000023
 thres        0.0001000000  0.010000  0.000800
   ENERGY =   -188.67781883891297     
   The hessian exhibits the "proper" 
   structure, and the gradient and energy 
   convergence criterion has been met.  
   This geometry walk is HISTORY.
   Calculating the Newton-Raphson step. 
  The length (norm) of the STEP is   0.000025

  The lowest few components in the bases 
  generated by the spectral decomposition 
  of the internal hessian (non-zero force). 

  Component  Hessian     Grad      Step   Scaled-Step
  ---------  --------  --------  -------- -----------
       1     0.10D+01  0.60D-05  -.60D-05  -.60D-05
       2     0.12D+01  0.28D-04  -.24D-04  -.24D-04

  Clean-up the step; truncate at:   0.000001
  In cartesian coordinates; norm of this step is:   0.000025



  ---------------- Converged geometry ----------------


                         Geometry "g-3-step" -> "g-3-step"
                         ---------------------------------

 Output coordinates in angstroms (scale by  1.889725989 to convert to a.u.)

  No.       Tag          Charge          X              Y              Z
 ---- ---------------- ---------- -------------- -------------- --------------
    1 C                    6.0000     0.00000000     0.00000000     0.00000106
    2 O                    8.0000     0.00000000     0.00000000     1.15517403
    3 O                    8.0000     0.00000000     0.00000000    -1.15517509

      Atomic Mass 
      ----------- 

      C                 12.000000
      O                 15.994910


 Effective nuclear repulsion energy (a.u.)      58.6358895398

            Nuclear Dipole moment (a.u.) 
            ----------------------------
        X                 Y               Z
 ---------------- ---------------- ----------------
     0.0000000000     0.0000000000    -0.0000040000

 ==============================================================================
                                internuclear distances
 ------------------------------------------------------------------------------
       center one      |      center two      | atomic units |  angstroms
 ------------------------------------------------------------------------------
    2 O                |   1 C                |     2.18296  |     1.15517
    3 O                |   1 C                |     2.18297  |     1.15518
 ------------------------------------------------------------------------------
                         number of included internuclear distances:          2
 ==============================================================================



 ==============================================================================
                                 internuclear angles
 ------------------------------------------------------------------------------
        center 1       |       center 2       |       center 3       |  degrees
 ------------------------------------------------------------------------------
    2 O                |   1 C                |   3 O                |   180.00
 ------------------------------------------------------------------------------
                            number of included internuclear angles:          1
 ==============================================================================




 Task  times  cpu:        9.2s     wall:       11.4s


                                NWChem Input Module
                                -------------------


 Summary of allocated global arrays
-----------------------------------
  No active global arrays



                         GA Statistics for process    0
                         ------------------------------

       create   destroy   get      put      acc     scatter   gather  read&inc
calls:  443      443     4.12e+04 3329      766        0        0      270     
number of processes/call 1.21e+00 2.17e+00 4.59e+00 0.00e+00 0.00e+00
bytes total:             1.04e+08 1.42e+07 4.73e+07 0.00e+00 0.00e+00 2.16e+03
bytes remote:            8.81e+07 8.88e+06 4.10e+07 0.00e+00 0.00e+00 0.00e+00
Max memory consumed for GA by this process: 666040 bytes

MA_summarize_allocated_blocks: starting scan ...
MA_summarize_allocated_blocks: scan completed: 0 heap blocks, 0 stack blocks
MA usage statistics:

	allocation statistics:
					      heap	     stack
					      ----	     -----
	current number of blocks	         0	         0
	maximum number of blocks	        23	        51
	current total bytes		         0	         0
	maximum total bytes		  43838528	  42441576
	maximum total K-bytes		     43839	     42442
	maximum total M-bytes		        44	        43


                                     CITATION
                                     --------
                Please cite the following reference when publishing
                           results obtained with NWChem:

                 M. Valiev, E.J. Bylaska, N. Govind, K. Kowalski,
              T.P. Straatsma, H.J.J. van Dam, D. Wang, J. Nieplocha,
                        E. Apra, T.L. Windus, W.A. de Jong
                 "NWChem: a comprehensive and scalable open-source
                  solution for large scale molecular simulations"
                      Comput. Phys. Commun. 181, 1477 (2010)
                           doi:10.1016/j.cpc.2010.04.018

                                      AUTHORS
                                      -------
          E. Apra, E. J. Bylaska, W. A. de Jong, N. Govind, K. Kowalski,
       T. P. Straatsma, M. Valiev, H. J. J. van Dam, D. Wang, T. L. Windus,
        J. Hammond, J. Autschbach, K. Bhaskaran-Nair, J. Brabec, K. Lopata,
       S. A. Fischer, S. Krishnamoorthy, W. Ma, M. Klemm, O. Villa, Y. Chen,
    V. Anisimov, F. Aquino, S. Hirata, M. T. Hackler, T. Risthaus, M. Malagoli,
       A. Marenich, A. Otero-de-la-Roza, J. Mullin, P. Nichols, R. Peverati,
     J. Pittner, Y. Zhao, P.-D. Fan, A. Fonari, M. Williamson, R. J. Harrison,
       J. R. Rehr, M. Dupuis, D. Silverstein, D. M. A. Smith, J. Nieplocha,
        V. Tipparaju, M. Krishnan, B. E. Van Kuiken, A. Vazquez-Mayagoitia,
        L. Jensen, M. Swart, Q. Wu, T. Van Voorhis, A. A. Auer, M. Nooijen,
      L. D. Crosby, E. Brown, G. Cisneros, G. I. Fann, H. Fruchtl, J. Garza,
        K. Hirao, R. A. Kendall, J. A. Nichols, K. Tsemekhman, K. Wolinski,
     J. Anchell, D. E. Bernholdt, P. Borowski, T. Clark, D. Clerc, H. Dachsel,
   M. J. O. Deegan, K. Dyall, D. Elwood, E. Glendening, M. Gutowski, A. C. Hess,
         J. Jaffe, B. G. Johnson, J. Ju, R. Kobayashi, R. Kutteh, Z. Lin,
   R. Littlefield, X. Long, B. Meng, T. Nakajima, S. Niu, L. Pollack, M. Rosing,
   K. Glaesemann, G. Sandrone, M. Stave, H. Taylor, G. Thomas, J. H. van Lenthe,
                               A. T. Wong, Z. Zhang.

 Total times  cpu:        9.2s     wall:       11.6s
