[1537857222.617850] [r8n4:11322:0]         sys.c:744  MXM  WARN  Conflicting CPU frequencies detected, using: 1799.21
[1537857222.621482] [r8n4:11323:0]         sys.c:744  MXM  WARN  Conflicting CPU frequencies detected, using: 1799.21
[1537857222.632857] [r8n4:11325:0]         sys.c:744  MXM  WARN  Conflicting CPU frequencies detected, using: 1895.25
[1537857222.632891] [r8n4:11334:0]         sys.c:744  MXM  WARN  Conflicting CPU frequencies detected, using: 1895.25
[1537857222.633072] [r8n4:11326:0]         sys.c:744  MXM  WARN  Conflicting CPU frequencies detected, using: 1895.25
[1537857222.633128] [r8n4:11327:0]         sys.c:744  MXM  WARN  Conflicting CPU frequencies detected, using: 1895.25
[1537857222.633149] [r8n4:11324:0]         sys.c:744  MXM  WARN  Conflicting CPU frequencies detected, using: 1895.25
[1537857222.633198] [r8n4:11328:0]         sys.c:744  MXM  WARN  Conflicting CPU frequencies detected, using: 1895.25
[1537857222.633364] [r8n4:11332:0]         sys.c:744  MXM  WARN  Conflicting CPU frequencies detected, using: 1895.25
[1537857222.633395] [r8n4:11330:0]         sys.c:744  MXM  WARN  Conflicting CPU frequencies detected, using: 1895.25
[1537857222.640404] [r8n4:11338:0]         sys.c:744  MXM  WARN  Conflicting CPU frequencies detected, using: 1899.92
[1537857222.640440] [r8n4:11336:0]         sys.c:744  MXM  WARN  Conflicting CPU frequencies detected, using: 1899.92
[1537857222.658967] [r8n4:11348:0]         sys.c:744  MXM  WARN  Conflicting CPU frequencies detected, using: 2099.02
[1537857222.659073] [r8n4:11349:0]         sys.c:744  MXM  WARN  Conflicting CPU frequencies detected, using: 2099.02
[1537857222.659913] [r8n4:11340:0]         sys.c:744  MXM  WARN  Conflicting CPU frequencies detected, using: 2099.02
[1537857222.660299] [r8n4:11347:0]         sys.c:744  MXM  WARN  Conflicting CPU frequencies detected, using: 2099.02
 argument  1 = /storage/home/bikashp/nwchem_run/rabeet/mgbl19/nwmgbl19/F2.xyz.nw
                                         
                                         


              Northwest Computational Chemistry Package (NWChem) 6.6
              ------------------------------------------------------


                    Environmental Molecular Sciences Laboratory
                       Pacific Northwest National Laboratory
                                Richland, WA 99352

                              Copyright (c) 1994-2015
                       Pacific Northwest National Laboratory
                            Battelle Memorial Institute

             NWChem is an open-source computational chemistry package
                        distributed under the terms of the
                      Educational Community License (ECL) 2.0
             A copy of the license is included with this distribution
                              in the LICENSE.TXT file

                                  ACKNOWLEDGMENT
                                  --------------

            This software and its documentation were developed at the
            EMSL at Pacific Northwest National Laboratory, a multiprogram
            national laboratory, operated for the U.S. Department of Energy
            by Battelle under Contract Number DE-AC05-76RL01830. Support
            for this work was provided by the Department of Energy Office
            of Biological and Environmental Research, Office of Basic
            Energy Sciences, and the Office of Advanced Scientific Computing.


           Job information
           ---------------

    hostname        = r8n4.niserhpc.org
    program         = /home/bikashp/Code/nwchem-6.6_tpssloc/bin/LINUX64/nwchem
    date            = Tue Sep 25 12:03:45 2018

    compiled        = Tue_Sep_18_16:24:59_2018
    source          = /home/bikashp/Code/nwchem-6.6_tpssloc
    nwchem branch   = 6.6
    nwchem revision = 27746
    ga revision     = 10594
    input           = /storage/home/bikashp/nwchem_run/rabeet/mgbl19/nwmgbl19/F2.xyz.nw
    prefix          = F2.xyz.
    data base       = ./F2.xyz.db
    status          = startup
    nproc           =       16
    time left       =     -1s



           Memory information
           ------------------

    heap     =   13107196 doubles =    100.0 Mbytes
    stack    =   13107201 doubles =    100.0 Mbytes
    global   =   26214400 doubles =    200.0 Mbytes (distinct from heap & stack)
    total    =   52428797 doubles =    400.0 Mbytes
    verify   = yes
    hardfail = no 


           Directory information
           ---------------------

  0 permanent = .
  0 scratch   = .




                                NWChem Input Module
                                -------------------



 Scaling coordinates for geometry "geometry" by  1.889725989
 (inverse scale =  0.529177249)



                             Geometry "geometry" -> ""
                             -------------------------

 Output coordinates in angstroms (scale by  1.889725989 to convert to a.u.)

  No.       Tag          Charge          X              Y              Z
 ---- ---------------- ---------- -------------- -------------- --------------
    1 F                    9.0000     0.00000000     0.00000000    -0.69760000
    2 F                    9.0000     0.00000000     0.00000000     0.69760000

      Atomic Mass 
      ----------- 

      F                 18.998400


 Effective nuclear repulsion energy (a.u.)      30.7220163195

            Nuclear Dipole moment (a.u.) 
            ----------------------------
        X                 Y               Z
 ---------------- ---------------- ----------------
     0.0000000000     0.0000000000     0.0000000000


            XYZ format geometry
            -------------------
     2
 geometry
 F                     0.00000000     0.00000000    -0.69760000
 F                     0.00000000     0.00000000     0.69760000



 Summary of "ao basis" -> "" (cartesian)
 ------------------------------------------------------------------------------
       Tag                 Description            Shells   Functions and Types
 ---------------- ------------------------------  ------  ---------------------
 *                     6-311++G(3df,3pd)              on all atoms 




                           NWChem Geometry Optimization
                           ----------------------------



                                 NWChem DFT Module
                                 -----------------


                      Basis "ao basis" -> "ao basis" (cartesian)
                      -----
  F (Fluorine)
  ------------
            Exponent  Coefficients 
       -------------- ---------------------------------------------------------
  1 S  1.14271000E+04  0.001801
  1 S  1.72235000E+03  0.013742
  1 S  3.95746000E+02  0.068133
  1 S  1.15139000E+02  0.233325
  1 S  3.36026000E+01  0.589086
  1 S  4.91901000E+00  0.299505

  2 S  5.54441000E+01  0.114536
  2 S  1.26323000E+01  0.920512
  2 S  3.71756000E+00 -0.003378

  3 P  5.54441000E+01  0.035461
  3 P  1.26323000E+01  0.237451
  3 P  3.71756000E+00  0.820458

  4 S  1.16545000E+00  1.000000

  5 P  1.16545000E+00  1.000000

  6 S  3.21892000E-01  1.000000

  7 P  3.21892000E-01  1.000000

  8 S  1.07600000E-01  1.000000

  9 P  1.07600000E-01  1.000000

 10 D  7.00000000E+00  1.000000

 11 D  1.75000000E+00  1.000000

 12 D  4.37500000E-01  1.000000

 13 F  1.85000000E+00  1.000000



 Summary of "ao basis" -> "ao basis" (cartesian)
 ------------------------------------------------------------------------------
       Tag                 Description            Shells   Functions and Types
 ---------------- ------------------------------  ------  ---------------------
 F                     6-311++G(3df,3pd)            13       45   5s4p3d1f




 Summary of "ao basis" -> "ao basis" (cartesian)
 ------------------------------------------------------------------------------
       Tag                 Description            Shells   Functions and Types
 ---------------- ------------------------------  ------  ---------------------
 F                     6-311++G(3df,3pd)            13       45   5s4p3d1f


  Caching 1-el integrals 

            General Information
            -------------------
          SCF calculation type: DFT
          Wavefunction type:  closed shell.
          No. of atoms     :     2
          No. of electrons :    18
           Alpha electrons :     9
            Beta electrons :     9
          Charge           :     0
          Spin multiplicity:     1
          Use of symmetry is: off; symmetry adaption is: off
          Maximum number of iterations: ***
          AO basis - number of functions:    90
                     number of shells:    26
          Convergence on energy requested: 1.00D-06
          Convergence on density requested: 1.00D-05
          Convergence on gradient requested: 5.00D-04

              XC Information
              --------------
                  TPSS metaGGA Exchange Functional  1.000          
             TPSS03 metaGGA Correlation Functional  1.000          

             Grid Information
             ----------------
          Grid used for XC integration:  medium    
          Radial quadrature: Mura-Knowles        
          Angular quadrature: Lebedev. 
          Tag              B.-S. Rad. Rad. Pts. Rad. Cut. Ang. Pts.
          ---              ---------- --------- --------- ---------
          F                   0.50       49           7.0       434
          Grid pruning is: on 
          Number of quadrature shells:    98
          Spatial weights used:  Erf1

          Convergence Information
          -----------------------
          Convergence aids based upon iterative change in 
          total energy or number of iterations. 
          Levelshifting, if invoked, occurs when the 
          HOMO/LUMO gap drops below (HL_TOL): 1.00D-02
          DIIS, if invoked, will attempt to extrapolate 
          using up to (NFOCK): 10 stored Fock matrices.

                    Damping( 0%)  Levelshifting(0.5)       DIIS
                  --------------- ------------------- ---------------
          dE  on:    start            ASAP                start   
          dE off:    2 iters        *** iters           *** iters 


      Screening Tolerance Information
      -------------------------------
          Density screening/tol_rho: 1.00D-10
          AO Gaussian exp screening on grid/accAOfunc:  14
          CD Gaussian exp screening on grid/accCDfunc:  20
          XC Gaussian exp screening on grid/accXCfunc:  20
          Schwarz screening/accCoul: 1.00D-08


      Superposition of Atomic Density Guess
      -------------------------------------

 Sum of atomic energies:        -198.81574666

      Non-variational initial energy
      ------------------------------

 Total energy =    -198.589819
 1-e energy   =    -339.785097
 2-e energy   =     110.473262
 HOMO         =      -0.493824
 LUMO         =      -0.186399

   Time after variat. SCF:      0.2
   Time prior to 1st pass:      0.2

 Integral file          = ./F2.xyz.aoints.00
 Record size in doubles =    65536    No. of integs per rec  =    43688
 Max. records in memory =       18    Max. records in file   = 11666337
 No. of bits per label  =        8    No. of bits per value  =       64


 #quartets = 5.832D+04 #integrals = 2.078D+06 #direct =  0.0% #cached =100.0%


File balance: exchanges=     0  moved=     0  time=   0.0


 Grid_pts file          = ./F2.xyz.gridpts.00
 Record size in doubles =  12289        No. of grid_pts per rec  =   3070
 Max. records in memory =      2        Max. recs in file   =  62215407


           Memory utilization after 1st SCF pass: 
           Heap Space remaining (MW):       11.90            11900100
          Stack Space remaining (MW):       13.11            13106644

   convergence    iter        energy       DeltaE   RMS-Dens  Diis-err    time
 ---------------- ----- ----------------- --------- --------- ---------  ------
 d= 0,ls=0.0,diis     1   -199.5840392093 -2.30D+02  1.04D-02  1.10D+00     0.5
 d= 0,ls=0.0,diis     2   -199.6055825195 -2.15D-02  2.47D-03  1.92D-01     0.6
 d= 0,ls=0.0,diis     3   -199.5992358352  6.35D-03  1.06D-03  4.80D-02     0.7
 d= 0,ls=0.0,diis     4   -199.6090338764 -9.80D-03  1.78D-04  1.41D-03     0.7
 d= 0,ls=0.0,diis     5   -199.6077466337  1.29D-03  2.45D-05  2.64D-05     0.8
  Resetting Diis
 d= 0,ls=0.0,diis     6   -199.6078524765 -1.06D-04  2.22D-06  1.61D-07     0.9
 d= 0,ls=0.0,diis     7   -199.6078641357 -1.17D-05  2.72D-07  5.52D-10     0.9
 d= 0,ls=0.0,diis     8   -199.6078658851 -1.75D-06  1.06D-07  6.22D-10     1.0
 d= 0,ls=0.0,diis     9   -199.6078649872  8.98D-07  5.79D-09  9.51D-13     1.1


         Total DFT energy =     -199.607864987202
      One electron energy =     -338.563867617755
           Coulomb energy =      128.916738377081
          Exchange energy =      -20.048538610894
       Correlation energy =       -0.634213455140
 Nuclear repulsion energy =       30.722016319507

 Numeric. integr. density =       18.000000947198

     Total iterative time =      0.9s



                       DFT Final Molecular Orbital Analysis
                       ------------------------------------

 Vector    1  Occ=2.000000D+00  E=-2.460431D+01
              MO Center= -1.0D-16,  3.1D-17,  1.7D-04, r^2= 5.0D-01
   Bfn.  Coefficient  Atom+Function         Bfn.  Coefficient  Atom+Function  
  ----- ------------  ---------------      ----- ------------  ---------------
     1      0.386961  1 F  s                 46      0.387057  2 F  s          
     2      0.334190  1 F  s                 47      0.334273  2 F  s          

 Vector    2  Occ=2.000000D+00  E=-2.460431D+01
              MO Center= -1.2D-16, -4.1D-19, -1.7D-04, r^2= 5.0D-01
   Bfn.  Coefficient  Atom+Function         Bfn.  Coefficient  Atom+Function  
  ----- ------------  ---------------      ----- ------------  ---------------
     1      0.387054  1 F  s                 46     -0.386958  2 F  s          
     2      0.334302  1 F  s                 47     -0.334218  2 F  s          

 Vector    3  Occ=2.000000D+00  E=-1.355116D+00
              MO Center=  6.6D-16, -1.0D-16,  2.0D-10, r^2= 6.2D-01
   Bfn.  Coefficient  Atom+Function         Bfn.  Coefficient  Atom+Function  
  ----- ------------  ---------------      ----- ------------  ---------------
    10      0.505287  1 F  s                 55      0.505287  2 F  s          
     6      0.405156  1 F  s                 51      0.405156  2 F  s          
     2     -0.153563  1 F  s                 47     -0.153563  2 F  s          

 Vector    4  Occ=2.000000D+00  E=-1.105662D+00
              MO Center=  3.1D-16, -4.7D-16, -1.4D-10, r^2= 9.7D-01
   Bfn.  Coefficient  Atom+Function         Bfn.  Coefficient  Atom+Function  
  ----- ------------  ---------------      ----- ------------  ---------------
    10      0.627011  1 F  s                 55     -0.627011  2 F  s          
     6      0.457818  1 F  s                 51     -0.457818  2 F  s          
     2     -0.171318  1 F  s                 47      0.171318  2 F  s          

 Vector    5  Occ=2.000000D+00  E=-6.547429D-01
              MO Center= -1.6D-15, -1.0D-16,  9.4D-11, r^2= 1.1D+00
   Bfn.  Coefficient  Atom+Function         Bfn.  Coefficient  Atom+Function  
  ----- ------------  ---------------      ----- ------------  ---------------
     9      0.291033  1 F  pz                54     -0.291033  2 F  pz         
    10     -0.249930  1 F  s                 13      0.250908  1 F  pz         
    55     -0.249930  2 F  s                 58     -0.250908  2 F  pz         
     5      0.223644  1 F  pz                50     -0.223644  2 F  pz         

 Vector    6  Occ=2.000000D+00  E=-5.672890D-01
              MO Center= -2.2D-16, -7.8D-16,  4.1D-10, r^2= 8.9D-01
   Bfn.  Coefficient  Atom+Function         Bfn.  Coefficient  Atom+Function  
  ----- ------------  ---------------      ----- ------------  ---------------
     8      0.286578  1 F  py                53      0.286578  2 F  py         
    12      0.273773  1 F  py                57      0.273773  2 F  py         
     4      0.213329  1 F  py                49      0.213329  2 F  py         

 Vector    7  Occ=2.000000D+00  E=-5.672890D-01
              MO Center= -2.0D-17, -8.0D-16,  4.1D-10, r^2= 8.9D-01
   Bfn.  Coefficient  Atom+Function         Bfn.  Coefficient  Atom+Function  
  ----- ------------  ---------------      ----- ------------  ---------------
     7      0.286578  1 F  px                52      0.286578  2 F  px         
    11      0.273773  1 F  px                56      0.273773  2 F  px         
     3      0.213329  1 F  px                48      0.213329  2 F  px         

 Vector    8  Occ=2.000000D+00  E=-4.264046D-01
              MO Center= -3.1D-16, -9.4D-16, -4.0D-10, r^2= 9.5D-01
   Bfn.  Coefficient  Atom+Function         Bfn.  Coefficient  Atom+Function  
  ----- ------------  ---------------      ----- ------------  ---------------
     8      0.237995  1 F  py                12      0.237340  1 F  py         
    53     -0.237995  2 F  py                57     -0.237340  2 F  py         
     7      0.233871  1 F  px                11      0.233227  1 F  px         
    52     -0.233871  2 F  px                56     -0.233227  2 F  px         
     4      0.177144  1 F  py                49     -0.177144  2 F  py         

 Vector    9  Occ=2.000000D+00  E=-4.264046D-01
              MO Center=  3.0D-16,  5.0D-16, -4.0D-10, r^2= 9.5D-01
   Bfn.  Coefficient  Atom+Function         Bfn.  Coefficient  Atom+Function  
  ----- ------------  ---------------      ----- ------------  ---------------
     7      0.237995  1 F  px                11      0.237340  1 F  px         
    52     -0.237995  2 F  px                56     -0.237340  2 F  px         
     8     -0.233871  1 F  py                12     -0.233227  1 F  py         
    53      0.233871  2 F  py                57      0.233227  2 F  py         
     3      0.177144  1 F  px                48     -0.177144  2 F  px         

 Vector   10  Occ=0.000000D+00  E=-2.732398D-01
              MO Center= -1.4D-15, -1.6D-16, -1.6D-10, r^2= 9.5D-01
   Bfn.  Coefficient  Atom+Function         Bfn.  Coefficient  Atom+Function  
  ----- ------------  ---------------      ----- ------------  ---------------
    13      0.406607  1 F  pz                58      0.406607  2 F  pz         
     9      0.363628  1 F  pz                54      0.363628  2 F  pz         
     5      0.268070  1 F  pz                50      0.268070  2 F  pz         
    10      0.218610  1 F  s                 55     -0.218610  2 F  s          
     6      0.185941  1 F  s                 51     -0.185941  2 F  s          

 Vector   11  Occ=0.000000D+00  E= 8.335695D-02
              MO Center=  1.1D-14,  1.4D-14,  3.9D-10, r^2= 4.1D+00
   Bfn.  Coefficient  Atom+Function         Bfn.  Coefficient  Atom+Function  
  ----- ------------  ---------------      ----- ------------  ---------------
    14      1.007943  1 F  s                 59      1.007943  2 F  s          
     6     -0.252328  1 F  s                 51     -0.252328  2 F  s          
    10     -0.247834  1 F  s                 55     -0.247834  2 F  s          
    35     -0.169637  1 F  dzz               80     -0.169637  2 F  dzz        
    17     -0.161517  1 F  pz                62      0.161517  2 F  pz         

 Vector   12  Occ=0.000000D+00  E= 1.471050D-01
              MO Center=  6.2D-15,  3.7D-15, -1.6D-10, r^2= 5.9D+00
   Bfn.  Coefficient  Atom+Function         Bfn.  Coefficient  Atom+Function  
  ----- ------------  ---------------      ----- ------------  ---------------
    17      1.446543  1 F  pz                62      1.446543  2 F  pz         
    14      1.182129  1 F  s                 59     -1.182129  2 F  s          
    13     -0.385384  1 F  pz                58     -0.385384  2 F  pz         

 Vector   13  Occ=0.000000D+00  E= 1.700609D-01
              MO Center=  1.5D-15, -1.2D-14,  2.1D-10, r^2= 4.2D+00
   Bfn.  Coefficient  Atom+Function         Bfn.  Coefficient  Atom+Function  
  ----- ------------  ---------------      ----- ------------  ---------------
    16      0.683087  1 F  py                61      0.683087  2 F  py         
    12     -0.290099  1 F  py                57     -0.290099  2 F  py         

 Vector   14  Occ=0.000000D+00  E= 1.700609D-01
              MO Center= -1.2D-14, -7.9D-16,  2.1D-10, r^2= 4.2D+00
   Bfn.  Coefficient  Atom+Function         Bfn.  Coefficient  Atom+Function  
  ----- ------------  ---------------      ----- ------------  ---------------
    15      0.683087  1 F  px                60      0.683087  2 F  px         
    11     -0.290099  1 F  px                56     -0.290099  2 F  px         

 Vector   15  Occ=0.000000D+00  E= 2.369132D-01
              MO Center= -4.7D-16, -3.2D-15, -1.8D-10, r^2= 5.0D+00
   Bfn.  Coefficient  Atom+Function         Bfn.  Coefficient  Atom+Function  
  ----- ------------  ---------------      ----- ------------  ---------------
    17      1.113619  1 F  pz                62     -1.113619  2 F  pz         
    13     -0.238328  1 F  pz                58      0.238328  2 F  pz         
    10     -0.181783  1 F  s                 55     -0.181783  2 F  s          

 Vector   16  Occ=0.000000D+00  E= 2.539157D-01
              MO Center= -1.9D-16,  2.2D-15, -2.1D-10, r^2= 5.4D+00
   Bfn.  Coefficient  Atom+Function         Bfn.  Coefficient  Atom+Function  
  ----- ------------  ---------------      ----- ------------  ---------------
    16      1.473032  1 F  py                61     -1.473032  2 F  py         
    12     -0.298851  1 F  py                57      0.298851  2 F  py         

 Vector   17  Occ=0.000000D+00  E= 2.539157D-01
              MO Center= -6.4D-15, -1.6D-16, -2.1D-10, r^2= 5.4D+00
   Bfn.  Coefficient  Atom+Function         Bfn.  Coefficient  Atom+Function  
  ----- ------------  ---------------      ----- ------------  ---------------
    15      1.473032  1 F  px                60     -1.473032  2 F  px         
    11     -0.298851  1 F  px                56      0.298851  2 F  px         

 Vector   18  Occ=0.000000D+00  E= 3.909542D-01
              MO Center=  5.6D-15, -7.2D-15, -5.8D-11, r^2= 5.6D+00
   Bfn.  Coefficient  Atom+Function         Bfn.  Coefficient  Atom+Function  
  ----- ------------  ---------------      ----- ------------  ---------------
    14     10.195480  1 F  s                 59    -10.195480  2 F  s          
    17      4.449438  1 F  pz                62      4.449438  2 F  pz         
    10     -0.401724  1 F  s                 55      0.401724  2 F  s          
    35     -0.357632  1 F  dzz               80      0.357632  2 F  dzz        
    30     -0.296811  1 F  dxx               33     -0.296811  1 F  dyy        

 Vector   19  Occ=0.000000D+00  E= 7.645640D-01
              MO Center= -7.5D-15, -1.6D-14,  8.2D-11, r^2= 1.5D+00
   Bfn.  Coefficient  Atom+Function         Bfn.  Coefficient  Atom+Function  
  ----- ------------  ---------------      ----- ------------  ---------------
    31      1.107770  1 F  dxy               76      1.107770  2 F  dxy        


 center of mass
 --------------
 x =   0.00000000 y =   0.00000000 z =   0.00000000

 moments of inertia (a.u.)
 ------------------
          66.032484532483           0.000000000000           0.000000000000
           0.000000000000          66.032484532483           0.000000000000
           0.000000000000           0.000000000000           0.000000000000

     Multipole analysis of the density
     ---------------------------------

     L   x y z        total         alpha         beta         nuclear
     -   - - -        -----         -----         ----         -------
     0   0 0 0     -0.000000     -9.000000     -9.000000     18.000000

     1   1 0 0      0.000000      0.000000      0.000000      0.000000
     1   0 1 0      0.000000      0.000000      0.000000      0.000000
     1   0 0 1     -0.000000     -0.000000     -0.000000      0.000000

     2   2 0 0     -7.334593     -3.667297     -3.667297      0.000000
     2   1 1 0     -0.000000     -0.000000     -0.000000      0.000000
     2   1 0 1     -0.000000     -0.000000     -0.000000      0.000000
     2   0 2 0     -7.334593     -3.667297     -3.667297      0.000000
     2   0 1 1     -0.000000     -0.000000     -0.000000      0.000000
     2   0 0 2     -6.461276    -18.871228    -18.871228     31.281180


 Parallel integral file used      56 records with       0 large values


            General Information
            -------------------
          SCF calculation type: DFT
          Wavefunction type:  closed shell.
          No. of atoms     :     2
          No. of electrons :    18
           Alpha electrons :     9
            Beta electrons :     9
          Charge           :     0
          Spin multiplicity:     1
          Use of symmetry is: off; symmetry adaption is: off
          Maximum number of iterations: ***
          AO basis - number of functions:    90
                     number of shells:    26
          Convergence on energy requested: 1.00D-06
          Convergence on density requested: 1.00D-05
          Convergence on gradient requested: 5.00D-04

              XC Information
              --------------
                  TPSS metaGGA Exchange Functional  1.000          
             TPSS03 metaGGA Correlation Functional  1.000          

             Grid Information
             ----------------
          Grid used for XC integration:  medium    
          Radial quadrature: Mura-Knowles        
          Angular quadrature: Lebedev. 
          Tag              B.-S. Rad. Rad. Pts. Rad. Cut. Ang. Pts.
          ---              ---------- --------- --------- ---------
          F                   0.50       49           7.0       434
          Grid pruning is: on 
          Number of quadrature shells:    98
          Spatial weights used:  Erf1

          Convergence Information
          -----------------------
          Convergence aids based upon iterative change in 
          total energy or number of iterations. 
          Levelshifting, if invoked, occurs when the 
          HOMO/LUMO gap drops below (HL_TOL): 1.00D-02
          DIIS, if invoked, will attempt to extrapolate 
          using up to (NFOCK): 10 stored Fock matrices.

                    Damping( 0%)  Levelshifting(0.5)       DIIS
                  --------------- ------------------- ---------------
          dE  on:    start            ASAP                start   
          dE off:    2 iters        *** iters           *** iters 


      Screening Tolerance Information
      -------------------------------
          Density screening/tol_rho: 1.00D-10
          AO Gaussian exp screening on grid/accAOfunc:  14
          CD Gaussian exp screening on grid/accCDfunc:  20
          XC Gaussian exp screening on grid/accXCfunc:  20
          Schwarz screening/accCoul: 1.00D-08



                            NWChem DFT Gradient Module
                            --------------------------



  charge          =   0.00
  wavefunction    = closed shell



                         DFT ENERGY GRADIENTS

    atom               coordinates                        gradient
                 x          y          z           x          y          z
   1 F       0.000000   0.000000  -1.318273    0.000000  -0.000000  -0.051911
   2 F       0.000000   0.000000   1.318273   -0.000000   0.000000   0.051911

                 ----------------------------------------
                 |  Time  |  1-e(secs)   |  2-e(secs)   |
                 ----------------------------------------
                 |  CPU   |       0.00   |       0.12   |
                 ----------------------------------------
                 |  WALL  |       0.00   |       0.13   |
                 ----------------------------------------
                               NWChem STEPPER Module
                               ---------------------


   Step sought for minimum. 
   Update Hessian used. 
   Nuclear Hessian initialized with UNIT matrix. 
   Dependent rotation vector no.                    3
   found in ECKART; linear geometry  assumed. 
   Number of modes removed with force (in the spectral representation)
   less than:   0.000000 is:    0
   PARTIT has partitioned the input hessian 
   and gradient into two subspaces;  An 
   "external" hessian and gradient composed 
   of                     5  independent translations 
   and rotations, and an "internal" hessian 
   and gradient with a dimension of                     1
               e-diff         g-norm     g-max   
 value     -199.6078649872  0.073413  0.051911
 thres        0.0001000000  0.010000  0.000800
  trust radius =     0.10
   Calculating the Newton-Raphson step. 
  The length (norm) of the STEP is   0.073413

  The lowest few components in the bases 
  generated by the spectral decomposition 
  of the internal hessian (non-zero force). 

  Component  Hessian     Grad      Step   Scaled-Step
  ---------  --------  --------  -------- -----------
       1     0.10D+01  -.73D-01  0.73D-01  0.73D-01

  Clean-up the step; truncate at:   0.000001
  In cartesian coordinates; norm of this step is:   0.073413
         Walk statistics for step:   1
     Previous actual total energy:   0.000000000000D+00
      Current actual total energy:  -0.199607864987D+03
         Actual energy difference:  -0.199607864987D+03 threshold:         0.100000D-03
    Second order energy predicted:   0.000000000000D+00
             Ratio of differences:   0.000000000000D+00
               Fixed trust radius:   0.100000000000D+00
   Number of negative eigenvalues:   0
   Max absolute value of Gradient:   0.519105222089D-01 threshold:         0.800000D-03
                    Gradient norm:   0.734125645377D-01 threshold:         0.100000D-01
                RMS Gradient norm:   0.519105222089D-01
  Largest component of step v-tor:   0.734130000000D-01
  New 2nd order energy prediction:  -0.269470231590D-02



  ------------------- New geometry -------------------


                         Geometry "g-1-step" -> "g-1-step"
                         ---------------------------------

 Output coordinates in angstroms (scale by  1.889725989 to convert to a.u.)

  No.       Tag          Charge          X              Y              Z
 ---- ---------------- ---------- -------------- -------------- --------------
    1 F                    9.0000     0.00000000     0.00000000    -0.67012988
    2 F                    9.0000     0.00000000     0.00000000     0.67012988

      Atomic Mass 
      ----------- 

      F                 18.998400


 Effective nuclear repulsion energy (a.u.)      31.9813803706

            Nuclear Dipole moment (a.u.) 
            ----------------------------
        X                 Y               Z
 ---------------- ---------------- ----------------
     0.0000000000     0.0000000000     0.0000000000


                                 NWChem DFT Module
                                 -----------------




 Summary of "ao basis" -> "ao basis" (cartesian)
 ------------------------------------------------------------------------------
       Tag                 Description            Shells   Functions and Types
 ---------------- ------------------------------  ------  ---------------------
 F                     6-311++G(3df,3pd)            13       45   5s4p3d1f


  Caching 1-el integrals 

            General Information
            -------------------
          SCF calculation type: DFT
          Wavefunction type:  closed shell.
          No. of atoms     :     2
          No. of electrons :    18
           Alpha electrons :     9
            Beta electrons :     9
          Charge           :     0
          Spin multiplicity:     1
          Use of symmetry is: off; symmetry adaption is: off
          Maximum number of iterations: ***
          AO basis - number of functions:    90
                     number of shells:    26
          Convergence on energy requested: 1.00D-06
          Convergence on density requested: 1.00D-05
          Convergence on gradient requested: 5.00D-04

              XC Information
              --------------
                  TPSS metaGGA Exchange Functional  1.000          
             TPSS03 metaGGA Correlation Functional  1.000          

             Grid Information
             ----------------
          Grid used for XC integration:  medium    
          Radial quadrature: Mura-Knowles        
          Angular quadrature: Lebedev. 
          Tag              B.-S. Rad. Rad. Pts. Rad. Cut. Ang. Pts.
          ---              ---------- --------- --------- ---------
          F                   0.50       49           7.0       434
          Grid pruning is: on 
          Number of quadrature shells:    98
          Spatial weights used:  Erf1

          Convergence Information
          -----------------------
          Convergence aids based upon iterative change in 
          total energy or number of iterations. 
          Levelshifting, if invoked, occurs when the 
          HOMO/LUMO gap drops below (HL_TOL): 1.00D-02
          DIIS, if invoked, will attempt to extrapolate 
          using up to (NFOCK): 10 stored Fock matrices.

                    Damping( 0%)  Levelshifting(0.5)       DIIS
                  --------------- ------------------- ---------------
          dE  on:    start            ASAP                start   
          dE off:    2 iters        *** iters           *** iters 


      Screening Tolerance Information
      -------------------------------
          Density screening/tol_rho: 1.00D-10
          AO Gaussian exp screening on grid/accAOfunc:  14
          CD Gaussian exp screening on grid/accCDfunc:  20
          XC Gaussian exp screening on grid/accXCfunc:  20
          Schwarz screening/accCoul: 1.00D-08


 Loading old vectors from job with title :



   Time after variat. SCF:      1.4
   Time prior to 1st pass:      1.4

 Integral file          = ./F2.xyz.aoints.00
 Record size in doubles =    65536    No. of integs per rec  =    43688
 Max. records in memory =       18    Max. records in file   = 11665934
 No. of bits per label  =        8    No. of bits per value  =       64


 #quartets = 5.990D+04 #integrals = 2.122D+06 #direct =  0.0% #cached =100.0%


File balance: exchanges=     0  moved=     0  time=   0.0


 Grid_pts file          = ./F2.xyz.gridpts.00
 Record size in doubles =  12289        No. of grid_pts per rec  =   3070
 Max. records in memory =      2        Max. recs in file   =  62213258


           Memory utilization after 1st SCF pass: 
           Heap Space remaining (MW):       11.90            11900100
          Stack Space remaining (MW):       13.11            13106644

   convergence    iter        energy       DeltaE   RMS-Dens  Diis-err    time
 ---------------- ----- ----------------- --------- --------- ---------  ------
 d= 0,ls=0.0,diis     1   -199.6028049754 -2.32D+02  6.63D-04  1.36D-02     1.8
 d= 0,ls=0.0,diis     2   -199.6049937648 -2.19D-03  1.21D-04  1.76D-04     1.9
 d= 0,ls=0.0,diis     3   -199.6042464363  7.47D-04  5.15D-05  1.20D-04     1.9
 d= 0,ls=0.0,diis     4   -199.6046682082 -4.22D-04  6.11D-06  1.82D-06     2.0
 d= 0,ls=0.0,diis     5   -199.6046201388  4.81D-05  9.02D-07  2.13D-08     2.1
 d= 0,ls=0.0,diis     6   -199.6046228932 -2.75D-06  2.48D-07  2.82D-09     2.2
 d= 0,ls=0.0,diis     7   -199.6046227532  1.40D-07  9.03D-09  1.97D-12     2.2


         Total DFT energy =     -199.604622753218
      One electron energy =     -341.013587694645
           Coulomb energy =      130.143420835899
          Exchange energy =      -20.077834617511
       Correlation energy =       -0.638001647607
 Nuclear repulsion energy =       31.981380370645

 Numeric. integr. density =       17.999996804359

     Total iterative time =      0.8s



                       DFT Final Molecular Orbital Analysis
                       ------------------------------------

 Vector    1  Occ=2.000000D+00  E=-2.460042D+01
              MO Center=  6.8D-17,  5.5D-17, -1.5D-02, r^2= 4.6D-01
   Bfn.  Coefficient  Atom+Function         Bfn.  Coefficient  Atom+Function  
  ----- ------------  ---------------      ----- ------------  ---------------
     1      0.391299  1 F  s                 46      0.382659  2 F  s          
     2      0.337935  1 F  s                 47      0.330473  2 F  s          

 Vector    2  Occ=2.000000D+00  E=-2.460042D+01
              MO Center=  8.1D-17,  6.5D-17,  1.5D-02, r^2= 4.6D-01
   Bfn.  Coefficient  Atom+Function         Bfn.  Coefficient  Atom+Function  
  ----- ------------  ---------------      ----- ------------  ---------------
    46     -0.391295  2 F  s                  1      0.382655  1 F  s          
    47     -0.337975  2 F  s                  2      0.330513  1 F  s          

 Vector    3  Occ=2.000000D+00  E=-1.384151D+00
              MO Center=  2.5D-15, -4.8D-15, -3.6D-08, r^2= 5.7D-01
   Bfn.  Coefficient  Atom+Function         Bfn.  Coefficient  Atom+Function  
  ----- ------------  ---------------      ----- ------------  ---------------
    10      0.492521  1 F  s                 55      0.492521  2 F  s          
     6      0.400934  1 F  s                 51      0.400934  2 F  s          
     2     -0.152201  1 F  s                 47     -0.152201  2 F  s          

 Vector    4  Occ=2.000000D+00  E=-1.090903D+00
              MO Center=  3.7D-16, -4.5D-15,  1.9D-08, r^2= 9.4D-01
   Bfn.  Coefficient  Atom+Function         Bfn.  Coefficient  Atom+Function  
  ----- ------------  ---------------      ----- ------------  ---------------
    10      0.634269  1 F  s                 55     -0.634269  2 F  s          
     6      0.456643  1 F  s                 51     -0.456643  2 F  s          
     2     -0.171122  1 F  s                 47      0.171122  2 F  s          

 Vector    5  Occ=2.000000D+00  E=-6.621489D-01
              MO Center= -2.3D-15,  2.5D-15, -1.3D-08, r^2= 1.0D+00
   Bfn.  Coefficient  Atom+Function         Bfn.  Coefficient  Atom+Function  
  ----- ------------  ---------------      ----- ------------  ---------------
     9      0.292113  1 F  pz                54     -0.292113  2 F  pz         
    10     -0.272477  1 F  s                 55     -0.272477  2 F  s          
    13      0.245518  1 F  pz                58     -0.245518  2 F  pz         
     5      0.223435  1 F  pz                50     -0.223435  2 F  pz         

 Vector    6  Occ=2.000000D+00  E=-5.796010D-01
              MO Center=  1.3D-15, -2.4D-15, -7.9D-08, r^2= 8.5D-01
   Bfn.  Coefficient  Atom+Function         Bfn.  Coefficient  Atom+Function  
  ----- ------------  ---------------      ----- ------------  ---------------
     8      0.275701  1 F  py                53      0.275701  2 F  py         
    12      0.260760  1 F  py                57      0.260760  2 F  py         
     4      0.204979  1 F  py                49      0.204979  2 F  py         

 Vector    7  Occ=2.000000D+00  E=-5.796010D-01
              MO Center=  1.4D-15, -1.6D-15, -7.9D-08, r^2= 8.5D-01
   Bfn.  Coefficient  Atom+Function         Bfn.  Coefficient  Atom+Function  
  ----- ------------  ---------------      ----- ------------  ---------------
     7      0.275701  1 F  px                52      0.275701  2 F  px         
    11      0.260760  1 F  px                56      0.260760  2 F  px         
     3      0.204979  1 F  px                48      0.204979  2 F  px         

 Vector    8  Occ=2.000000D+00  E=-4.164709D-01
              MO Center= -7.2D-16,  7.7D-16,  7.7D-08, r^2= 9.1D-01
   Bfn.  Coefficient  Atom+Function         Bfn.  Coefficient  Atom+Function  
  ----- ------------  ---------------      ----- ------------  ---------------
    12      0.319951  1 F  py                57     -0.319951  2 F  py         
     8      0.317141  1 F  py                53     -0.317141  2 F  py         
     4      0.235865  1 F  py                49     -0.235865  2 F  py         

 Vector    9  Occ=2.000000D+00  E=-4.164709D-01
              MO Center=  3.4D-15, -6.7D-16,  7.7D-08, r^2= 9.1D-01
   Bfn.  Coefficient  Atom+Function         Bfn.  Coefficient  Atom+Function  
  ----- ------------  ---------------      ----- ------------  ---------------
    11      0.319951  1 F  px                56     -0.319951  2 F  px         
     7      0.317141  1 F  px                52     -0.317141  2 F  px         
     3      0.235865  1 F  px                48     -0.235865  2 F  px         

 Vector   10  Occ=0.000000D+00  E=-2.329660D-01
              MO Center= -5.5D-16, -3.6D-16,  3.0D-08, r^2= 9.3D-01
   Bfn.  Coefficient  Atom+Function         Bfn.  Coefficient  Atom+Function  
  ----- ------------  ---------------      ----- ------------  ---------------
    13      0.405638  1 F  pz                58      0.405638  2 F  pz         
     9      0.365127  1 F  pz                54      0.365127  2 F  pz         
     5      0.268910  1 F  pz                50      0.268910  2 F  pz         
    10      0.258778  1 F  s                 55     -0.258778  2 F  s          
     6      0.203263  1 F  s                 51     -0.203263  2 F  s          

 Vector   11  Occ=0.000000D+00  E= 8.381423D-02
              MO Center= -2.9D-15, -1.9D-14, -8.7D-08, r^2= 4.0D+00
   Bfn.  Coefficient  Atom+Function         Bfn.  Coefficient  Atom+Function  
  ----- ------------  ---------------      ----- ------------  ---------------
    14      1.003269  1 F  s                 59      1.003269  2 F  s          
     6     -0.249956  1 F  s                 51     -0.249956  2 F  s          
    10     -0.242947  1 F  s                 55     -0.242947  2 F  s          
    35     -0.171088  1 F  dzz               80     -0.171088  2 F  dzz        
    17     -0.160559  1 F  pz                62      0.160559  2 F  pz         

 Vector   12  Occ=0.000000D+00  E= 1.493174D-01
              MO Center=  1.8D-14, -6.1D-15,  3.0D-08, r^2= 5.9D+00
   Bfn.  Coefficient  Atom+Function         Bfn.  Coefficient  Atom+Function  
  ----- ------------  ---------------      ----- ------------  ---------------
    17      1.554166  1 F  pz                62      1.554166  2 F  pz         
    14      1.505406  1 F  s                 59     -1.505406  2 F  s          
    13     -0.484600  1 F  pz                58     -0.484600  2 F  pz         

 Vector   13  Occ=0.000000D+00  E= 1.698874D-01
              MO Center=  6.6D-15, -2.2D-15, -4.7D-08, r^2= 4.2D+00
   Bfn.  Coefficient  Atom+Function         Bfn.  Coefficient  Atom+Function  
  ----- ------------  ---------------      ----- ------------  ---------------
    15      0.652089  1 F  px                60      0.652089  2 F  px         
    11     -0.275555  1 F  px                56     -0.275554  2 F  px         
    16     -0.201308  1 F  py                61     -0.201308  2 F  py         

 Vector   14  Occ=0.000000D+00  E= 1.698874D-01
              MO Center=  5.3D-15,  1.7D-14, -4.7D-08, r^2= 4.2D+00
   Bfn.  Coefficient  Atom+Function         Bfn.  Coefficient  Atom+Function  
  ----- ------------  ---------------      ----- ------------  ---------------
    16      0.652089  1 F  py                61      0.652089  2 F  py         
    12     -0.275555  1 F  py                57     -0.275554  2 F  py         
    15      0.201308  1 F  px                60      0.201308  2 F  px         

 Vector   15  Occ=0.000000D+00  E= 2.363707D-01
              MO Center= -8.9D-15,  2.1D-15,  4.3D-08, r^2= 5.0D+00
   Bfn.  Coefficient  Atom+Function         Bfn.  Coefficient  Atom+Function  
  ----- ------------  ---------------      ----- ------------  ---------------
    17      1.139458  1 F  pz                62     -1.139458  2 F  pz         
    13     -0.220525  1 F  pz                58      0.220525  2 F  pz         
    10     -0.179686  1 F  s                 55     -0.179686  2 F  s          

 Vector   16  Occ=0.000000D+00  E= 2.554102D-01
              MO Center= -1.4D-14,  6.4D-15,  4.7D-08, r^2= 5.4D+00
   Bfn.  Coefficient  Atom+Function         Bfn.  Coefficient  Atom+Function  
  ----- ------------  ---------------      ----- ------------  ---------------
    15      1.376372  1 F  px                60     -1.376372  2 F  px         
    16     -0.642667  1 F  py                61      0.642667  2 F  py         
    11     -0.273141  1 F  px                56      0.273141  2 F  px         

 Vector   17  Occ=0.000000D+00  E= 2.554102D-01
              MO Center=  6.5D-16,  2.2D-15,  4.7D-08, r^2= 5.4D+00
   Bfn.  Coefficient  Atom+Function         Bfn.  Coefficient  Atom+Function  
  ----- ------------  ---------------      ----- ------------  ---------------
    16      1.376372  1 F  py                61     -1.376372  2 F  py         
    15      0.642667  1 F  px                60     -0.642667  2 F  px         
    12     -0.273141  1 F  py                57      0.273141  2 F  py         

 Vector   18  Occ=0.000000D+00  E= 3.942989D-01
              MO Center= -4.3D-15, -1.4D-15,  1.3D-08, r^2= 5.6D+00
   Bfn.  Coefficient  Atom+Function         Bfn.  Coefficient  Atom+Function  
  ----- ------------  ---------------      ----- ------------  ---------------
    14     11.431278  1 F  s                 59    -11.431278  2 F  s          
    17      4.797394  1 F  pz                62      4.797394  2 F  pz         
    10     -0.425450  1 F  s                 55      0.425450  2 F  s          
    35     -0.369126  1 F  dzz               80      0.369126  2 F  dzz        
    30     -0.303519  1 F  dxx               33     -0.303519  1 F  dyy        

 Vector   19  Occ=0.000000D+00  E= 7.560274D-01
              MO Center= -1.8D-15, -1.8D-15, -1.7D-08, r^2= 1.5D+00
   Bfn.  Coefficient  Atom+Function         Bfn.  Coefficient  Atom+Function  
  ----- ------------  ---------------      ----- ------------  ---------------
    30      0.547399  1 F  dxx               33     -0.547399  1 F  dyy        
    75      0.547399  2 F  dxx               78     -0.547399  2 F  dyy        


 center of mass
 --------------
 x =   0.00000000 y =   0.00000000 z =   0.00000000

 moments of inertia (a.u.)
 ------------------
          60.934416948395           0.000000000000           0.000000000000
           0.000000000000          60.934416948395           0.000000000000
           0.000000000000           0.000000000000           0.000000000000

     Multipole analysis of the density
     ---------------------------------

     L   x y z        total         alpha         beta         nuclear
     -   - - -        -----         -----         ----         -------
     0   0 0 0     -0.000000     -9.000000     -9.000000     18.000000

     1   1 0 0     -0.000000     -0.000000     -0.000000      0.000000
     1   0 1 0      0.000000      0.000000      0.000000      0.000000
     1   0 0 1      0.000000      0.000000      0.000000      0.000000

     2   2 0 0     -7.295844     -3.647922     -3.647922      0.000000
     2   1 1 0      0.000000      0.000000      0.000000      0.000000
     2   1 0 1     -0.000000     -0.000000     -0.000000      0.000000
     2   0 2 0     -7.295844     -3.647922     -3.647922      0.000000
     2   0 1 1      0.000000      0.000000      0.000000      0.000000
     2   0 0 2     -6.567829    -17.716966    -17.716966     28.866102


 Parallel integral file used      57 records with       0 large values


            General Information
            -------------------
          SCF calculation type: DFT
          Wavefunction type:  closed shell.
          No. of atoms     :     2
          No. of electrons :    18
           Alpha electrons :     9
            Beta electrons :     9
          Charge           :     0
          Spin multiplicity:     1
          Use of symmetry is: off; symmetry adaption is: off
          Maximum number of iterations: ***
          AO basis - number of functions:    90
                     number of shells:    26
          Convergence on energy requested: 1.00D-06
          Convergence on density requested: 1.00D-05
          Convergence on gradient requested: 5.00D-04

              XC Information
              --------------
                  TPSS metaGGA Exchange Functional  1.000          
             TPSS03 metaGGA Correlation Functional  1.000          

             Grid Information
             ----------------
          Grid used for XC integration:  medium    
          Radial quadrature: Mura-Knowles        
          Angular quadrature: Lebedev. 
          Tag              B.-S. Rad. Rad. Pts. Rad. Cut. Ang. Pts.
          ---              ---------- --------- --------- ---------
          F                   0.50       49           7.0       434
          Grid pruning is: on 
          Number of quadrature shells:    98
          Spatial weights used:  Erf1

          Convergence Information
          -----------------------
          Convergence aids based upon iterative change in 
          total energy or number of iterations. 
          Levelshifting, if invoked, occurs when the 
          HOMO/LUMO gap drops below (HL_TOL): 1.00D-02
          DIIS, if invoked, will attempt to extrapolate 
          using up to (NFOCK): 10 stored Fock matrices.

                    Damping( 0%)  Levelshifting(0.5)       DIIS
                  --------------- ------------------- ---------------
          dE  on:    start            ASAP                start   
          dE off:    2 iters        *** iters           *** iters 


      Screening Tolerance Information
      -------------------------------
          Density screening/tol_rho: 1.00D-10
          AO Gaussian exp screening on grid/accAOfunc:  14
          CD Gaussian exp screening on grid/accCDfunc:  20
          XC Gaussian exp screening on grid/accXCfunc:  20
          Schwarz screening/accCoul: 1.00D-08



                            NWChem DFT Gradient Module
                            --------------------------



  charge          =   0.00
  wavefunction    = closed shell



                         DFT ENERGY GRADIENTS

    atom               coordinates                        gradient
                 x          y          z           x          y          z
   1 F       0.000000   0.000000  -1.266362   -0.000000  -0.000000  -0.003713
   2 F       0.000000   0.000000   1.266362    0.000000   0.000000   0.003713

                 ----------------------------------------
                 |  Time  |  1-e(secs)   |  2-e(secs)   |
                 ----------------------------------------
                 |  CPU   |       0.00   |       0.13   |
                 ----------------------------------------
                 |  WALL  |       0.00   |       0.13   |
                 ----------------------------------------
                               NWChem STEPPER Module
                               ---------------------


   Step sought for minimum. 
  Energy ratio, actual to predicted =   0.831125
   Update Hessian used. 
   Dependent rotation vector no.                    3
   found in ECKART; linear geometry  assumed. 
   Number of modes removed with force (in the spectral representation)
   less than:   0.000000 is:    0
   PARTIT has partitioned the input hessian 
   and gradient into two subspaces;  An 
   "external" hessian and gradient composed 
   of                     5  independent translations 
   and rotations, and an "internal" hessian 
   and gradient with a dimension of                     1
               e-diff         g-norm     g-max   
 value        0.0032422340  0.005251  0.003713
 thres        0.0001000000  0.010000  0.000800
  trust radius =     0.10
   Calculating the Newton-Raphson step. 
  The length (norm) of the STEP is   0.005656

  The lowest few components in the bases 
  generated by the spectral decomposition 
  of the internal hessian (non-zero force). 

  Component  Hessian     Grad      Step   Scaled-Step
  ---------  --------  --------  -------- -----------
       1     0.93D+00  -.53D-02  0.57D-02  0.57D-02

  Clean-up the step; truncate at:   0.000001
  In cartesian coordinates; norm of this step is:   0.005655
         Walk statistics for step:   2
     Previous actual total energy:  -0.199607864987D+03
      Current actual total energy:  -0.199604622753D+03
         Actual energy difference:   0.324223398360D-02 threshold:         0.100000D-03
    Second order energy predicted:  -0.269470231590D-02
             Ratio of differences:   0.831125183912D+00
               Fixed trust radius:   0.100000000000D+00
   Number of negative eigenvalues:   0
   Max absolute value of Gradient:   0.371326280777D-02 threshold:         0.800000D-03
                    Gradient norm:   0.525134662340D-02 threshold:         0.100000D-01
                RMS Gradient norm:   0.371326280777D-02
  Largest component of step v-tor:   0.565600000000D-02
  New 2nd order energy prediction:  -0.148507513431D-04



  ------------------- New geometry -------------------


                         Geometry "g-2-step" -> "g-2-step"
                         ---------------------------------

 Output coordinates in angstroms (scale by  1.889725989 to convert to a.u.)

  No.       Tag          Charge          X              Y              Z
 ---- ---------------- ---------- -------------- -------------- --------------
    1 F                    9.0000     0.00000000     0.00000000    -0.66801370
    2 F                    9.0000     0.00000000     0.00000000     0.66801370

      Atomic Mass 
      ----------- 

      F                 18.998400


 Effective nuclear repulsion energy (a.u.)      32.0826931906

            Nuclear Dipole moment (a.u.) 
            ----------------------------
        X                 Y               Z
 ---------------- ---------------- ----------------
     0.0000000000     0.0000000000     0.0000000000


                                 NWChem DFT Module
                                 -----------------




 Summary of "ao basis" -> "ao basis" (cartesian)
 ------------------------------------------------------------------------------
       Tag                 Description            Shells   Functions and Types
 ---------------- ------------------------------  ------  ---------------------
 F                     6-311++G(3df,3pd)            13       45   5s4p3d1f


  Caching 1-el integrals 

            General Information
            -------------------
          SCF calculation type: DFT
          Wavefunction type:  closed shell.
          No. of atoms     :     2
          No. of electrons :    18
           Alpha electrons :     9
            Beta electrons :     9
          Charge           :     0
          Spin multiplicity:     1
          Use of symmetry is: off; symmetry adaption is: off
          Maximum number of iterations: ***
          AO basis - number of functions:    90
                     number of shells:    26
          Convergence on energy requested: 1.00D-06
          Convergence on density requested: 1.00D-05
          Convergence on gradient requested: 5.00D-04

              XC Information
              --------------
                  TPSS metaGGA Exchange Functional  1.000          
             TPSS03 metaGGA Correlation Functional  1.000          

             Grid Information
             ----------------
          Grid used for XC integration:  medium    
          Radial quadrature: Mura-Knowles        
          Angular quadrature: Lebedev. 
          Tag              B.-S. Rad. Rad. Pts. Rad. Cut. Ang. Pts.
          ---              ---------- --------- --------- ---------
          F                   0.50       49           7.0       434
          Grid pruning is: on 
          Number of quadrature shells:    98
          Spatial weights used:  Erf1

          Convergence Information
          -----------------------
          Convergence aids based upon iterative change in 
          total energy or number of iterations. 
          Levelshifting, if invoked, occurs when the 
          HOMO/LUMO gap drops below (HL_TOL): 1.00D-02
          DIIS, if invoked, will attempt to extrapolate 
          using up to (NFOCK): 10 stored Fock matrices.

                    Damping( 0%)  Levelshifting(0.5)       DIIS
                  --------------- ------------------- ---------------
          dE  on:    start            ASAP                start   
          dE off:    2 iters        *** iters           *** iters 


      Screening Tolerance Information
      -------------------------------
          Density screening/tol_rho: 1.00D-10
          AO Gaussian exp screening on grid/accAOfunc:  14
          CD Gaussian exp screening on grid/accCDfunc:  20
          XC Gaussian exp screening on grid/accXCfunc:  20
          Schwarz screening/accCoul: 1.00D-08


 Loading old vectors from job with title :



   Time after variat. SCF:      2.6
   Time prior to 1st pass:      2.6

 Integral file          = ./F2.xyz.aoints.00
 Record size in doubles =    65536    No. of integs per rec  =    43688
 Max. records in memory =       18    Max. records in file   = 11666010
 No. of bits per label  =        8    No. of bits per value  =       64


 #quartets = 5.990D+04 #integrals = 2.124D+06 #direct =  0.0% #cached =100.0%


File balance: exchanges=     0  moved=     0  time=   0.0


 Grid_pts file          = ./F2.xyz.gridpts.00
 Record size in doubles =  12289        No. of grid_pts per rec  =   3070
 Max. records in memory =      2        Max. recs in file   =  62213664


           Memory utilization after 1st SCF pass: 
           Heap Space remaining (MW):       11.90            11900100
          Stack Space remaining (MW):       13.11            13106644

   convergence    iter        energy       DeltaE   RMS-Dens  Diis-err    time
 ---------------- ----- ----------------- --------- --------- ---------  ------
 d= 0,ls=0.0,diis     1   -199.6040940186 -2.32D+02  5.61D-05  9.31D-05     2.9
 d= 0,ls=0.0,diis     2   -199.6041814210 -8.74D-05  1.02D-05  1.17D-06     3.0
 d= 0,ls=0.0,diis     3   -199.6041190483  6.24D-05  4.26D-06  8.12D-07     3.1
 d= 0,ls=0.0,diis     4   -199.6041538623 -3.48D-05  5.08D-07  1.26D-08     3.1
 d= 0,ls=0.0,diis     5   -199.6041499677  3.89D-06  6.09D-08  4.91D-11     3.2
 d= 0,ls=0.0,diis     6   -199.6041500933 -1.26D-07  3.17D-08  9.39D-11     3.3


         Total DFT energy =     -199.604150093331
      One electron energy =     -341.210015218358
           Coulomb energy =      130.241762833471
          Exchange energy =      -20.080285032573
       Correlation energy =       -0.638305866471
 Nuclear repulsion energy =       32.082693190600

 Numeric. integr. density =       17.999996861267

     Total iterative time =      0.7s



                       DFT Final Molecular Orbital Analysis
                       ------------------------------------

 Vector    1  Occ=2.000000D+00  E=-2.460010D+01
              MO Center= -9.8D-18, -9.0D-18, -8.7D-02, r^2= 4.5D-01
   Bfn.  Coefficient  Atom+Function         Bfn.  Coefficient  Atom+Function  
  ----- ------------  ---------------      ----- ------------  ---------------
     1      0.411377  1 F  s                 46      0.360987  2 F  s          
     2      0.355277  1 F  s                 47      0.311753  2 F  s          

 Vector    2  Occ=2.000000D+00  E=-2.460010D+01
              MO Center= -1.1D-17, -2.1D-17,  8.7D-02, r^2= 4.5D-01
   Bfn.  Coefficient  Atom+Function         Bfn.  Coefficient  Atom+Function  
  ----- ------------  ---------------      ----- ------------  ---------------
    46      0.411372  2 F  s                  1     -0.360982  1 F  s          
    47      0.355315  2 F  s                  2     -0.311797  1 F  s          

 Vector    3  Occ=2.000000D+00  E=-1.386605D+00
              MO Center= -4.3D-17,  1.5D-16, -2.2D-07, r^2= 5.6D-01
   Bfn.  Coefficient  Atom+Function         Bfn.  Coefficient  Atom+Function  
  ----- ------------  ---------------      ----- ------------  ---------------
    10      0.491452  1 F  s                 55      0.491452  2 F  s          
     6      0.400620  1 F  s                 51      0.400620  2 F  s          
     2     -0.152096  1 F  s                 47     -0.152096  2 F  s          

 Vector    4  Occ=2.000000D+00  E=-1.089695D+00
              MO Center=  8.3D-16, -1.9D-15,  1.2D-07, r^2= 9.4D-01
   Bfn.  Coefficient  Atom+Function         Bfn.  Coefficient  Atom+Function  
  ----- ------------  ---------------      ----- ------------  ---------------
    10      0.634913  1 F  s                 55     -0.634913  2 F  s          
     6      0.456528  1 F  s                 51     -0.456529  2 F  s          
     2     -0.171098  1 F  s                 47      0.171098  2 F  s          

 Vector    5  Occ=2.000000D+00  E=-6.627172D-01
              MO Center= -4.4D-16,  3.8D-16, -7.7D-08, r^2= 1.0D+00
   Bfn.  Coefficient  Atom+Function         Bfn.  Coefficient  Atom+Function  
  ----- ------------  ---------------      ----- ------------  ---------------
     9      0.292223  1 F  pz                54     -0.292223  2 F  pz         
    10     -0.274255  1 F  s                 55     -0.274255  2 F  s          
    13      0.245088  1 F  pz                58     -0.245087  2 F  pz         
     5      0.223412  1 F  pz                50     -0.223412  2 F  pz         

 Vector    6  Occ=2.000000D+00  E=-5.806334D-01
              MO Center= -1.6D-15,  1.3D-15, -4.9D-07, r^2= 8.5D-01
   Bfn.  Coefficient  Atom+Function         Bfn.  Coefficient  Atom+Function  
  ----- ------------  ---------------      ----- ------------  ---------------
     7      0.277075  1 F  px                52      0.277075  2 F  px         
    11      0.261822  1 F  px                56      0.261821  2 F  px         
     3      0.205980  1 F  px                48      0.205980  2 F  px         

 Vector    7  Occ=2.000000D+00  E=-5.806334D-01
              MO Center= -1.5D-16, -9.5D-17, -4.9D-07, r^2= 8.5D-01
   Bfn.  Coefficient  Atom+Function         Bfn.  Coefficient  Atom+Function  
  ----- ------------  ---------------      ----- ------------  ---------------
     8      0.277075  1 F  py                53      0.277075  2 F  py         
    12      0.261822  1 F  py                57      0.261821  2 F  py         
     4      0.205980  1 F  py                49      0.205980  2 F  py         

 Vector    8  Occ=2.000000D+00  E=-4.156440D-01
              MO Center= -3.1D-15,  2.0D-15,  4.8D-07, r^2= 9.1D-01
   Bfn.  Coefficient  Atom+Function         Bfn.  Coefficient  Atom+Function  
  ----- ------------  ---------------      ----- ------------  ---------------
    11      0.281221  1 F  px                56     -0.281221  2 F  px         
     7      0.278477  1 F  px                52     -0.278477  2 F  px         
     3      0.207097  1 F  px                48     -0.207097  2 F  px         
    12     -0.188936  1 F  py                57      0.188936  2 F  py         
     8     -0.187092  1 F  py                53      0.187092  2 F  py         

 Vector    9  Occ=2.000000D+00  E=-4.156440D-01
              MO Center=  3.4D-16,  4.9D-16,  4.8D-07, r^2= 9.1D-01
   Bfn.  Coefficient  Atom+Function         Bfn.  Coefficient  Atom+Function  
  ----- ------------  ---------------      ----- ------------  ---------------
    12      0.281221  1 F  py                57     -0.281221  2 F  py         
     8      0.278477  1 F  py                53     -0.278477  2 F  py         
     4      0.207097  1 F  py                49     -0.207097  2 F  py         
    11      0.188936  1 F  px                56     -0.188936  2 F  px         
     7      0.187092  1 F  px                52     -0.187092  2 F  px         

 Vector   10  Occ=0.000000D+00  E=-2.295719D-01
              MO Center=  1.3D-16,  9.1D-16,  1.9D-07, r^2= 9.3D-01
   Bfn.  Coefficient  Atom+Function         Bfn.  Coefficient  Atom+Function  
  ----- ------------  ---------------      ----- ------------  ---------------
    13      0.405129  1 F  pz                58      0.405129  2 F  pz         
     9      0.365211  1 F  pz                54      0.365211  2 F  pz         
     5      0.268939  1 F  pz                50      0.268939  2 F  pz         
    10      0.261843  1 F  s                 55     -0.261843  2 F  s          
     6      0.204664  1 F  s                 51     -0.204664  2 F  s          

 Vector   11  Occ=0.000000D+00  E= 8.385213D-02
              MO Center= -8.2D-15,  1.3D-14, -5.4D-07, r^2= 4.0D+00
   Bfn.  Coefficient  Atom+Function         Bfn.  Coefficient  Atom+Function  
  ----- ------------  ---------------      ----- ------------  ---------------
    14      1.002910  1 F  s                 59      1.002910  2 F  s          
     6     -0.249841  1 F  s                 51     -0.249841  2 F  s          
    10     -0.242509  1 F  s                 55     -0.242509  2 F  s          
    35     -0.171211  1 F  dzz               80     -0.171211  2 F  dzz        
    17     -0.160481  1 F  pz                62      0.160481  2 F  pz         

 Vector   12  Occ=0.000000D+00  E= 1.495010D-01
              MO Center= -6.0D-15, -5.4D-15,  1.9D-07, r^2= 5.8D+00
   Bfn.  Coefficient  Atom+Function         Bfn.  Coefficient  Atom+Function  
  ----- ------------  ---------------      ----- ------------  ---------------
    17      1.563103  1 F  pz                62      1.563102  2 F  pz         
    14      1.532744  1 F  s                 59     -1.532744  2 F  s          
    13     -0.493980  1 F  pz                58     -0.493980  2 F  pz         

 Vector   13  Occ=0.000000D+00  E= 1.698594D-01
              MO Center= -2.6D-15, -8.8D-16, -3.0D-07, r^2= 4.2D+00
   Bfn.  Coefficient  Atom+Function         Bfn.  Coefficient  Atom+Function  
  ----- ------------  ---------------      ----- ------------  ---------------
    15      0.674029  1 F  px                60      0.674029  2 F  px         
    11     -0.284675  1 F  px                56     -0.284675  2 F  px         

 Vector   14  Occ=0.000000D+00  E= 1.698594D-01
              MO Center=  2.0D-15, -1.0D-14, -3.0D-07, r^2= 4.2D+00
   Bfn.  Coefficient  Atom+Function         Bfn.  Coefficient  Atom+Function  
  ----- ------------  ---------------      ----- ------------  ---------------
    16      0.674029  1 F  py                61      0.674029  2 F  py         
    12     -0.284675  1 F  py                57     -0.284675  2 F  py         

 Vector   15  Occ=0.000000D+00  E= 2.363279D-01
              MO Center=  1.1D-14, -1.1D-15,  2.7D-07, r^2= 5.0D+00
   Bfn.  Coefficient  Atom+Function         Bfn.  Coefficient  Atom+Function  
  ----- ------------  ---------------      ----- ------------  ---------------
    17      1.141545  1 F  pz                62     -1.141546  2 F  pz         
    13     -0.219112  1 F  pz                58      0.219112  2 F  pz         
    10     -0.179459  1 F  s                 55     -0.179459  2 F  s          

 Vector   16  Occ=0.000000D+00  E= 2.555270D-01
              MO Center=  1.3D-14, -3.6D-16,  3.0D-07, r^2= 5.4D+00
   Bfn.  Coefficient  Atom+Function         Bfn.  Coefficient  Atom+Function  
  ----- ------------  ---------------      ----- ------------  ---------------
    15      1.522180  1 F  px                60     -1.522180  2 F  px         
    11     -0.301588  1 F  px                56      0.301589  2 F  px         

 Vector   17  Occ=0.000000D+00  E= 2.555270D-01
              MO Center=  2.3D-16,  1.1D-14,  3.0D-07, r^2= 5.4D+00
   Bfn.  Coefficient  Atom+Function         Bfn.  Coefficient  Atom+Function  
  ----- ------------  ---------------      ----- ------------  ---------------
    16      1.522180  1 F  py                61     -1.522180  2 F  py         
    12     -0.301588  1 F  py                57      0.301589  2 F  py         

 Vector   18  Occ=0.000000D+00  E= 3.945561D-01
              MO Center= -8.0D-15, -6.1D-15,  7.8D-08, r^2= 5.6D+00
   Bfn.  Coefficient  Atom+Function         Bfn.  Coefficient  Atom+Function  
  ----- ------------  ---------------      ----- ------------  ---------------
    14     11.535115  1 F  s                 59    -11.535115  2 F  s          
    17      4.826068  1 F  pz                62      4.826068  2 F  pz         
    10     -0.427548  1 F  s                 55      0.427548  2 F  s          
    35     -0.369984  1 F  dzz               80      0.369984  2 F  dzz        
    30     -0.304042  1 F  dxx               33     -0.304042  1 F  dyy        

 Vector   19  Occ=0.000000D+00  E= 7.553846D-01
              MO Center= -9.6D-15, -3.0D-16, -1.1D-07, r^2= 1.5D+00
   Bfn.  Coefficient  Atom+Function         Bfn.  Coefficient  Atom+Function  
  ----- ------------  ---------------      ----- ------------  ---------------
    30      0.546886  1 F  dxx               33     -0.546886  1 F  dyy        
    75      0.546886  2 F  dxx               78     -0.546886  2 F  dyy        


 center of mass
 --------------
 x =   0.00000000 y =   0.00000000 z =   0.00000000

 moments of inertia (a.u.)
 ------------------
          60.550179245229           0.000000000000           0.000000000000
           0.000000000000          60.550179245229           0.000000000000
           0.000000000000           0.000000000000           0.000000000000

     Multipole analysis of the density
     ---------------------------------

     L   x y z        total         alpha         beta         nuclear
     -   - - -        -----         -----         ----         -------
     0   0 0 0     -0.000000     -9.000000     -9.000000     18.000000

     1   1 0 0      0.000000      0.000000      0.000000      0.000000
     1   0 1 0     -0.000000     -0.000000     -0.000000      0.000000
     1   0 0 1      0.000001      0.000000      0.000000      0.000000

     2   2 0 0     -7.292625     -3.646313     -3.646313      0.000000
     2   1 1 0     -0.000000     -0.000000     -0.000000      0.000000
     2   1 0 1      0.000000      0.000000      0.000000      0.000000
     2   0 2 0     -7.292625     -3.646313     -3.646313      0.000000
     2   0 1 1      0.000000      0.000000      0.000000      0.000000
     2   0 0 2     -6.576312    -17.630196    -17.630196     28.684079


 Parallel integral file used      57 records with       0 large values


            General Information
            -------------------
          SCF calculation type: DFT
          Wavefunction type:  closed shell.
          No. of atoms     :     2
          No. of electrons :    18
           Alpha electrons :     9
            Beta electrons :     9
          Charge           :     0
          Spin multiplicity:     1
          Use of symmetry is: off; symmetry adaption is: off
          Maximum number of iterations: ***
          AO basis - number of functions:    90
                     number of shells:    26
          Convergence on energy requested: 1.00D-06
          Convergence on density requested: 1.00D-05
          Convergence on gradient requested: 5.00D-04

              XC Information
              --------------
                  TPSS metaGGA Exchange Functional  1.000          
             TPSS03 metaGGA Correlation Functional  1.000          

             Grid Information
             ----------------
          Grid used for XC integration:  medium    
          Radial quadrature: Mura-Knowles        
          Angular quadrature: Lebedev. 
          Tag              B.-S. Rad. Rad. Pts. Rad. Cut. Ang. Pts.
          ---              ---------- --------- --------- ---------
          F                   0.50       49           7.0       434
          Grid pruning is: on 
          Number of quadrature shells:    98
          Spatial weights used:  Erf1

          Convergence Information
          -----------------------
          Convergence aids based upon iterative change in 
          total energy or number of iterations. 
          Levelshifting, if invoked, occurs when the 
          HOMO/LUMO gap drops below (HL_TOL): 1.00D-02
          DIIS, if invoked, will attempt to extrapolate 
          using up to (NFOCK): 10 stored Fock matrices.

                    Damping( 0%)  Levelshifting(0.5)       DIIS
                  --------------- ------------------- ---------------
          dE  on:    start            ASAP                start   
          dE off:    2 iters        *** iters           *** iters 


      Screening Tolerance Information
      -------------------------------
          Density screening/tol_rho: 1.00D-10
          AO Gaussian exp screening on grid/accAOfunc:  14
          CD Gaussian exp screening on grid/accCDfunc:  20
          XC Gaussian exp screening on grid/accXCfunc:  20
          Schwarz screening/accCoul: 1.00D-08



                            NWChem DFT Gradient Module
                            --------------------------



  charge          =   0.00
  wavefunction    = closed shell



                         DFT ENERGY GRADIENTS

    atom               coordinates                        gradient
                 x          y          z           x          y          z
   1 F       0.000000   0.000000  -1.262363    0.000000   0.000000   0.000696
   2 F       0.000000   0.000000   1.262363   -0.000000  -0.000000  -0.000696

                 ----------------------------------------
                 |  Time  |  1-e(secs)   |  2-e(secs)   |
                 ----------------------------------------
                 |  CPU   |       0.00   |       0.13   |
                 ----------------------------------------
                 |  WALL  |       0.00   |       0.13   |
                 ----------------------------------------
                               NWChem STEPPER Module
                               ---------------------


   Step sought for minimum. 
   Actual energy difference is :    4.7265988763456335E-004
   2nd order predicted energy difference  was :   -1.4850751343129917E-005
   One of these is below the energy  tolerance:    1.0000000000000000E-004
   Backstepping possibilities are NO 
   longer considered appropriate. 
   Update Hessian used. 
   Dependent rotation vector no.                    3
   found in ECKART; linear geometry  assumed. 
   Number of modes removed with force (in the spectral representation)
   less than:   0.000000 is:    0
   PARTIT has partitioned the input hessian 
   and gradient into two subspaces;  An 
   "external" hessian and gradient composed 
   of                     5  independent translations 
   and rotations, and an "internal" hessian 
   and gradient with a dimension of                     1
               e-diff         g-norm     g-max   
 value        0.0004726599  0.000984  0.000696
 thres        0.0001000000  0.010000  0.000800
  trust radius =     0.10
   Calculating the Newton-Raphson step. 
  The length (norm) of the STEP is   0.000893

  The lowest few components in the bases 
  generated by the spectral decomposition 
  of the internal hessian (non-zero force). 

  Component  Hessian     Grad      Step   Scaled-Step
  ---------  --------  --------  -------- -----------
       1     0.11D+01  0.98D-03  -.89D-03  -.89D-03

  Clean-up the step; truncate at:   0.000001
  In cartesian coordinates; norm of this step is:   0.000892
         Walk statistics for step:   3
     Previous actual total energy:  -0.199604622753D+03
      Current actual total energy:  -0.199604150093D+03
         Actual energy difference:   0.472659887635D-03 threshold:         0.100000D-03
    Second order energy predicted:  -0.148507513431D-04
             Ratio of differences:   0.314195296272D-01
               Fixed trust radius:   0.100000000000D+00
   Number of negative eigenvalues:   0
   Max absolute value of Gradient:   0.695849551130D-03 threshold:         0.800000D-03
                    Gradient norm:   0.984079872577D-03 threshold:         0.100000D-01
                RMS Gradient norm:   0.695849551128D-03
  Largest component of step v-tor:   0.893000000000D-03
  New 2nd order energy prediction:  -0.439168142229D-06



  ------------------- New geometry -------------------


                         Geometry "g-3-step" -> "g-3-step"
                         ---------------------------------

 Output coordinates in angstroms (scale by  1.889725989 to convert to a.u.)

  No.       Tag          Charge          X              Y              Z
 ---- ---------------- ---------- -------------- -------------- --------------
    1 F                    9.0000     0.00000000     0.00000000    -0.66834761
    2 F                    9.0000     0.00000000     0.00000000     0.66834761

      Atomic Mass 
      ----------- 

      F                 18.998400


 Effective nuclear repulsion energy (a.u.)      32.0666644669

            Nuclear Dipole moment (a.u.) 
            ----------------------------
        X                 Y               Z
 ---------------- ---------------- ----------------
     0.0000000000     0.0000000000     0.0000000000


                                 NWChem DFT Module
                                 -----------------




 Summary of "ao basis" -> "ao basis" (cartesian)
 ------------------------------------------------------------------------------
       Tag                 Description            Shells   Functions and Types
 ---------------- ------------------------------  ------  ---------------------
 F                     6-311++G(3df,3pd)            13       45   5s4p3d1f


  Caching 1-el integrals 

            General Information
            -------------------
          SCF calculation type: DFT
          Wavefunction type:  closed shell.
          No. of atoms     :     2
          No. of electrons :    18
           Alpha electrons :     9
            Beta electrons :     9
          Charge           :     0
          Spin multiplicity:     1
          Use of symmetry is: off; symmetry adaption is: off
          Maximum number of iterations: ***
          AO basis - number of functions:    90
                     number of shells:    26
          Convergence on energy requested: 1.00D-06
          Convergence on density requested: 1.00D-05
          Convergence on gradient requested: 5.00D-04

              XC Information
              --------------
                  TPSS metaGGA Exchange Functional  1.000          
             TPSS03 metaGGA Correlation Functional  1.000          

             Grid Information
             ----------------
          Grid used for XC integration:  medium    
          Radial quadrature: Mura-Knowles        
          Angular quadrature: Lebedev. 
          Tag              B.-S. Rad. Rad. Pts. Rad. Cut. Ang. Pts.
          ---              ---------- --------- --------- ---------
          F                   0.50       49           7.0       434
          Grid pruning is: on 
          Number of quadrature shells:    98
          Spatial weights used:  Erf1

          Convergence Information
          -----------------------
          Convergence aids based upon iterative change in 
          total energy or number of iterations. 
          Levelshifting, if invoked, occurs when the 
          HOMO/LUMO gap drops below (HL_TOL): 1.00D-02
          DIIS, if invoked, will attempt to extrapolate 
          using up to (NFOCK): 10 stored Fock matrices.

                    Damping( 0%)  Levelshifting(0.5)       DIIS
                  --------------- ------------------- ---------------
          dE  on:    start            ASAP                start   
          dE off:    2 iters        *** iters           *** iters 


      Screening Tolerance Information
      -------------------------------
[...]
    46     -0.357851  2 F  s                 47     -0.309093  2 F  s          

 Vector    3  Occ=2.000000D+00  E=-1.386216D+00
              MO Center=  4.8D-16, -1.9D-16,  2.4D-07, r^2= 5.6D-01
   Bfn.  Coefficient  Atom+Function         Bfn.  Coefficient  Atom+Function  
  ----- ------------  ---------------      ----- ------------  ---------------
    10      0.491622  1 F  s                 55      0.491622  2 F  s          
     6      0.400669  1 F  s                 51      0.400669  2 F  s          
     2     -0.152113  1 F  s                 47     -0.152113  2 F  s          

 Vector    4  Occ=2.000000D+00  E=-1.089886D+00
              MO Center= -2.7D-16, -8.4D-16, -1.3D-07, r^2= 9.4D-01
   Bfn.  Coefficient  Atom+Function         Bfn.  Coefficient  Atom+Function  
  ----- ------------  ---------------      ----- ------------  ---------------
    10      0.634811  1 F  s                 55     -0.634810  2 F  s          
     6      0.456547  1 F  s                 51     -0.456547  2 F  s          
     2     -0.171102  1 F  s                 47      0.171102  2 F  s          

 Vector    5  Occ=2.000000D+00  E=-6.626276D-01
              MO Center= -1.3D-15,  1.5D-16,  8.6D-08, r^2= 1.0D+00
   Bfn.  Coefficient  Atom+Function         Bfn.  Coefficient  Atom+Function  
  ----- ------------  ---------------      ----- ------------  ---------------
     9      0.292205  1 F  pz                54     -0.292205  2 F  pz         
    10     -0.273974  1 F  s                 55     -0.273974  2 F  s          
    13      0.245156  1 F  pz                58     -0.245156  2 F  pz         
     5      0.223415  1 F  pz                50     -0.223415  2 F  pz         

 Vector    6  Occ=2.000000D+00  E=-5.804697D-01
              MO Center= -3.8D-16, -1.2D-16,  5.4D-07, r^2= 8.5D-01
   Bfn.  Coefficient  Atom+Function         Bfn.  Coefficient  Atom+Function  
  ----- ------------  ---------------      ----- ------------  ---------------
     7      0.287852  1 F  px                52      0.287852  2 F  px         
    11      0.272045  1 F  px                56      0.272045  2 F  px         
     3      0.213995  1 F  px                48      0.213995  2 F  px         

 Vector    7  Occ=2.000000D+00  E=-5.804697D-01
              MO Center=  4.3D-16,  8.7D-16,  5.4D-07, r^2= 8.5D-01
   Bfn.  Coefficient  Atom+Function         Bfn.  Coefficient  Atom+Function  
  ----- ------------  ---------------      ----- ------------  ---------------
     8      0.287852  1 F  py                53      0.287852  2 F  py         
    12      0.272045  1 F  py                57      0.272045  2 F  py         
     4      0.213995  1 F  py                49      0.213995  2 F  py         

 Vector    8  Occ=2.000000D+00  E=-4.157752D-01
              MO Center= -7.1D-16,  1.9D-16, -5.3D-07, r^2= 9.1D-01
   Bfn.  Coefficient  Atom+Function         Bfn.  Coefficient  Atom+Function  
  ----- ------------  ---------------      ----- ------------  ---------------
    11      0.311940  1 F  px                56     -0.311940  2 F  px         
     7      0.308945  1 F  px                52     -0.308945  2 F  px         
     3      0.229757  1 F  px                48     -0.229757  2 F  px         

 Vector    9  Occ=2.000000D+00  E=-4.157752D-01
              MO Center= -3.9D-16,  7.0D-16, -5.3D-07, r^2= 9.1D-01
   Bfn.  Coefficient  Atom+Function         Bfn.  Coefficient  Atom+Function  
  ----- ------------  ---------------      ----- ------------  ---------------
    12      0.311940  1 F  py                57     -0.311940  2 F  py         
     8      0.308945  1 F  py                53     -0.308945  2 F  py         
     4      0.229757  1 F  py                49     -0.229757  2 F  py         

 Vector   10  Occ=0.000000D+00  E=-2.301104D-01
              MO Center= -9.5D-16,  1.9D-16, -2.1D-07, r^2= 9.3D-01
   Bfn.  Coefficient  Atom+Function         Bfn.  Coefficient  Atom+Function  
  ----- ------------  ---------------      ----- ------------  ---------------
    13      0.405214  1 F  pz                58      0.405214  2 F  pz         
     9      0.365198  1 F  pz                54      0.365198  2 F  pz         
     5      0.268935  1 F  pz                50      0.268935  2 F  pz         
    10      0.261360  1 F  s                 55     -0.261360  2 F  s          
     6      0.204442  1 F  s                 51     -0.204442  2 F  s          

 Vector   11  Occ=0.000000D+00  E= 8.384612D-02
              MO Center=  1.3D-14,  1.1D-14,  6.0D-07, r^2= 4.0D+00
   Bfn.  Coefficient  Atom+Function         Bfn.  Coefficient  Atom+Function  
  ----- ------------  ---------------      ----- ------------  ---------------
    14      1.002966  1 F  s                 59      1.002966  2 F  s          
     6     -0.249858  1 F  s                 51     -0.249858  2 F  s          
    10     -0.242578  1 F  s                 55     -0.242578  2 F  s          
    35     -0.171191  1 F  dzz               80     -0.171191  2 F  dzz        
    17     -0.160493  1 F  pz                62      0.160494  2 F  pz         

 Vector   12  Occ=0.000000D+00  E= 1.494719D-01
              MO Center=  3.8D-15,  4.9D-15, -2.1D-07, r^2= 5.9D+00
   Bfn.  Coefficient  Atom+Function         Bfn.  Coefficient  Atom+Function  
  ----- ------------  ---------------      ----- ------------  ---------------
    17      1.561685  1 F  pz                62      1.561686  2 F  pz         
    14      1.528404  1 F  s                 59     -1.528405  2 F  s          
    13     -0.492482  1 F  pz                58     -0.492482  2 F  pz         

 Vector   13  Occ=0.000000D+00  E= 1.698639D-01
              MO Center= -1.5D-14,  3.1D-15,  3.3D-07, r^2= 4.2D+00
   Bfn.  Coefficient  Atom+Function         Bfn.  Coefficient  Atom+Function  
  ----- ------------  ---------------      ----- ------------  ---------------
    15      0.666672  1 F  px                60      0.666673  2 F  px         
    11     -0.281591  1 F  px                56     -0.281591  2 F  px         

 Vector   14  Occ=0.000000D+00  E= 1.698639D-01
              MO Center= -2.9D-15, -1.6D-14,  3.3D-07, r^2= 4.2D+00
   Bfn.  Coefficient  Atom+Function         Bfn.  Coefficient  Atom+Function  
  ----- ------------  ---------------      ----- ------------  ---------------
    16      0.666672  1 F  py                61      0.666673  2 F  py         
    12     -0.281591  1 F  py                57     -0.281591  2 F  py         

 Vector   15  Occ=0.000000D+00  E= 2.363346D-01
              MO Center=  5.4D-15,  2.6D-15, -3.0D-07, r^2= 5.0D+00
   Bfn.  Coefficient  Atom+Function         Bfn.  Coefficient  Atom+Function  
  ----- ------------  ---------------      ----- ------------  ---------------
    17      1.141215  1 F  pz                62     -1.141215  2 F  pz         
    13     -0.219336  1 F  pz                58      0.219336  2 F  pz         
    10     -0.179495  1 F  s                 55     -0.179495  2 F  s          

 Vector   16  Occ=0.000000D+00  E= 2.555085D-01
              MO Center= -9.7D-15, -4.9D-16, -3.3D-07, r^2= 5.4D+00
   Bfn.  Coefficient  Atom+Function         Bfn.  Coefficient  Atom+Function  
  ----- ------------  ---------------      ----- ------------  ---------------
    15      1.520627  1 F  px                60     -1.520627  2 F  px         
    11     -0.301358  1 F  px                56      0.301357  2 F  px         

 Vector   17  Occ=0.000000D+00  E= 2.555085D-01
              MO Center=  5.5D-16, -3.1D-15, -3.3D-07, r^2= 5.4D+00
   Bfn.  Coefficient  Atom+Function         Bfn.  Coefficient  Atom+Function  
  ----- ------------  ---------------      ----- ------------  ---------------
    16      1.520627  1 F  py                61     -1.520627  2 F  py         
    12     -0.301358  1 F  py                57      0.301357  2 F  py         

 Vector   18  Occ=0.000000D+00  E= 3.945155D-01
              MO Center=  5.3D-15, -1.9D-15, -8.6D-08, r^2= 5.6D+00
   Bfn.  Coefficient  Atom+Function         Bfn.  Coefficient  Atom+Function  
  ----- ------------  ---------------      ----- ------------  ---------------
    14     11.518643  1 F  s                 59    -11.518642  2 F  s          
    17      4.821525  1 F  pz                62      4.821525  2 F  pz         
    10     -0.427215  1 F  s                 55      0.427215  2 F  s          
    35     -0.369849  1 F  dzz               80      0.369849  2 F  dzz        
    30     -0.303959  1 F  dxx               33     -0.303959  1 F  dyy        

 Vector   19  Occ=0.000000D+00  E= 7.554858D-01
              MO Center=  5.1D-15,  3.1D-15,  1.2D-07, r^2= 1.5D+00
   Bfn.  Coefficient  Atom+Function         Bfn.  Coefficient  Atom+Function  
  ----- ------------  ---------------      ----- ------------  ---------------
    30      0.546967  1 F  dxx               33     -0.546967  1 F  dyy        
    75      0.546968  2 F  dxx               78     -0.546968  2 F  dyy        


 center of mass
 --------------
 x =   0.00000000 y =   0.00000000 z =   0.00000000

 moments of inertia (a.u.)
 ------------------
          60.610727148964           0.000000000000           0.000000000000
           0.000000000000          60.610727148964           0.000000000000
           0.000000000000           0.000000000000           0.000000000000

     Multipole analysis of the density
     ---------------------------------

     L   x y z        total         alpha         beta         nuclear
     -   - - -        -----         -----         ----         -------
     0   0 0 0     -0.000000     -9.000000     -9.000000     18.000000

     1   1 0 0      0.000000      0.000000      0.000000      0.000000
     1   0 1 0     -0.000000     -0.000000     -0.000000      0.000000
     1   0 0 1     -0.000001     -0.000000     -0.000000      0.000000

     2   2 0 0     -7.293135     -3.646568     -3.646568      0.000000
     2   1 1 0     -0.000000     -0.000000     -0.000000      0.000000
     2   1 0 1     -0.000000     -0.000000     -0.000000      0.000000
     2   0 2 0     -7.293135     -3.646568     -3.646568      0.000000
     2   0 1 1     -0.000000     -0.000000     -0.000000      0.000000
     2   0 0 2     -6.574970    -17.643866    -17.643866     28.712762


 Parallel integral file used      57 records with       0 large values


            General Information
            -------------------
          SCF calculation type: DFT
          Wavefunction type:  closed shell.
          No. of atoms     :     2
          No. of electrons :    18
           Alpha electrons :     9
            Beta electrons :     9
          Charge           :     0
          Spin multiplicity:     1
          Use of symmetry is: off; symmetry adaption is: off
          Maximum number of iterations: ***
          AO basis - number of functions:    90
                     number of shells:    26
          Convergence on energy requested: 1.00D-06
          Convergence on density requested: 1.00D-05
          Convergence on gradient requested: 5.00D-04

              XC Information
              --------------
                  TPSS metaGGA Exchange Functional  1.000          
             TPSS03 metaGGA Correlation Functional  1.000          

             Grid Information
             ----------------
          Grid used for XC integration:  medium    
          Radial quadrature: Mura-Knowles        
          Angular quadrature: Lebedev. 
          Tag              B.-S. Rad. Rad. Pts. Rad. Cut. Ang. Pts.
          ---              ---------- --------- --------- ---------
          F                   0.50       49           7.0       434
          Grid pruning is: on 
          Number of quadrature shells:    98
          Spatial weights used:  Erf1

          Convergence Information
          -----------------------
          Convergence aids based upon iterative change in 
          total energy or number of iterations. 
          Levelshifting, if invoked, occurs when the 
          HOMO/LUMO gap drops below (HL_TOL): 1.00D-02
          DIIS, if invoked, will attempt to extrapolate 
          using up to (NFOCK): 10 stored Fock matrices.

                    Damping( 0%)  Levelshifting(0.5)       DIIS
                  --------------- ------------------- ---------------
          dE  on:    start            ASAP                start   
          dE off:    2 iters        *** iters           *** iters 


      Screening Tolerance Information
      -------------------------------
          Density screening/tol_rho: 1.00D-10
          AO Gaussian exp screening on grid/accAOfunc:  14
          CD Gaussian exp screening on grid/accCDfunc:  20
          XC Gaussian exp screening on grid/accXCfunc:  20
          Schwarz screening/accCoul: 1.00D-08



                            NWChem DFT Gradient Module
                            --------------------------



  charge          =   0.00
  wavefunction    = closed shell



                         DFT ENERGY GRADIENTS

    atom               coordinates                        gradient
                 x          y          z           x          y          z
   1 F       0.000000   0.000000  -1.262994    0.000000  -0.000000  -0.000007
   2 F       0.000000   0.000000   1.262994   -0.000000   0.000000   0.000007

                 ----------------------------------------
                 |  Time  |  1-e(secs)   |  2-e(secs)   |
                 ----------------------------------------
                 |  CPU   |       0.00   |       0.13   |
                 ----------------------------------------
                 |  WALL  |       0.00   |       0.13   |
                 ----------------------------------------
                               NWChem STEPPER Module
                               ---------------------


   Step sought for minimum. 
   Actual energy difference is :   -7.6927895662493029E-005
   2nd order predicted energy difference  was :   -4.3916814222875307E-007
   One of these is below the energy  tolerance:    1.0000000000000000E-004
   Backstepping possibilities are NO 
   longer considered appropriate. 
   Update Hessian used. 
   Dependent rotation vector no.                    3
   found in ECKART; linear geometry  assumed. 
   Number of modes removed with force (in the spectral representation)
   less than:   0.000000 is:    0
   PARTIT has partitioned the input hessian 
   and gradient into two subspaces;  An 
   "external" hessian and gradient composed 
   of                     5  independent translations 
   and rotations, and an "internal" hessian 
   and gradient with a dimension of                     1
               e-diff         g-norm     g-max   
 value       -0.0000769279  0.000010  0.000007
 thres        0.0001000000  0.010000  0.000800
   ENERGY =   -199.60422702122617     
   The hessian exhibits the "proper" 
   structure, and the gradient and energy 
   convergence criterion has been met.  
   This geometry walk is HISTORY.
   Calculating the Newton-Raphson step. 
  The length (norm) of the STEP is   0.000009

  The lowest few components in the bases 
  generated by the spectral decomposition 
  of the internal hessian (non-zero force). 

  Component  Hessian     Grad      Step   Scaled-Step
  ---------  --------  --------  -------- -----------
       1     0.11D+01  -.10D-04  0.90D-05  0.90D-05

  Clean-up the step; truncate at:   0.000001
  In cartesian coordinates; norm of this step is:   0.000008



  ---------------- Converged geometry ----------------


                         Geometry "g-4-step" -> "g-4-step"
                         ---------------------------------

 Output coordinates in angstroms (scale by  1.889725989 to convert to a.u.)

  No.       Tag          Charge          X              Y              Z
 ---- ---------------- ---------- -------------- -------------- --------------
    1 F                    9.0000     0.00000000     0.00000000    -0.66834761
    2 F                    9.0000     0.00000000     0.00000000     0.66834761

      Atomic Mass 
      ----------- 

      F                 18.998400


 Effective nuclear repulsion energy (a.u.)      32.0666644669

            Nuclear Dipole moment (a.u.) 
            ----------------------------
        X                 Y               Z
 ---------------- ---------------- ----------------
     0.0000000000     0.0000000000     0.0000000000


 Task  times  cpu:        4.5s     wall:        7.1s


                                NWChem Input Module
                                -------------------


 Summary of allocated global arrays
-----------------------------------
  No active global arrays



                         GA Statistics for process    0
                         ------------------------------

       create   destroy   get      put      acc     scatter   gather  read&inc
calls:  537      537     5825     3349      565        0        0      372     
number of processes/call 1.62e+00 1.58e+00 4.24e+00 0.00e+00 0.00e+00
bytes total:             5.22e+07 9.97e+06 2.43e+07 0.00e+00 0.00e+00 2.98e+03
bytes remote:            3.68e+07 4.16e+06 1.91e+07 0.00e+00 0.00e+00 0.00e+00
Max memory consumed for GA by this process: 583200 bytes

MA_summarize_allocated_blocks: starting scan ...
MA_summarize_allocated_blocks: scan completed: 0 heap blocks, 0 stack blocks
MA usage statistics:

	allocation statistics:
					      heap	     stack
					      ----	     -----
	current number of blocks	         0	         0
	maximum number of blocks	        23	        51
	current total bytes		         0	         0
	maximum total bytes		   9656200	  42214632
	maximum total K-bytes		      9657	     42215
	maximum total M-bytes		        10	        43


                                     CITATION
                                     --------
                Please cite the following reference when publishing
                           results obtained with NWChem:

                 M. Valiev, E.J. Bylaska, N. Govind, K. Kowalski,
              T.P. Straatsma, H.J.J. van Dam, D. Wang, J. Nieplocha,
                        E. Apra, T.L. Windus, W.A. de Jong
                 "NWChem: a comprehensive and scalable open-source
                  solution for large scale molecular simulations"
                      Comput. Phys. Commun. 181, 1477 (2010)
                           doi:10.1016/j.cpc.2010.04.018

                                      AUTHORS
                                      -------
          E. Apra, E. J. Bylaska, W. A. de Jong, N. Govind, K. Kowalski,
       T. P. Straatsma, M. Valiev, H. J. J. van Dam, D. Wang, T. L. Windus,
        J. Hammond, J. Autschbach, K. Bhaskaran-Nair, J. Brabec, K. Lopata,
       S. A. Fischer, S. Krishnamoorthy, W. Ma, M. Klemm, O. Villa, Y. Chen,
    V. Anisimov, F. Aquino, S. Hirata, M. T. Hackler, T. Risthaus, M. Malagoli,
       A. Marenich, A. Otero-de-la-Roza, J. Mullin, P. Nichols, R. Peverati,
     J. Pittner, Y. Zhao, P.-D. Fan, A. Fonari, M. Williamson, R. J. Harrison,
       J. R. Rehr, M. Dupuis, D. Silverstein, D. M. A. Smith, J. Nieplocha,
        V. Tipparaju, M. Krishnan, B. E. Van Kuiken, A. Vazquez-Mayagoitia,
        L. Jensen, M. Swart, Q. Wu, T. Van Voorhis, A. A. Auer, M. Nooijen,
      L. D. Crosby, E. Brown, G. Cisneros, G. I. Fann, H. Fruchtl, J. Garza,
        K. Hirao, R. A. Kendall, J. A. Nichols, K. Tsemekhman, K. Wolinski,
     J. Anchell, D. E. Bernholdt, P. Borowski, T. Clark, D. Clerc, H. Dachsel,
   M. J. O. Deegan, K. Dyall, D. Elwood, E. Glendening, M. Gutowski, A. C. Hess,
         J. Jaffe, B. G. Johnson, J. Ju, R. Kobayashi, R. Kutteh, Z. Lin,
   R. Littlefield, X. Long, B. Meng, T. Nakajima, S. Niu, L. Pollack, M. Rosing,
   K. Glaesemann, G. Sandrone, M. Stave, H. Taylor, G. Thomas, J. H. van Lenthe,
                               A. T. Wong, Z. Zhang.

 Total times  cpu:        4.5s     wall:        7.3s
