[1537857277.589053] [r8n4:11830:0]         sys.c:744  MXM  WARN  Conflicting CPU frequencies detected, using: 1592.12
[1537857277.594227] [r8n4:11834:0]         sys.c:744  MXM  WARN  Conflicting CPU frequencies detected, using: 1592.12
[1537857277.594280] [r8n4:11832:0]         sys.c:744  MXM  WARN  Conflicting CPU frequencies detected, using: 1592.12
[1537857277.594516] [r8n4:11831:0]         sys.c:744  MXM  WARN  Conflicting CPU frequencies detected, using: 1592.12
[1537857277.594760] [r8n4:11833:0]         sys.c:744  MXM  WARN  Conflicting CPU frequencies detected, using: 1592.12
[1537857277.594768] [r8n4:11836:0]         sys.c:744  MXM  WARN  Conflicting CPU frequencies detected, using: 1592.12
[1537857277.594925] [r8n4:11835:0]         sys.c:744  MXM  WARN  Conflicting CPU frequencies detected, using: 1592.12
[1537857277.594990] [r8n4:11843:0]         sys.c:744  MXM  WARN  Conflicting CPU frequencies detected, using: 1592.12
[1537857277.601364] [r8n4:11844:0]         sys.c:744  MXM  WARN  Conflicting CPU frequencies detected, using: 1499.58
[1537857277.601940] [r8n4:11845:0]         sys.c:744  MXM  WARN  Conflicting CPU frequencies detected, using: 1499.58
[1537857277.640024] [r8n4:11849:0]         sys.c:744  MXM  WARN  Conflicting CPU frequencies detected, using: 1894.89
[1537857277.640025] [r8n4:11847:0]         sys.c:744  MXM  WARN  Conflicting CPU frequencies detected, using: 1894.89
[1537857277.640025] [r8n4:11850:0]         sys.c:744  MXM  WARN  Conflicting CPU frequencies detected, using: 1894.89
[1537857277.640060] [r8n4:11852:0]         sys.c:744  MXM  WARN  Conflicting CPU frequencies detected, using: 1894.89
[1537857277.640105] [r8n4:11854:0]         sys.c:744  MXM  WARN  Conflicting CPU frequencies detected, using: 1894.89
[1537857277.640292] [r8n4:11846:0]         sys.c:744  MXM  WARN  Conflicting CPU frequencies detected, using: 1894.89
 argument  1 = /storage/home/bikashp/nwchem_run/rabeet/mgbl19/nwmgbl19/H2.xyz.nw
                                         
                                         


              Northwest Computational Chemistry Package (NWChem) 6.6
              ------------------------------------------------------


                    Environmental Molecular Sciences Laboratory
                       Pacific Northwest National Laboratory
                                Richland, WA 99352

                              Copyright (c) 1994-2015
                       Pacific Northwest National Laboratory
                            Battelle Memorial Institute

             NWChem is an open-source computational chemistry package
                        distributed under the terms of the
                      Educational Community License (ECL) 2.0
             A copy of the license is included with this distribution
                              in the LICENSE.TXT file

                                  ACKNOWLEDGMENT
                                  --------------

            This software and its documentation were developed at the
            EMSL at Pacific Northwest National Laboratory, a multiprogram
            national laboratory, operated for the U.S. Department of Energy
            by Battelle under Contract Number DE-AC05-76RL01830. Support
            for this work was provided by the Department of Energy Office
            of Biological and Environmental Research, Office of Basic
            Energy Sciences, and the Office of Advanced Scientific Computing.


           Job information
           ---------------

    hostname        = r8n4.niserhpc.org
    program         = /home/bikashp/Code/nwchem-6.6_tpssloc/bin/LINUX64/nwchem
    date            = Tue Sep 25 12:04:40 2018

    compiled        = Tue_Sep_18_16:24:59_2018
    source          = /home/bikashp/Code/nwchem-6.6_tpssloc
    nwchem branch   = 6.6
    nwchem revision = 27746
    ga revision     = 10594
    input           = /storage/home/bikashp/nwchem_run/rabeet/mgbl19/nwmgbl19/H2.xyz.nw
    prefix          = H2.xyz.
    data base       = ./H2.xyz.db
    status          = startup
    nproc           =       16
    time left       =     -1s



           Memory information
           ------------------

    heap     =   13107196 doubles =    100.0 Mbytes
    stack    =   13107201 doubles =    100.0 Mbytes
    global   =   26214400 doubles =    200.0 Mbytes (distinct from heap & stack)
    total    =   52428797 doubles =    400.0 Mbytes
    verify   = yes
    hardfail = no 


           Directory information
           ---------------------

  0 permanent = .
  0 scratch   = .




                                NWChem Input Module
                                -------------------



 Scaling coordinates for geometry "geometry" by  1.889725989
 (inverse scale =  0.529177249)



                             Geometry "geometry" -> ""
                             -------------------------

 Output coordinates in angstroms (scale by  1.889725989 to convert to a.u.)

  No.       Tag          Charge          X              Y              Z
 ---- ---------------- ---------- -------------- -------------- --------------
    1 H                    1.0000     0.00000000     0.00000000     0.36858000
    2 H                    1.0000     0.00000000     0.00000000    -0.36858000

      Atomic Mass 
      ----------- 

      H                  1.007825


 Effective nuclear repulsion energy (a.u.)       0.7178594186

            Nuclear Dipole moment (a.u.) 
            ----------------------------
        X                 Y               Z
 ---------------- ---------------- ----------------
     0.0000000000     0.0000000000     0.0000000000


            XYZ format geometry
            -------------------
     2
 geometry
 H                     0.00000000     0.00000000     0.36858000
 H                     0.00000000     0.00000000    -0.36858000



 Summary of "ao basis" -> "" (cartesian)
 ------------------------------------------------------------------------------
       Tag                 Description            Shells   Functions and Types
 ---------------- ------------------------------  ------  ---------------------
 *                     6-311++G(3df,3pd)              on all atoms 




                           NWChem Geometry Optimization
                           ----------------------------



                                 NWChem DFT Module
                                 -----------------


                      Basis "ao basis" -> "ao basis" (cartesian)
                      -----
  H (Hydrogen)
  ------------
            Exponent  Coefficients 
       -------------- ---------------------------------------------------------
  1 S  3.38650000E+01  0.025494
  1 S  5.09479000E+00  0.190373
  1 S  1.15879000E+00  0.852161

  2 S  3.25840000E-01  1.000000

  3 S  1.02741000E-01  1.000000

  4 S  3.60000000E-02  1.000000

  5 P  3.00000000E+00  1.000000

  6 P  7.50000000E-01  1.000000

  7 P  1.87500000E-01  1.000000

  8 D  1.00000000E+00  1.000000



 Summary of "ao basis" -> "ao basis" (cartesian)
 ------------------------------------------------------------------------------
       Tag                 Description            Shells   Functions and Types
 ---------------- ------------------------------  ------  ---------------------
 H                     6-311++G(3df,3pd)             8       19   4s3p1d




 Summary of "ao basis" -> "ao basis" (cartesian)
 ------------------------------------------------------------------------------
       Tag                 Description            Shells   Functions and Types
 ---------------- ------------------------------  ------  ---------------------
 H                     6-311++G(3df,3pd)             8       19   4s3p1d


  Caching 1-el integrals 

            General Information
            -------------------
          SCF calculation type: DFT
          Wavefunction type:  closed shell.
          No. of atoms     :     2
          No. of electrons :     2
           Alpha electrons :     1
            Beta electrons :     1
          Charge           :     0
          Spin multiplicity:     1
          Use of symmetry is: off; symmetry adaption is: off
          Maximum number of iterations: ***
          AO basis - number of functions:    38
                     number of shells:    16
          Convergence on energy requested: 1.00D-06
          Convergence on density requested: 1.00D-05
          Convergence on gradient requested: 5.00D-04

              XC Information
              --------------
                  TPSS metaGGA Exchange Functional  1.000          
             TPSS03 metaGGA Correlation Functional  1.000          

             Grid Information
             ----------------
          Grid used for XC integration:  medium    
          Radial quadrature: Mura-Knowles        
          Angular quadrature: Lebedev. 
          Tag              B.-S. Rad. Rad. Pts. Rad. Cut. Ang. Pts.
          ---              ---------- --------- --------- ---------
          H                   0.35       45          10.0       434
          Grid pruning is: on 
          Number of quadrature shells:    90
          Spatial weights used:  Erf1

          Convergence Information
          -----------------------
          Convergence aids based upon iterative change in 
          total energy or number of iterations. 
          Levelshifting, if invoked, occurs when the 
          HOMO/LUMO gap drops below (HL_TOL): 1.00D-02
          DIIS, if invoked, will attempt to extrapolate 
          using up to (NFOCK): 10 stored Fock matrices.

                    Damping( 0%)  Levelshifting(0.5)       DIIS
                  --------------- ------------------- ---------------
          dE  on:    start            ASAP                start   
          dE off:    2 iters        *** iters           *** iters 


      Screening Tolerance Information
      -------------------------------
          Density screening/tol_rho: 1.00D-10
          AO Gaussian exp screening on grid/accAOfunc:  14
          CD Gaussian exp screening on grid/accCDfunc:  20
          XC Gaussian exp screening on grid/accXCfunc:  20
          Schwarz screening/accCoul: 1.00D-08


      Superposition of Atomic Density Guess
      -------------------------------------

 Sum of atomic energies:          -0.99963633

      Non-variational initial energy
      ------------------------------

 Total energy =      -0.851325
 1-e energy   =      -2.223167
 2-e energy   =       0.653983
 HOMO         =      -0.587675
 LUMO         =       0.059187

   Time after variat. SCF:      0.3
   Time prior to 1st pass:      0.3

 #quartets = 9.316D+03 #integrals = 8.098D+04 #direct =  0.0% #cached =100.0%


 Integral file          = ./H2.xyz.aoints.00
 Record size in doubles =    65536    No. of integs per rec  =    43688
 Max. records in memory =        2    Max. records in file   = 11666352
 No. of bits per label  =        8    No. of bits per value  =       64


File balance: exchanges=     0  moved=     0  time=   0.0


 Grid_pts file          = ./H2.xyz.gridpts.00
 Record size in doubles =  12289        No. of grid_pts per rec  =   3070
 Max. records in memory =      2        Max. recs in file   =  62215488


           Memory utilization after 1st SCF pass: 
           Heap Space remaining (MW):       12.95            12950164
          Stack Space remaining (MW):       13.11            13106868

   convergence    iter        energy       DeltaE   RMS-Dens  Diis-err    time
 ---------------- ----- ----------------- --------- --------- ---------  ------
 d= 0,ls=0.0,diis     1     -1.1727887143 -1.89D+00  2.51D-03  3.65D-02     0.6
 d= 0,ls=0.0,diis     2     -1.1697332291  3.06D-03  3.36D-04  1.13D-03     0.6
 d= 0,ls=0.0,diis     3     -1.1695661580  1.67D-04  7.45D-05  1.34D-05     0.6
 d= 0,ls=0.0,diis     4     -1.1693892274  1.77D-04  2.78D-05  2.32D-06     0.6
 d= 0,ls=0.0,diis     5     -1.1693832994  5.93D-06  1.35D-06  7.35D-09     0.6
  Resetting Diis
 d= 0,ls=0.0,diis     6     -1.1693789180  4.38D-06  1.62D-07  2.45D-10     0.6
 d= 0,ls=0.0,diis     7     -1.1693792023 -2.84D-07  1.36D-08  2.44D-13     0.7


         Total DFT energy =       -1.169379202340
      One electron energy =       -2.482633467427
           Coulomb energy =        1.274137886405
          Exchange energy =       -0.640356349024
       Correlation energy =       -0.038386690873
 Nuclear repulsion energy =        0.717859418579

 Numeric. integr. density =        1.999999893019

     Total iterative time =      0.4s



                       DFT Final Molecular Orbital Analysis
                       ------------------------------------

 Vector    1  Occ=2.000000D+00  E=-4.302225D-01
              MO Center=  1.6D-15, -4.8D-15,  6.6D-16, r^2= 7.6D-01
   Bfn.  Coefficient  Atom+Function         Bfn.  Coefficient  Atom+Function  
  ----- ------------  ---------------      ----- ------------  ---------------
     2      0.308059  1 H  s                 21      0.308059  2 H  s          
     1      0.169297  1 H  s                 20      0.169297  2 H  s          

 Vector    2  Occ=0.000000D+00  E= 1.940870D-04
              MO Center=  7.3D-16, -5.5D-16, -2.7D-14, r^2= 5.5D+00
   Bfn.  Coefficient  Atom+Function         Bfn.  Coefficient  Atom+Function  
  ----- ------------  ---------------      ----- ------------  ---------------
     4      2.337891  1 H  s                 23     -2.337891  2 H  s          
     3      0.399333  1 H  s                 22     -0.399333  2 H  s          
     2      0.210699  1 H  s                 21     -0.210699  2 H  s          

 Vector    3  Occ=0.000000D+00  E= 3.185623D-02
              MO Center= -1.8D-15,  2.0D-15,  1.2D-14, r^2= 9.0D+00
   Bfn.  Coefficient  Atom+Function         Bfn.  Coefficient  Atom+Function  
  ----- ------------  ---------------      ----- ------------  ---------------
     4      0.778587  1 H  s                 23      0.778587  2 H  s          
     3     -0.422533  1 H  s                 22     -0.422533  2 H  s          

 Vector    4  Occ=0.000000D+00  E= 1.129444D-01
              MO Center=  7.5D-16, -1.5D-15, -1.4D-14, r^2= 1.1D+01
   Bfn.  Coefficient  Atom+Function         Bfn.  Coefficient  Atom+Function  
  ----- ------------  ---------------      ----- ------------  ---------------
     4      5.534345  1 H  s                 23     -5.534345  2 H  s          
     3     -4.248930  1 H  s                 22      4.248930  2 H  s          
     2     -0.809605  1 H  s                 21      0.809605  2 H  s          
    13      0.569455  1 H  pz                32      0.569455  2 H  pz         

 Vector    5  Occ=0.000000D+00  E= 1.599956D-01
              MO Center=  2.5D-16,  4.5D-15, -4.5D-15, r^2= 2.0D+00
   Bfn.  Coefficient  Atom+Function         Bfn.  Coefficient  Atom+Function  
  ----- ------------  ---------------      ----- ------------  ---------------
    12      0.522700  1 H  py                31      0.522700  2 H  py         

 Vector    6  Occ=0.000000D+00  E= 1.599956D-01
              MO Center= -2.0D-15, -8.6D-16, -1.9D-15, r^2= 2.0D+00
   Bfn.  Coefficient  Atom+Function         Bfn.  Coefficient  Atom+Function  
  ----- ------------  ---------------      ----- ------------  ---------------
    11      0.522700  1 H  px                30      0.522700  2 H  px         

 Vector    7  Occ=0.000000D+00  E= 3.152959D-01
              MO Center=  1.9D-15, -4.0D-15,  3.1D-14, r^2= 5.9D+00
   Bfn.  Coefficient  Atom+Function         Bfn.  Coefficient  Atom+Function  
  ----- ------------  ---------------      ----- ------------  ---------------
     3      1.582285  1 H  s                 22      1.582285  2 H  s          
     2     -1.029858  1 H  s                 21     -1.029858  2 H  s          
     4     -0.777706  1 H  s                 23     -0.777706  2 H  s          
    13      0.244508  1 H  pz                32     -0.244508  2 H  pz         

 Vector    8  Occ=0.000000D+00  E= 4.093220D-01
              MO Center= -1.4D-14, -6.2D-14, -8.2D-14, r^2= 6.9D+00
   Bfn.  Coefficient  Atom+Function         Bfn.  Coefficient  Atom+Function  
  ----- ------------  ---------------      ----- ------------  ---------------
     3     10.262484  1 H  s                 22    -10.262484  2 H  s          
     4     -4.401352  1 H  s                 23      4.401352  2 H  s          
    13     -2.456397  1 H  pz                32     -2.456397  2 H  pz         
     2      1.405117  1 H  s                 21     -1.405117  2 H  s          
    10     -0.157323  1 H  pz                29     -0.157323  2 H  pz         

 Vector    9  Occ=0.000000D+00  E= 4.329497D-01
              MO Center= -2.2D-14,  1.6D-14, -4.9D-15, r^2= 2.7D+00
   Bfn.  Coefficient  Atom+Function         Bfn.  Coefficient  Atom+Function  
  ----- ------------  ---------------      ----- ------------  ---------------
    11      1.420110  1 H  px                30     -1.420110  2 H  px         
    12     -1.054982  1 H  py                31      1.054982  2 H  py         

 Vector   10  Occ=0.000000D+00  E= 4.329497D-01
              MO Center=  3.6D-14,  4.8D-14,  9.3D-15, r^2= 2.7D+00
   Bfn.  Coefficient  Atom+Function         Bfn.  Coefficient  Atom+Function  
  ----- ------------  ---------------      ----- ------------  ---------------
    12      1.420110  1 H  py                31     -1.420110  2 H  py         
    11      1.054982  1 H  px                30     -1.054982  2 H  px         

 Vector   11  Occ=0.000000D+00  E= 4.390724D-01
              MO Center=  1.2D-15,  2.7D-15,  3.4D-15, r^2= 2.7D+00
   Bfn.  Coefficient  Atom+Function         Bfn.  Coefficient  Atom+Function  
  ----- ------------  ---------------      ----- ------------  ---------------
    13      1.425982  1 H  pz                32     -1.425982  2 H  pz         
     2      1.066738  1 H  s                 21      1.066738  2 H  s          
     3     -0.603930  1 H  s                 22     -0.603930  2 H  s          

 Vector   12  Occ=0.000000D+00  E= 9.326182D-01
              MO Center= -1.8D-15,  3.4D-16,  4.6D-14, r^2= 4.0D+00
   Bfn.  Coefficient  Atom+Function         Bfn.  Coefficient  Atom+Function  
  ----- ------------  ---------------      ----- ------------  ---------------
     3     10.848552  1 H  s                 22    -10.848552  2 H  s          
     2      7.684907  1 H  s                 21     -7.684907  2 H  s          
    13     -4.805536  1 H  pz                32     -4.805536  2 H  pz         
     4     -2.531068  1 H  s                 23      2.531068  2 H  s          
    10     -0.810869  1 H  pz                29     -0.810869  2 H  pz         


 center of mass
 --------------
 x =   0.00000000 y =   0.00000000 z =   0.00000000

 moments of inertia (a.u.)
 ------------------
           0.977859199422           0.000000000000           0.000000000000
           0.000000000000           0.977859199422           0.000000000000
           0.000000000000           0.000000000000           0.000000000000

     Multipole analysis of the density
     ---------------------------------

     L   x y z        total         alpha         beta         nuclear
     -   - - -        -----         -----         ----         -------
     0   0 0 0     -0.000000     -1.000000     -1.000000      2.000000

     1   1 0 0     -0.000000     -0.000000     -0.000000      0.000000
     1   0 1 0      0.000000      0.000000      0.000000      0.000000
     1   0 0 1     -0.000000     -0.000000     -0.000000      0.000000

     2   2 0 0     -1.632049     -0.816024     -0.816024      0.000000
     2   1 1 0     -0.000000     -0.000000     -0.000000      0.000000
     2   1 0 1      0.000000      0.000000      0.000000      0.000000
     2   0 2 0     -1.632049     -0.816024     -0.816024      0.000000
     2   0 1 1      0.000000      0.000000      0.000000      0.000000
     2   0 0 2     -1.161977     -1.066122     -1.066122      0.970267


 Parallel integral file used      16 records with       0 large values


            General Information
            -------------------
          SCF calculation type: DFT
          Wavefunction type:  closed shell.
          No. of atoms     :     2
          No. of electrons :     2
           Alpha electrons :     1
            Beta electrons :     1
          Charge           :     0
          Spin multiplicity:     1
          Use of symmetry is: off; symmetry adaption is: off
          Maximum number of iterations: ***
          AO basis - number of functions:    38
                     number of shells:    16
          Convergence on energy requested: 1.00D-06
          Convergence on density requested: 1.00D-05
          Convergence on gradient requested: 5.00D-04

              XC Information
              --------------
                  TPSS metaGGA Exchange Functional  1.000          
             TPSS03 metaGGA Correlation Functional  1.000          

             Grid Information
             ----------------
          Grid used for XC integration:  medium    
          Radial quadrature: Mura-Knowles        
          Angular quadrature: Lebedev. 
          Tag              B.-S. Rad. Rad. Pts. Rad. Cut. Ang. Pts.
          ---              ---------- --------- --------- ---------
          H                   0.35       45          10.0       434
          Grid pruning is: on 
          Number of quadrature shells:    90
          Spatial weights used:  Erf1

          Convergence Information
          -----------------------
          Convergence aids based upon iterative change in 
          total energy or number of iterations. 
          Levelshifting, if invoked, occurs when the 
          HOMO/LUMO gap drops below (HL_TOL): 1.00D-02
          DIIS, if invoked, will attempt to extrapolate 
          using up to (NFOCK): 10 stored Fock matrices.

                    Damping( 0%)  Levelshifting(0.5)       DIIS
                  --------------- ------------------- ---------------
          dE  on:    start            ASAP                start   
          dE off:    2 iters        *** iters           *** iters 


      Screening Tolerance Information
      -------------------------------
          Density screening/tol_rho: 1.00D-10
          AO Gaussian exp screening on grid/accAOfunc:  14
          CD Gaussian exp screening on grid/accCDfunc:  20
          XC Gaussian exp screening on grid/accXCfunc:  20
          Schwarz screening/accCoul: 1.00D-08



                            NWChem DFT Gradient Module
                            --------------------------



  charge          =   0.00
  wavefunction    = closed shell



                         DFT ENERGY GRADIENTS

    atom               coordinates                        gradient
                 x          y          z           x          y          z
   1 H       0.000000   0.000000   0.696515    0.000000  -0.000000  -0.026038
   2 H       0.000000   0.000000  -0.696515   -0.000000   0.000000   0.026038

                 ----------------------------------------
                 |  Time  |  1-e(secs)   |  2-e(secs)   |
                 ----------------------------------------
                 |  CPU   |       0.00   |       0.00   |
                 ----------------------------------------
                 |  WALL  |       0.00   |       0.01   |
                 ----------------------------------------
                               NWChem STEPPER Module
                               ---------------------


   Step sought for minimum. 
   Update Hessian used. 
   Nuclear Hessian initialized with UNIT matrix. 
   Dependent rotation vector no.                    3
   found in ECKART; linear geometry  assumed. 
   Number of modes removed with force (in the spectral representation)
   less than:   0.000000 is:    0
   PARTIT has partitioned the input hessian 
   and gradient into two subspaces;  An 
   "external" hessian and gradient composed 
   of                     5  independent translations 
   and rotations, and an "internal" hessian 
   and gradient with a dimension of                     1
               e-diff         g-norm     g-max   
 value       -1.1693792023  0.036824  0.026038
 thres        0.0001000000  0.010000  0.000800
  trust radius =     0.10
   Calculating the Newton-Raphson step. 
  The length (norm) of the STEP is   0.036824

  The lowest few components in the bases 
  generated by the spectral decomposition 
  of the internal hessian (non-zero force). 

  Component  Hessian     Grad      Step   Scaled-Step
  ---------  --------  --------  -------- -----------
       1     0.10D+01  -.37D-01  0.37D-01  0.37D-01

  Clean-up the step; truncate at:   0.000001
  In cartesian coordinates; norm of this step is:   0.036823
         Walk statistics for step:   1
     Previous actual total energy:   0.000000000000D+00
      Current actual total energy:  -0.116937920234D+01
         Actual energy difference:  -0.116937920234D+01 threshold:         0.100000D-03
    Second order energy predicted:   0.000000000000D+00
             Ratio of differences:   0.000000000000D+00
               Fixed trust radius:   0.100000000000D+00
   Number of negative eigenvalues:   0
   Max absolute value of Gradient:   0.260384281885D-01 threshold:         0.800000D-03
                    Gradient norm:   0.368238982870D-01 threshold:         0.100000D-01
                RMS Gradient norm:   0.260384281885D-01
  Largest component of step v-tor:   0.368240000000D-01
  New 2nd order energy prediction:  -0.677999742520D-03



  ------------------- New geometry -------------------


                         Geometry "g-1-step" -> "g-1-step"
                         ---------------------------------

 Output coordinates in angstroms (scale by  1.889725989 to convert to a.u.)

  No.       Tag          Charge          X              Y              Z
 ---- ---------------- ---------- -------------- -------------- --------------
    1 H                    1.0000     0.00000000     0.00000000     0.38235872
    2 H                    1.0000     0.00000000     0.00000000    -0.38235872

      Atomic Mass 
      ----------- 

      H                  1.007825


 Effective nuclear repulsion energy (a.u.)       0.6919905643

            Nuclear Dipole moment (a.u.) 
            ----------------------------
        X                 Y               Z
 ---------------- ---------------- ----------------
     0.0000000000     0.0000000000     0.0000000000


                                 NWChem DFT Module
                                 -----------------




 Summary of "ao basis" -> "ao basis" (cartesian)
 ------------------------------------------------------------------------------
       Tag                 Description            Shells   Functions and Types
 ---------------- ------------------------------  ------  ---------------------
 H                     6-311++G(3df,3pd)             8       19   4s3p1d


  Caching 1-el integrals 

            General Information
            -------------------
          SCF calculation type: DFT
          Wavefunction type:  closed shell.
          No. of atoms     :     2
          No. of electrons :     2
           Alpha electrons :     1
            Beta electrons :     1
          Charge           :     0
          Spin multiplicity:     1
          Use of symmetry is: off; symmetry adaption is: off
          Maximum number of iterations: ***
          AO basis - number of functions:    38
                     number of shells:    16
          Convergence on energy requested: 1.00D-06
          Convergence on density requested: 1.00D-05
          Convergence on gradient requested: 5.00D-04

              XC Information
              --------------
                  TPSS metaGGA Exchange Functional  1.000          
             TPSS03 metaGGA Correlation Functional  1.000          

             Grid Information
             ----------------
          Grid used for XC integration:  medium    
          Radial quadrature: Mura-Knowles        
          Angular quadrature: Lebedev. 
          Tag              B.-S. Rad. Rad. Pts. Rad. Cut. Ang. Pts.
          ---              ---------- --------- --------- ---------
          H                   0.35       45          10.0       434
          Grid pruning is: on 
          Number of quadrature shells:    90
          Spatial weights used:  Erf1

          Convergence Information
          -----------------------
          Convergence aids based upon iterative change in 
          total energy or number of iterations. 
          Levelshifting, if invoked, occurs when the 
          HOMO/LUMO gap drops below (HL_TOL): 1.00D-02
          DIIS, if invoked, will attempt to extrapolate 
          using up to (NFOCK): 10 stored Fock matrices.

                    Damping( 0%)  Levelshifting(0.5)       DIIS
                  --------------- ------------------- ---------------
          dE  on:    start            ASAP                start   
          dE off:    2 iters        *** iters           *** iters 


      Screening Tolerance Information
      -------------------------------
          Density screening/tol_rho: 1.00D-10
          AO Gaussian exp screening on grid/accAOfunc:  14
          CD Gaussian exp screening on grid/accCDfunc:  20
          XC Gaussian exp screening on grid/accXCfunc:  20
          Schwarz screening/accCoul: 1.00D-08


 Loading old vectors from job with title :



   Time after variat. SCF:      0.7
   Time prior to 1st pass:      0.7

 #quartets = 9.316D+03 #integrals = 8.098D+04 #direct =  0.0% #cached =100.0%


 Integral file          = ./H2.xyz.aoints.00
 Record size in doubles =  65536        No. of integs per rec  =  43688
 Max. records in memory =      2        Max. records in file   = 170000
 No. of bits per label  =      8        No. of bits per value  =     64


File balance: exchanges=     0  moved=     0  time=   0.0


 Grid_pts file          = ./H2.xyz.gridpts.00
 Record size in doubles =  12289        No. of grid_pts per rec  =   3070
 Max. records in memory =      2        Max. recs in file   =  62204352


           Memory utilization after 1st SCF pass: 
           Heap Space remaining (MW):       12.95            12950212
          Stack Space remaining (MW):       13.11            13106868

   convergence    iter        energy       DeltaE   RMS-Dens  Diis-err    time
 ---------------- ----- ----------------- --------- --------- ---------  ------
 d= 0,ls=0.0,diis     1     -1.1703290177 -1.86D+00  3.96D-04  1.35D-03     0.9
 d= 0,ls=0.0,diis     2     -1.1690270311  1.30D-03  1.50D-04  1.56D-04     0.9
 d= 0,ls=0.0,diis     3     -1.1691484953 -1.21D-04  3.79D-05  2.40D-06     0.9
 d= 0,ls=0.0,diis     4     -1.1690911024  5.74D-05  5.13D-06  8.80D-08     0.9
 d= 0,ls=0.0,diis     5     -1.1690890682  2.03D-06  1.81D-07  6.36D-11     1.0
 d= 0,ls=0.0,diis     6     -1.1690891355 -6.73D-08  2.83D-08  1.43D-12     1.0


         Total DFT energy =       -1.169089135485
      One electron energy =       -2.446512619854
           Coulomb energy =        1.254984152137
          Exchange energy =       -0.631214598256
       Correlation energy =       -0.038336633846
 Nuclear repulsion energy =        0.691990564334

 Numeric. integr. density =        2.000000741661

     Total iterative time =      0.2s



                       DFT Final Molecular Orbital Analysis
                       ------------------------------------

 Vector    1  Occ=2.000000D+00  E=-4.249640D-01
              MO Center=  1.2D-15, -2.9D-15, -5.2D-15, r^2= 7.8D-01
   Bfn.  Coefficient  Atom+Function         Bfn.  Coefficient  Atom+Function  
  ----- ------------  ---------------      ----- ------------  ---------------
     2      0.310828  1 H  s                 21      0.310828  2 H  s          
     1      0.164473  1 H  s                 20      0.164473  2 H  s          

 Vector    2  Occ=0.000000D+00  E=-4.984429D-03
              MO Center=  2.7D-15, -1.7D-15,  1.2D-14, r^2= 5.2D+00
   Bfn.  Coefficient  Atom+Function         Bfn.  Coefficient  Atom+Function  
  ----- ------------  ---------------      ----- ------------  ---------------
     4      2.104047  1 H  s                 23     -2.104047  2 H  s          
     3      0.462253  1 H  s                 22     -0.462253  2 H  s          
     2      0.239949  1 H  s                 21     -0.239949  2 H  s          

 Vector    3  Occ=0.000000D+00  E= 3.183937D-02
              MO Center=  8.7D-16,  1.4D-15, -1.7D-14, r^2= 9.0D+00
   Bfn.  Coefficient  Atom+Function         Bfn.  Coefficient  Atom+Function  
  ----- ------------  ---------------      ----- ------------  ---------------
     4      0.782378  1 H  s                 23      0.782378  2 H  s          
     3     -0.429813  1 H  s                 22     -0.429813  2 H  s          

 Vector    4  Occ=0.000000D+00  E= 1.093606D-01
              MO Center=  2.0D-15, -6.6D-16, -2.0D-14, r^2= 1.1D+01
   Bfn.  Coefficient  Atom+Function         Bfn.  Coefficient  Atom+Function  
  ----- ------------  ---------------      ----- ------------  ---------------
     4      5.351606  1 H  s                 23     -5.351606  2 H  s          
     3     -3.949020  1 H  s                 22      3.949020  2 H  s          
     2     -0.729506  1 H  s                 21      0.729506  2 H  s          
    13      0.535763  1 H  pz                32      0.535763  2 H  pz         

 Vector    5  Occ=0.000000D+00  E= 1.565578D-01
              MO Center=  1.2D-15,  1.9D-15,  5.7D-15, r^2= 2.0D+00
   Bfn.  Coefficient  Atom+Function         Bfn.  Coefficient  Atom+Function  
  ----- ------------  ---------------      ----- ------------  ---------------
    12      0.522330  1 H  py                31      0.522330  2 H  py         

 Vector    6  Occ=0.000000D+00  E= 1.565578D-01
              MO Center= -2.3D-15,  3.8D-16,  4.2D-15, r^2= 2.0D+00
   Bfn.  Coefficient  Atom+Function         Bfn.  Coefficient  Atom+Function  
  ----- ------------  ---------------      ----- ------------  ---------------
    11      0.522330  1 H  px                30      0.522330  2 H  px         

 Vector    7  Occ=0.000000D+00  E= 3.160226D-01
              MO Center= -1.9D-15, -2.3D-15, -2.6D-14, r^2= 5.9D+00
   Bfn.  Coefficient  Atom+Function         Bfn.  Coefficient  Atom+Function  
  ----- ------------  ---------------      ----- ------------  ---------------
     3      1.582209  1 H  s                 22      1.582209  2 H  s          
     2     -1.028962  1 H  s                 21     -1.028962  2 H  s          
     4     -0.777151  1 H  s                 23     -0.777151  2 H  s          
    13      0.261450  1 H  pz                32     -0.261450  2 H  pz         

 Vector    8  Occ=0.000000D+00  E= 4.063411D-01
              MO Center= -6.8D-15,  3.5D-14,  2.5D-14, r^2= 6.9D+00
   Bfn.  Coefficient  Atom+Function         Bfn.  Coefficient  Atom+Function  
  ----- ------------  ---------------      ----- ------------  ---------------
     3      9.842237  1 H  s                 22     -9.842237  2 H  s          
     4     -4.260918  1 H  s                 23      4.260918  2 H  s          
    13     -2.398240  1 H  pz                32     -2.398240  2 H  pz         
     2      1.178617  1 H  s                 21     -1.178617  2 H  s          
     1     -0.150272  1 H  s                 20      0.150272  2 H  s          

 Vector    9  Occ=0.000000D+00  E= 4.279190D-01
              MO Center= -1.0D-14, -2.8D-14, -5.5D-15, r^2= 2.8D+00
   Bfn.  Coefficient  Atom+Function         Bfn.  Coefficient  Atom+Function  
  ----- ------------  ---------------      ----- ------------  ---------------
    12      1.600672  1 H  py                31     -1.600672  2 H  py         
    11      0.604859  1 H  px                30     -0.604859  2 H  px         

 Vector   10  Occ=0.000000D+00  E= 4.279190D-01
              MO Center=  1.4D-14, -5.4D-15, -3.5D-15, r^2= 2.8D+00
   Bfn.  Coefficient  Atom+Function         Bfn.  Coefficient  Atom+Function  
  ----- ------------  ---------------      ----- ------------  ---------------
    11      1.600672  1 H  px                30     -1.600672  2 H  px         
    12     -0.604859  1 H  py                31      0.604859  2 H  py         

 Vector   11  Occ=0.000000D+00  E= 4.340957D-01
              MO Center=  2.0D-15, -5.6D-16,  1.6D-15, r^2= 2.7D+00
   Bfn.  Coefficient  Atom+Function         Bfn.  Coefficient  Atom+Function  
  ----- ------------  ---------------      ----- ------------  ---------------
    13      1.369702  1 H  pz                32     -1.369702  2 H  pz         
     2      1.072314  1 H  s                 21      1.072314  2 H  s          
     3     -0.623045  1 H  s                 22     -0.623045  2 H  s          

 Vector   12  Occ=0.000000D+00  E= 9.167761D-01
              MO Center=  2.3D-16, -5.4D-16,  2.1D-14, r^2= 4.0D+00
   Bfn.  Coefficient  Atom+Function         Bfn.  Coefficient  Atom+Function  
  ----- ------------  ---------------      ----- ------------  ---------------
     3     10.383865  1 H  s                 22    -10.383865  2 H  s          
     2      7.245964  1 H  s                 21     -7.245964  2 H  s          
    13     -4.764141  1 H  pz                32     -4.764141  2 H  pz         
     4     -2.387764  1 H  s                 23      2.387764  2 H  s          
    10     -0.817752  1 H  pz                29     -0.817752  2 H  pz         


 center of mass
 --------------
 x =   0.00000000 y =   0.00000000 z =   0.00000000

 moments of inertia (a.u.)
 ------------------
           1.052336868783           0.000000000000           0.000000000000
           0.000000000000           1.052336868783           0.000000000000
           0.000000000000           0.000000000000           0.000000000000

     Multipole analysis of the density
     ---------------------------------

     L   x y z        total         alpha         beta         nuclear
     -   - - -        -----         -----         ----         -------
     0   0 0 0     -0.000000     -1.000000     -1.000000      2.000000

     1   1 0 0     -0.000000     -0.000000     -0.000000      0.000000
     1   0 1 0      0.000000      0.000000      0.000000      0.000000
     1   0 0 1      0.000000      0.000000      0.000000      0.000000

     2   2 0 0     -1.667723     -0.833861     -0.833861      0.000000
     2   1 1 0      0.000000      0.000000      0.000000      0.000000
     2   1 0 1     -0.000000     -0.000000     -0.000000      0.000000
     2   0 2 0     -1.667723     -0.833861     -0.833861      0.000000
     2   0 1 1      0.000000      0.000000      0.000000      0.000000
     2   0 0 2     -1.166997     -1.105582     -1.105582      1.044166


 Parallel integral file used      16 records with       0 large values


            General Information
            -------------------
          SCF calculation type: DFT
          Wavefunction type:  closed shell.
          No. of atoms     :     2
          No. of electrons :     2
           Alpha electrons :     1
            Beta electrons :     1
          Charge           :     0
          Spin multiplicity:     1
          Use of symmetry is: off; symmetry adaption is: off
          Maximum number of iterations: ***
          AO basis - number of functions:    38
                     number of shells:    16
          Convergence on energy requested: 1.00D-06
          Convergence on density requested: 1.00D-05
          Convergence on gradient requested: 5.00D-04

              XC Information
              --------------
                  TPSS metaGGA Exchange Functional  1.000          
             TPSS03 metaGGA Correlation Functional  1.000          

             Grid Information
             ----------------
          Grid used for XC integration:  medium    
          Radial quadrature: Mura-Knowles        
          Angular quadrature: Lebedev. 
          Tag              B.-S. Rad. Rad. Pts. Rad. Cut. Ang. Pts.
          ---              ---------- --------- --------- ---------
          H                   0.35       45          10.0       434
          Grid pruning is: on 
          Number of quadrature shells:    90
          Spatial weights used:  Erf1

          Convergence Information
          -----------------------
          Convergence aids based upon iterative change in 
          total energy or number of iterations. 
          Levelshifting, if invoked, occurs when the 
          HOMO/LUMO gap drops below (HL_TOL): 1.00D-02
          DIIS, if invoked, will attempt to extrapolate 
          using up to (NFOCK): 10 stored Fock matrices.

                    Damping( 0%)  Levelshifting(0.5)       DIIS
                  --------------- ------------------- ---------------
          dE  on:    start            ASAP                start   
          dE off:    2 iters        *** iters           *** iters 


      Screening Tolerance Information
      -------------------------------
          Density screening/tol_rho: 1.00D-10
          AO Gaussian exp screening on grid/accAOfunc:  14
          CD Gaussian exp screening on grid/accCDfunc:  20
          XC Gaussian exp screening on grid/accXCfunc:  20
          Schwarz screening/accCoul: 1.00D-08



                            NWChem DFT Gradient Module
                            --------------------------



  charge          =   0.00
  wavefunction    = closed shell



                         DFT ENERGY GRADIENTS

    atom               coordinates                        gradient
                 x          y          z           x          y          z
   1 H       0.000000   0.000000   0.722553   -0.000000   0.000000  -0.006956
   2 H       0.000000   0.000000  -0.722553    0.000000  -0.000000   0.006956

                 ----------------------------------------
                 |  Time  |  1-e(secs)   |  2-e(secs)   |
                 ----------------------------------------
                 |  CPU   |       0.00   |       0.00   |
                 ----------------------------------------
                 |  WALL  |       0.00   |       0.00   |
                 ----------------------------------------
                               NWChem STEPPER Module
                               ---------------------


   Step sought for minimum. 
  Energy ratio, actual to predicted =   0.427827
   Update Hessian used. 
   Dependent rotation vector no.                    3
   found in ECKART; linear geometry  assumed. 
   Number of modes removed with force (in the spectral representation)
   less than:   0.000000 is:    0
   PARTIT has partitioned the input hessian 
   and gradient into two subspaces;  An 
   "external" hessian and gradient composed 
   of                     5  independent translations 
   and rotations, and an "internal" hessian 
   and gradient with a dimension of                     1
               e-diff         g-norm     g-max   
 value        0.0002900669  0.009837  0.006956
 thres        0.0001000000  0.010000  0.000800
  trust radius =     0.10
   Calculating the Newton-Raphson step. 
  The length (norm) of the STEP is   0.013423

  The lowest few components in the bases 
  generated by the spectral decomposition 
  of the internal hessian (non-zero force). 

  Component  Hessian     Grad      Step   Scaled-Step
  ---------  --------  --------  -------- -----------
       1     0.73D+00  -.98D-02  0.13D-01  0.13D-01

  Clean-up the step; truncate at:   0.000001
  In cartesian coordinates; norm of this step is:   0.013422
         Walk statistics for step:   2
     Previous actual total energy:  -0.116937920234D+01
      Current actual total energy:  -0.116908913548D+01
         Actual energy difference:   0.290066855712D-03 threshold:         0.100000D-03
    Second order energy predicted:  -0.677999742520D-03
             Ratio of differences:   0.427827383287D+00
               Fixed trust radius:   0.100000000000D+00
   Number of negative eigenvalues:   0
   Max absolute value of Gradient:   0.695584472178D-02 threshold:         0.800000D-03
                    Gradient norm:   0.983704994330D-02 threshold:         0.100000D-01
                RMS Gradient norm:   0.695584472178D-02
  Largest component of step v-tor:   0.134230000000D-01
  New 2nd order energy prediction:  -0.660191925769D-04



  ------------------- New geometry -------------------


                         Geometry "g-2-step" -> "g-2-step"
                         ---------------------------------

 Output coordinates in angstroms (scale by  1.889725989 to convert to a.u.)

  No.       Tag          Charge          X              Y              Z
 ---- ---------------- ---------- -------------- -------------- --------------
    1 H                    1.0000     0.00000000     0.00000000     0.38738114
    2 H                    1.0000     0.00000000     0.00000000    -0.38738114

      Atomic Mass 
      ----------- 

      H                  1.007825


 Effective nuclear repulsion energy (a.u.)       0.6830188623

            Nuclear Dipole moment (a.u.) 
            ----------------------------
        X                 Y               Z
 ---------------- ---------------- ----------------
     0.0000000000     0.0000000000     0.0000000000


                                 NWChem DFT Module
                                 -----------------




 Summary of "ao basis" -> "ao basis" (cartesian)
 ------------------------------------------------------------------------------
       Tag                 Description            Shells   Functions and Types
 ---------------- ------------------------------  ------  ---------------------
 H                     6-311++G(3df,3pd)             8       19   4s3p1d


  Caching 1-el integrals 

            General Information
            -------------------
          SCF calculation type: DFT
          Wavefunction type:  closed shell.
          No. of atoms     :     2
          No. of electrons :     2
           Alpha electrons :     1
            Beta electrons :     1
          Charge           :     0
          Spin multiplicity:     1
          Use of symmetry is: off; symmetry adaption is: off
          Maximum number of iterations: ***
          AO basis - number of functions:    38
                     number of shells:    16
          Convergence on energy requested: 1.00D-06
          Convergence on density requested: 1.00D-05
          Convergence on gradient requested: 5.00D-04

              XC Information
              --------------
                  TPSS metaGGA Exchange Functional  1.000          
             TPSS03 metaGGA Correlation Functional  1.000          

             Grid Information
             ----------------
          Grid used for XC integration:  medium    
          Radial quadrature: Mura-Knowles        
          Angular quadrature: Lebedev. 
          Tag              B.-S. Rad. Rad. Pts. Rad. Cut. Ang. Pts.
          ---              ---------- --------- --------- ---------
          H                   0.35       45          10.0       434
          Grid pruning is: on 
          Number of quadrature shells:    90
          Spatial weights used:  Erf1

          Convergence Information
          -----------------------
          Convergence aids based upon iterative change in 
          total energy or number of iterations. 
          Levelshifting, if invoked, occurs when the 
          HOMO/LUMO gap drops below (HL_TOL): 1.00D-02
          DIIS, if invoked, will attempt to extrapolate 
          using up to (NFOCK): 10 stored Fock matrices.

                    Damping( 0%)  Levelshifting(0.5)       DIIS
                  --------------- ------------------- ---------------
          dE  on:    start            ASAP                start   
          dE off:    2 iters        *** iters           *** iters 


      Screening Tolerance Information
      -------------------------------
          Density screening/tol_rho: 1.00D-10
          AO Gaussian exp screening on grid/accAOfunc:  14
          CD Gaussian exp screening on grid/accCDfunc:  20
          XC Gaussian exp screening on grid/accXCfunc:  20
          Schwarz screening/accCoul: 1.00D-08


 Loading old vectors from job with title :



   Time after variat. SCF:      1.0
   Time prior to 1st pass:      1.0

 #quartets = 9.316D+03 #integrals = 8.098D+04 #direct =  0.0% #cached =100.0%


 Integral file          = ./H2.xyz.aoints.00
 Record size in doubles =    65536    No. of integs per rec  =    43688
 Max. records in memory =        2    Max. records in file   = 11664264
 No. of bits per label  =        8    No. of bits per value  =       64


File balance: exchanges=     0  moved=     0  time=   0.0


 Grid_pts file          = ./H2.xyz.gridpts.00
 Record size in doubles =  12289        No. of grid_pts per rec  =   3070
 Max. records in memory =      2        Max. recs in file   =   1084168


           Memory utilization after 1st SCF pass: 
           Heap Space remaining (MW):       12.95            12950164
          Stack Space remaining (MW):       13.11            13106868

   convergence    iter        energy       DeltaE   RMS-Dens  Diis-err    time
 ---------------- ----- ----------------- --------- --------- ---------  ------
 d= 0,ls=0.0,diis     1     -1.1692389043 -1.85D+00  1.41D-04  1.63D-04     1.2
 d= 0,ls=0.0,diis     2     -1.1687338253  5.05D-04  5.10D-05  2.00D-05     1.2
 d= 0,ls=0.0,diis     3     -1.1687789999 -4.52D-05  1.34D-05  3.19D-07     1.3
 d= 0,ls=0.0,diis     4     -1.1687601813  1.88D-05  1.65D-06  9.19D-09     1.3
 d= 0,ls=0.0,diis     5     -1.1687594165  7.65D-07  5.85D-08  6.81D-12     1.3


         Total DFT energy =       -1.168759416477
      One electron energy =       -2.433663850607
           Coulomb energy =        1.248180563058
          Exchange energy =       -0.627977341710
       Correlation energy =       -0.038317649567
 Nuclear repulsion energy =        0.683018862349

 Numeric. integr. density =        2.000000742820

     Total iterative time =      0.2s



                       DFT Final Molecular Orbital Analysis
                       ------------------------------------

 Vector    1  Occ=2.000000D+00  E=-4.230914D-01
              MO Center=  2.1D-15,  2.4D-15,  4.5D-15, r^2= 7.8D-01
   Bfn.  Coefficient  Atom+Function         Bfn.  Coefficient  Atom+Function  
  ----- ------------  ---------------      ----- ------------  ---------------
     2      0.311691  1 H  s                 21      0.311691  2 H  s          
     1      0.162837  1 H  s                 20      0.162837  2 H  s          

 Vector    2  Occ=0.000000D+00  E=-6.604436D-03
              MO Center= -1.4D-15,  1.9D-15,  2.0D-14, r^2= 5.1D+00
   Bfn.  Coefficient  Atom+Function         Bfn.  Coefficient  Atom+Function  
  ----- ------------  ---------------      ----- ------------  ---------------
     4      2.036652  1 H  s                 23     -2.036652  2 H  s          
     3      0.473455  1 H  s                 22     -0.473455  2 H  s          
     2      0.244578  1 H  s                 21     -0.244578  2 H  s          

 Vector    3  Occ=0.000000D+00  E= 3.183686D-02
              MO Center= -2.8D-15,  2.0D-15,  3.5D-14, r^2= 9.0D+00
   Bfn.  Coefficient  Atom+Function         Bfn.  Coefficient  Atom+Function  
  ----- ------------  ---------------      ----- ------------  ---------------
     4      0.783759  1 H  s                 23      0.783759  2 H  s          
     3     -0.432471  1 H  s                 22     -0.432471  2 H  s          

 Vector    4  Occ=0.000000D+00  E= 1.084415D-01
              MO Center= -8.4D-16,  5.2D-16, -3.4D-14, r^2= 1.1D+01
   Bfn.  Coefficient  Atom+Function         Bfn.  Coefficient  Atom+Function  
  ----- ------------  ---------------      ----- ------------  ---------------
     4      5.285165  1 H  s                 23     -5.285165  2 H  s          
     3     -3.852019  1 H  s                 22      3.852019  2 H  s          
     2     -0.699030  1 H  s                 21      0.699030  2 H  s          
    13      0.522939  1 H  pz                32      0.522939  2 H  pz         

 Vector    5  Occ=0.000000D+00  E= 1.556096D-01
              MO Center= -2.5D-15, -2.2D-15, -4.1D-15, r^2= 2.0D+00
   Bfn.  Coefficient  Atom+Function         Bfn.  Coefficient  Atom+Function  
  ----- ------------  ---------------      ----- ------------  ---------------
    11      0.432511  1 H  px                30      0.432511  2 H  px         
    12      0.303428  1 H  py                31      0.303428  2 H  py         

 Vector    6  Occ=0.000000D+00  E= 1.556096D-01
              MO Center=  7.8D-16,  1.1D-15,  7.4D-15, r^2= 2.0D+00
   Bfn.  Coefficient  Atom+Function         Bfn.  Coefficient  Atom+Function  
  ----- ------------  ---------------      ----- ------------  ---------------
    12      0.432511  1 H  py                31      0.432511  2 H  py         
    11     -0.303428  1 H  px                30     -0.303428  2 H  px         

 Vector    7  Occ=0.000000D+00  E= 3.162749D-01
              MO Center=  2.9D-15, -1.5D-15,  3.2D-14, r^2= 5.9D+00
   Bfn.  Coefficient  Atom+Function         Bfn.  Coefficient  Atom+Function  
  ----- ------------  ---------------      ----- ------------  ---------------
     3      1.581899  1 H  s                 22      1.581899  2 H  s          
     2     -1.028164  1 H  s                 21     -1.028164  2 H  s          
     4     -0.776886  1 H  s                 23     -0.776886  2 H  s          
    13      0.267848  1 H  pz                32     -0.267848  2 H  pz         

 Vector    8  Occ=0.000000D+00  E= 4.059172D-01
              MO Center= -3.1D-14, -4.2D-14, -7.2D-14, r^2= 6.9D+00
   Bfn.  Coefficient  Atom+Function         Bfn.  Coefficient  Atom+Function  
  ----- ------------  ---------------      ----- ------------  ---------------
     3      9.705310  1 H  s                 22     -9.705310  2 H  s          
     4     -4.210212  1 H  s                 23      4.210212  2 H  s          
    13     -2.382849  1 H  pz                32     -2.382849  2 H  pz         
     2      1.105727  1 H  s                 21     -1.105727  2 H  s          
     1     -0.151164  1 H  s                 20      0.151164  2 H  s          

 Vector    9  Occ=0.000000D+00  E= 4.260833D-01
              MO Center=  3.9D-14,  2.7D-14,  4.5D-15, r^2= 2.8D+00
   Bfn.  Coefficient  Atom+Function         Bfn.  Coefficient  Atom+Function  
  ----- ------------  ---------------      ----- ------------  ---------------
    11      1.385568  1 H  px                30     -1.385568  2 H  px         
    12      0.969600  1 H  py                31     -0.969600  2 H  py         

 Vector   10  Occ=0.000000D+00  E= 4.260833D-01
              MO Center= -7.6D-15,  1.1D-14, -8.0D-15, r^2= 2.8D+00
   Bfn.  Coefficient  Atom+Function         Bfn.  Coefficient  Atom+Function  
  ----- ------------  ---------------      ----- ------------  ---------------
    12      1.385568  1 H  py                31     -1.385568  2 H  py         
    11     -0.969600  1 H  px                30      0.969600  2 H  px         

 Vector   11  Occ=0.000000D+00  E= 4.322887D-01
              MO Center= -3.4D-15, -2.7D-15,  1.7D-14, r^2= 2.7D+00
   Bfn.  Coefficient  Atom+Function         Bfn.  Coefficient  Atom+Function  
  ----- ------------  ---------------      ----- ------------  ---------------
    13      1.350014  1 H  pz                32     -1.350014  2 H  pz         
     2      1.074852  1 H  s                 21      1.074852  2 H  s          
     3     -0.630646  1 H  s                 22     -0.630646  2 H  s          

 Vector   12  Occ=0.000000D+00  E= 9.128684D-01
              MO Center= -7.3D-16, -3.8D-16, -8.1D-15, r^2= 4.0D+00
   Bfn.  Coefficient  Atom+Function         Bfn.  Coefficient  Atom+Function  
  ----- ------------  ---------------      ----- ------------  ---------------
     3     10.207023  1 H  s                 22    -10.207023  2 H  s          
     2      7.092388  1 H  s                 21     -7.092388  2 H  s          
    13     -4.744821  1 H  pz                32     -4.744821  2 H  pz         
     4     -2.332592  1 H  s                 23      2.332592  2 H  s          
    10     -0.820581  1 H  pz                29     -0.820581  2 H  pz         


 center of mass
 --------------
 x =   0.00000000 y =   0.00000000 z =   0.00000000

 moments of inertia (a.u.)
 ------------------
           1.080164094205           0.000000000000           0.000000000000
           0.000000000000           1.080164094205           0.000000000000
           0.000000000000           0.000000000000           0.000000000000

     Multipole analysis of the density
     ---------------------------------

     L   x y z        total         alpha         beta         nuclear
     -   - - -        -----         -----         ----         -------
     0   0 0 0     -0.000000     -1.000000     -1.000000      2.000000

     1   1 0 0     -0.000000     -0.000000     -0.000000      0.000000
     1   0 1 0     -0.000000     -0.000000     -0.000000      0.000000
     1   0 0 1     -0.000000     -0.000000     -0.000000      0.000000

     2   2 0 0     -1.680608     -0.840304     -0.840304      0.000000
     2   1 1 0     -0.000000     -0.000000     -0.000000      0.000000
     2   1 0 1      0.000000      0.000000      0.000000      0.000000
     2   0 2 0     -1.680608     -0.840304     -0.840304      0.000000
     2   0 1 1      0.000000      0.000000      0.000000      0.000000
     2   0 0 2     -1.168703     -1.120240     -1.120240      1.071777


 Parallel integral file used      16 records with       0 large values


            General Information
            -------------------
          SCF calculation type: DFT
          Wavefunction type:  closed shell.
          No. of atoms     :     2
          No. of electrons :     2
           Alpha electrons :     1
            Beta electrons :     1
          Charge           :     0
          Spin multiplicity:     1
          Use of symmetry is: off; symmetry adaption is: off
          Maximum number of iterations: ***
          AO basis - number of functions:    38
                     number of shells:    16
          Convergence on energy requested: 1.00D-06
          Convergence on density requested: 1.00D-05
          Convergence on gradient requested: 5.00D-04

              XC Information
              --------------
                  TPSS metaGGA Exchange Functional  1.000          
             TPSS03 metaGGA Correlation Functional  1.000          

             Grid Information
             ----------------
          Grid used for XC integration:  medium    
          Radial quadrature: Mura-Knowles        
          Angular quadrature: Lebedev. 
          Tag              B.-S. Rad. Rad. Pts. Rad. Cut. Ang. Pts.
          ---              ---------- --------- --------- ---------
          H                   0.35       45          10.0       434
          Grid pruning is: on 
          Number of quadrature shells:    90
          Spatial weights used:  Erf1

          Convergence Information
          -----------------------
          Convergence aids based upon iterative change in 
          total energy or number of iterations. 
          Levelshifting, if invoked, occurs when the 
          HOMO/LUMO gap drops below (HL_TOL): 1.00D-02
          DIIS, if invoked, will attempt to extrapolate 
          using up to (NFOCK): 10 stored Fock matrices.

                    Damping( 0%)  Levelshifting(0.5)       DIIS
                  --------------- ------------------- ---------------
          dE  on:    start            ASAP                start   
          dE off:    2 iters        *** iters           *** iters 


      Screening Tolerance Information
      -------------------------------
          Density screening/tol_rho: 1.00D-10
          AO Gaussian exp screening on grid/accAOfunc:  14
          CD Gaussian exp screening on grid/accCDfunc:  20
          XC Gaussian exp screening on grid/accXCfunc:  20
          Schwarz screening/accCoul: 1.00D-08



                            NWChem DFT Gradient Module
                            --------------------------



  charge          =   0.00
  wavefunction    = closed shell



                         DFT ENERGY GRADIENTS

    atom               coordinates                        gradient
                 x          y          z           x          y          z
   1 H       0.000000   0.000000   0.732044   -0.000000  -0.000000  -0.000751
   2 H       0.000000   0.000000  -0.732044    0.000000   0.000000   0.000751

                 ----------------------------------------
                 |  Time  |  1-e(secs)   |  2-e(secs)   |
                 ----------------------------------------
                 |  CPU   |       0.00   |       0.00   |
                 ----------------------------------------
                 |  WALL  |       0.00   |       0.00   |
                 ----------------------------------------
                               NWChem STEPPER Module
                               ---------------------


   Step sought for minimum. 
   Actual energy difference is :    3.2971900759859452E-004
   2nd order predicted energy difference  was :   -6.6019192576926308E-005
   One of these is below the energy  tolerance:    1.0000000000000000E-004
   Backstepping possibilities are NO 
   longer considered appropriate. 
   Update Hessian used. 
   Dependent rotation vector no.                    3
   found in ECKART; linear geometry  assumed. 
   Number of modes removed with force (in the spectral representation)
   less than:   0.000000 is:    0
   PARTIT has partitioned the input hessian 
   and gradient into two subspaces;  An 
   "external" hessian and gradient composed 
   of                     5  independent translations 
   and rotations, and an "internal" hessian 
   and gradient with a dimension of                     1
               e-diff         g-norm     g-max   
 value        0.0003297190  0.001062  0.000751
 thres        0.0001000000  0.010000  0.000800
  trust radius =     0.10
   Calculating the Newton-Raphson step. 
  The length (norm) of the STEP is   0.001624

  The lowest few components in the bases 
  generated by the spectral decomposition 
  of the internal hessian (non-zero force). 

  Component  Hessian     Grad      Step   Scaled-Step
  ---------  --------  --------  -------- -----------
       1     0.65D+00  -.11D-02  0.16D-02  0.16D-02

  Clean-up the step; truncate at:   0.000001
  In cartesian coordinates; norm of this step is:   0.001625
         Walk statistics for step:   3
     Previous actual total energy:  -0.116908913548D+01
      Current actual total energy:  -0.116875941648D+01
         Actual energy difference:   0.329719007599D-03 threshold:         0.100000D-03
    Second order energy predicted:  -0.660191925769D-04
             Ratio of differences:   0.200228652445D+00
               Fixed trust radius:   0.100000000000D+00
   Number of negative eigenvalues:   0
   Max absolute value of Gradient:   0.750943360439D-03 threshold:         0.800000D-03
                    Gradient norm:   0.106199428491D-02 threshold:         0.100000D-01
                RMS Gradient norm:   0.750943360439D-03
  Largest component of step v-tor:   0.162400000000D-02
  New 2nd order energy prediction:  -0.862564192676D-06



  ------------------- New geometry -------------------


                         Geometry "g-3-step" -> "g-3-step"
                         ---------------------------------

 Output coordinates in angstroms (scale by  1.889725989 to convert to a.u.)

  No.       Tag          Charge          X              Y              Z
 ---- ---------------- ---------- -------------- -------------- --------------
    1 H                    1.0000     0.00000000     0.00000000     0.38798916
    2 H                    1.0000     0.00000000     0.00000000    -0.38798916

      Atomic Mass 
      ----------- 

      H                  1.007825


 Effective nuclear repulsion energy (a.u.)       0.6819484914

            Nuclear Dipole moment (a.u.) 
            ----------------------------
        X                 Y               Z
 ---------------- ---------------- ----------------
     0.0000000000     0.0000000000     0.0000000000


                                 NWChem DFT Module
                                 -----------------




 Summary of "ao basis" -> "ao basis" (cartesian)
 ------------------------------------------------------------------------------
       Tag                 Description            Shells   Functions and Types
 ---------------- ------------------------------  ------  ---------------------
 H                     6-311++G(3df,3pd)             8       19   4s3p1d


  Caching 1-el integrals 

            General Information
            -------------------
          SCF calculation type: DFT
          Wavefunction type:  closed shell.
          No. of atoms     :     2
          No. of electrons :     2
           Alpha electrons :     1
            Beta electrons :     1
          Charge           :     0
          Spin multiplicity:     1
          Use of symmetry is: off; symmetry adaption is: off
          Maximum number of iterations: ***
          AO basis - number of functions:    38
                     number of shells:    16
          Convergence on energy requested: 1.00D-06
          Convergence on density requested: 1.00D-05
          Convergence on gradient requested: 5.00D-04

              XC Information
              --------------
                  TPSS metaGGA Exchange Functional  1.000          
             TPSS03 metaGGA Correlation Functional  1.000          

             Grid Information
             ----------------
          Grid used for XC integration:  medium    
          Radial quadrature: Mura-Knowles        
          Angular quadrature: Lebedev. 
          Tag              B.-S. Rad. Rad. Pts. Rad. Cut. Ang. Pts.
          ---              ---------- --------- --------- ---------
          H                   0.35       45          10.0       434
          Grid pruning is: on 
          Number of quadrature shells:    90
          Spatial weights used:  Erf1

          Convergence Information
          -----------------------
          Convergence aids based upon iterative change in 
          total energy or number of iterations. 
          Levelshifting, if invoked, occurs when the 
          HOMO/LUMO gap drops below (HL_TOL): 1.00D-02
          DIIS, if invoked, will attempt to extrapolate 
          using up to (NFOCK): 10 stored Fock matrices.

                    Damping( 0%)  Levelshifting(0.5)       DIIS
                  --------------- ------------------- ---------------
          dE  on:    start            ASAP                start   
          dE off:    2 iters        *** iters           *** iters 


      Screening Tolerance Information
      -------------------------------
          Density screening/tol_rho: 1.00D-10
          AO Gaussian exp screening on grid/accAOfunc:  14
          CD Gaussian exp screening on grid/accCDfunc:  20
          XC Gaussian exp screening on grid/accXCfunc:  20
          Schwarz screening/accCoul: 1.00D-08


 Loading old vectors from job with title :



   Time after variat. SCF:      1.4
   Time prior to 1st pass:      1.4

 #quartets = 9.316D+03 #integrals = 8.098D+04 #direct =  0.0% #cached =100.0%


 Integral file          = ./H2.xyz.aoints.00
 Record size in doubles =    65536    No. of integs per rec  =    43688
 Max. records in memory =        2    Max. records in file   = 11662522
 No. of bits per label  =        8    No. of bits per value  =       64


File balance: exchanges=     0  moved=     0  time=   0.0


 Grid_pts file          = ./H2.xyz.gridpts.00
 Record size in doubles =  12289        No. of grid_pts per rec  =   3070
 Max. records in memory =      2        Max. recs in file   =  62195060


           Memory utilization after 1st SCF pass: 
           Heap Space remaining (MW):       12.95            12950164
          Stack Space remaining (MW):       13.11            13106868

   convergence    iter        energy       DeltaE   RMS-Dens  Diis-err    time
 ---------------- ----- ----------------- --------- --------- ---------  ------
 d= 0,ls=0.0,diis     1     -1.1687717671 -1.85D+00  1.70D-05  2.31D-06     1.7
 d= 0,ls=0.0,diis     2     -1.1687088547  6.29D-05  6.05D-06  2.91D-07     1.7
 d= 0,ls=0.0,diis     3     -1.1687143640 -5.51D-06  1.62D-06  4.71D-09     1.7
 d= 0,ls=0.0,diis     4     -1.1687121823  2.18D-06  1.93D-07  1.23D-10     1.8
 d= 0,ls=0.0,diis     5     -1.1687120855  9.68D-08  6.84D-09  9.90D-14     1.8


         Total DFT energy =       -1.168712085490
      One electron energy =       -2.432119880925
           Coulomb energy =        1.247363605678
          Exchange energy =       -0.627588981140
       Correlation energy =       -0.038315320550
 Nuclear repulsion energy =        0.681948491446

 Numeric. integr. density =        2.000000729601

     Total iterative time =      0.4s



                       DFT Final Molecular Orbital Analysis
                       ------------------------------------

 Vector    1  Occ=2.000000D+00  E=-4.228662D-01
              MO Center= -2.6D-15, -2.7D-15, -6.6D-15, r^2= 7.9D-01
   Bfn.  Coefficient  Atom+Function         Bfn.  Coefficient  Atom+Function  
  ----- ------------  ---------------      ----- ------------  ---------------
     2      0.311790  1 H  s                 21      0.311790  2 H  s          
     1      0.162643  1 H  s                 20      0.162643  2 H  s          

 Vector    2  Occ=0.000000D+00  E=-6.765737D-03
              MO Center=  6.9D-16, -3.6D-15, -1.7D-15, r^2= 5.1D+00
   Bfn.  Coefficient  Atom+Function         Bfn.  Coefficient  Atom+Function  
  ----- ------------  ---------------      ----- ------------  ---------------
     4      2.030022  1 H  s                 23     -2.030022  2 H  s          
     3      0.473812  1 H  s                 22     -0.473812  2 H  s          
     2      0.244586  1 H  s                 21     -0.244586  2 H  s          

 Vector    3  Occ=0.000000D+00  E= 3.183668D-02
              MO Center= -1.2D-15,  6.0D-16,  1.2D-14, r^2= 9.0D+00
   Bfn.  Coefficient  Atom+Function         Bfn.  Coefficient  Atom+Function  
  ----- ------------  ---------------      ----- ------------  ---------------
     4      0.783926  1 H  s                 23      0.783926  2 H  s          
     3     -0.432793  1 H  s                 22     -0.432793  2 H  s          

 Vector    4  Occ=0.000000D+00  E= 1.083673D-01
              MO Center=  1.4D-16, -1.8D-15, -2.4D-14, r^2= 1.1D+01
   Bfn.  Coefficient  Atom+Function         Bfn.  Coefficient  Atom+Function  
  ----- ------------  ---------------      ----- ------------  ---------------
     4      5.277005  1 H  s                 23     -5.277005  2 H  s          
     3     -3.841189  1 H  s                 22      3.841189  2 H  s          
     2     -0.695144  1 H  s                 21      0.695144  2 H  s          
    13      0.521330  1 H  pz                32      0.521330  2 H  pz         

 Vector    5  Occ=0.000000D+00  E= 1.555243D-01
              MO Center=  5.6D-15, -5.6D-15, -8.5D-15, r^2= 2.0D+00
   Bfn.  Coefficient  Atom+Function         Bfn.  Coefficient  Atom+Function  
  ----- ------------  ---------------      ----- ------------  ---------------
    11      0.386649  1 H  px                30      0.386649  2 H  px         
    12     -0.360291  1 H  py                31     -0.360291  2 H  py         

 Vector    6  Occ=0.000000D+00  E= 1.555243D-01
              MO Center=  3.5D-15,  4.9D-15, -4.3D-15, r^2= 2.0D+00
   Bfn.  Coefficient  Atom+Function         Bfn.  Coefficient  Atom+Function  
  ----- ------------  ---------------      ----- ------------  ---------------
    12      0.386649  1 H  py                31      0.386649  2 H  py         
    11      0.360291  1 H  px                30      0.360291  2 H  px         

 Vector    7  Occ=0.000000D+00  E= 3.163051D-01
              MO Center= -8.1D-15,  4.3D-15, -4.1D-14, r^2= 5.9D+00
   Bfn.  Coefficient  Atom+Function         Bfn.  Coefficient  Atom+Function  
  ----- ------------  ---------------      ----- ------------  ---------------
     3      1.581851  1 H  s                 22      1.581851  2 H  s          
     2     -1.028049  1 H  s                 21     -1.028049  2 H  s          
     4     -0.776852  1 H  s                 23     -0.776852  2 H  s          
    13      0.268629  1 H  pz                32     -0.268629  2 H  pz         

 Vector    8  Occ=0.000000D+00  E= 4.059299D-01
              MO Center= -1.3D-14,  4.3D-14,  3.3D-14, r^2= 6.9D+00
   Bfn.  Coefficient  Atom+Function         Bfn.  Coefficient  Atom+Function  
  ----- ------------  ---------------      ----- ------------  ---------------
     3      9.690165  1 H  s                 22     -9.690165  2 H  s          
     4     -4.204014  1 H  s                 23      4.204014  2 H  s          
    13     -2.381713  1 H  pz                32     -2.381713  2 H  pz         
     2      1.097845  1 H  s                 21     -1.097845  2 H  s          
     1     -0.151260  1 H  s                 20      0.151260  2 H  s          

 Vector    9  Occ=0.000000D+00  E= 4.258612D-01
              MO Center= -6.5D-15, -3.4D-15, -8.3D-16, r^2= 2.8D+00
   Bfn.  Coefficient  Atom+Function         Bfn.  Coefficient  Atom+Function  
  ----- ------------  ---------------      ----- ------------  ---------------
    11      1.509737  1 H  px                30     -1.509737  2 H  px         
    12      0.756674  1 H  py                31     -0.756674  2 H  py         

 Vector   10  Occ=0.000000D+00  E= 4.258612D-01
              MO Center=  1.8D-14, -3.6D-14,  1.4D-14, r^2= 2.8D+00
   Bfn.  Coefficient  Atom+Function         Bfn.  Coefficient  Atom+Function  
  ----- ------------  ---------------      ----- ------------  ---------------
    12      1.509737  1 H  py                31     -1.509737  2 H  py         
    11     -0.756674  1 H  px                30      0.756674  2 H  px         

 Vector   11  Occ=0.000000D+00  E= 4.320704D-01
              MO Center=  1.1D-15, -1.3D-15, -6.7D-15, r^2= 2.7D+00
   Bfn.  Coefficient  Atom+Function         Bfn.  Coefficient  Atom+Function  
  ----- ------------  ---------------      ----- ------------  ---------------
    13      1.347659  1 H  pz                32     -1.347659  2 H  pz         
     2      1.075178  1 H  s                 21      1.075178  2 H  s          
     3     -0.631588  1 H  s                 22     -0.631588  2 H  s          

 Vector   12  Occ=0.000000D+00  E= 9.125778D-01
              MO Center= -7.8D-16, -5.2D-16, -3.4D-15, r^2= 4.0D+00
   Bfn.  Coefficient  Atom+Function         Bfn.  Coefficient  Atom+Function  
  ----- ------------  ---------------      ----- ------------  ---------------
     3     10.184628  1 H  s                 22    -10.184628  2 H  s          
     2      7.074745  1 H  s                 21     -7.074745  2 H  s          
    13     -4.742300  1 H  pz                32     -4.742300  2 H  pz         
     4     -2.325476  1 H  s                 23      2.325476  2 H  s          
    10     -0.821346  1 H  pz                29     -0.821346  2 H  pz         


 center of mass
 --------------
 x =   0.00000000 y =   0.00000000 z =   0.00000000

 moments of inertia (a.u.)
 ------------------
           1.083557557452           0.000000000000           0.000000000000
           0.000000000000           1.083557557452           0.000000000000
           0.000000000000           0.000000000000           0.000000000000

     Multipole analysis of the density
     ---------------------------------

     L   x y z        total         alpha         beta         nuclear
     -   - - -        -----         -----         ----         -------
     0   0 0 0     -0.000000     -1.000000     -1.000000      2.000000

     1   1 0 0      0.000000      0.000000      0.000000      0.000000
     1   0 1 0      0.000000      0.000000      0.000000      0.000000
     1   0 0 1      0.000000      0.000000      0.000000      0.000000

     2   2 0 0     -1.682164     -0.841082     -0.841082      0.000000
     2   1 1 0      0.000000      0.000000      0.000000      0.000000
     2   1 0 1      0.000000      0.000000      0.000000      0.000000
     2   0 2 0     -1.682164     -0.841082     -0.841082      0.000000
     2   0 1 1      0.000000      0.000000      0.000000      0.000000
     2   0 0 2     -1.168905     -1.122025     -1.122025      1.075145


 Parallel integral file used      16 records with       0 large values


            General Information
            -------------------
          SCF calculation type: DFT
          Wavefunction type:  closed shell.
          No. of atoms     :     2
          No. of electrons :     2
           Alpha electrons :     1
            Beta electrons :     1
          Charge           :     0
          Spin multiplicity:     1
          Use of symmetry is: off; symmetry adaption is: off
          Maximum number of iterations: ***
          AO basis - number of functions:    38
                     number of shells:    16
          Convergence on energy requested: 1.00D-06
          Convergence on density requested: 1.00D-05
          Convergence on gradient requested: 5.00D-04

              XC Information
              --------------
                  TPSS metaGGA Exchange Functional  1.000          
             TPSS03 metaGGA Correlation Functional  1.000          

             Grid Information
             ----------------
          Grid used for XC integration:  medium    
          Radial quadrature: Mura-Knowles        
          Angular quadrature: Lebedev. 
          Tag              B.-S. Rad. Rad. Pts. Rad. Cut. Ang. Pts.
          ---              ---------- --------- --------- ---------
          H                   0.35       45          10.0       434
          Grid pruning is: on 
          Number of quadrature shells:    90
          Spatial weights used:  Erf1

          Convergence Information
          -----------------------
          Convergence aids based upon iterative change in 
          total energy or number of iterations. 
          Levelshifting, if invoked, occurs when the 
          HOMO/LUMO gap drops below (HL_TOL): 1.00D-02
          DIIS, if invoked, will attempt to extrapolate 
          using up to (NFOCK): 10 stored Fock matrices.

                    Damping( 0%)  Levelshifting(0.5)       DIIS
                  --------------- ------------------- ---------------
          dE  on:    start            ASAP                start   
          dE off:    2 iters        *** iters           *** iters 


      Screening Tolerance Information
      -------------------------------
          Density screening/tol_rho: 1.00D-10
          AO Gaussian exp screening on grid/accAOfunc:  14
          CD Gaussian exp screening on grid/accCDfunc:  20
          XC Gaussian exp screening on grid/accXCfunc:  20
          Schwarz screening/accCoul: 1.00D-08



                            NWChem DFT Gradient Module
                            --------------------------



  charge          =   0.00
  wavefunction    = closed shell



                         DFT ENERGY GRADIENTS

    atom               coordinates                        gradient
                 x          y          z           x          y          z
   1 H       0.000000   0.000000   0.733193    0.000000  -0.000000  -0.000025
   2 H       0.000000   0.000000  -0.733193   -0.000000   0.000000   0.000025

                 ----------------------------------------
                 |  Time  |  1-e(secs)   |  2-e(secs)   |
                 ----------------------------------------
                 |  CPU   |       0.00   |       0.00   |
                 ----------------------------------------
                 |  WALL  |       0.00   |       0.00   |
                 ----------------------------------------
                               NWChem STEPPER Module
                               ---------------------


   Step sought for minimum. 
   Actual energy difference is :    4.7330986717719625E-005
   2nd order predicted energy difference  was :   -8.6256419267640221E-007
   One of these is below the energy  tolerance:    1.0000000000000000E-004
   Backstepping possibilities are NO 
   longer considered appropriate. 
   Update Hessian used. 
   Dependent rotation vector no.                    3
   found in ECKART; linear geometry  assumed. 
   Number of modes removed with force (in the spectral representation)
   less than:   0.000000 is:    0
   PARTIT has partitioned the input hessian 
   and gradient into two subspaces;  An 
   "external" hessian and gradient composed 
   of                     5  independent translations 
   and rotations, and an "internal" hessian 
   and gradient with a dimension of                     1
               e-diff         g-norm     g-max   
 value        0.0000473310  0.000036  0.000025
 thres        0.0001000000  0.010000  0.000800
   ENERGY =   -1.1687120854904147     
   The hessian exhibits the "proper" 
   structure, and the gradient and energy 
   convergence criterion has been met.  
   This geometry walk is HISTORY.
   Calculating the Newton-Raphson step. 
  The length (norm) of the STEP is   0.000056

  The lowest few components in the bases 
  generated by the spectral decomposition 
  of the internal hessian (non-zero force). 

  Component  Hessian     Grad      Step   Scaled-Step
  ---------  --------  --------  -------- -----------
       1     0.63D+00  -.36D-04  0.56D-04  0.56D-04

  Clean-up the step; truncate at:   0.000001
  In cartesian coordinates; norm of this step is:   0.000057



  ---------------- Converged geometry ----------------


                         Geometry "g-4-step" -> "g-4-step"
                         ---------------------------------

 Output coordinates in angstroms (scale by  1.889725989 to convert to a.u.)

  No.       Tag          Charge          X              Y              Z
 ---- ---------------- ---------- -------------- -------------- --------------
    1 H                    1.0000     0.00000000     0.00000000     0.38798916
    2 H                    1.0000     0.00000000     0.00000000    -0.38798916

      Atomic Mass 
      ----------- 

      H                  1.007825


 Effective nuclear repulsion energy (a.u.)       0.6819484914

            Nuclear Dipole moment (a.u.) 
            ----------------------------
        X                 Y               Z
 ---------------- ---------------- ----------------
     0.0000000000     0.0000000000     0.0000000000


 Task  times  cpu:        1.6s     wall:        4.3s


                                NWChem Input Module
                                -------------------


 Summary of allocated global arrays
-----------------------------------
  No active global arrays



                         GA Statistics for process    0
                         ------------------------------

       create   destroy   get      put      acc     scatter   gather  read&inc
calls:  501      501     2196     1074      371        0        0      324     
number of processes/call 2.29e+00 2.05e+00 4.71e+00 0.00e+00 0.00e+00
bytes total:             8.57e+06 1.81e+06 3.46e+06 0.00e+00 0.00e+00 2.59e+03
bytes remote:            5.76e+06 8.69e+05 2.40e+06 0.00e+00 0.00e+00 0.00e+00
Max memory consumed for GA by this process: 114104 bytes

MA_summarize_allocated_blocks: starting scan ...
MA_summarize_allocated_blocks: scan completed: 0 heap blocks, 0 stack blocks
MA usage statistics:

	allocation statistics:
					      heap	     stack
					      ----	     -----
	current number of blocks	         0	         0
	maximum number of blocks	        23	        51
	current total bytes		         0	         0
	maximum total bytes		   1255896	  32044520
	maximum total K-bytes		      1256	     32045
	maximum total M-bytes		         2	        33


                                     CITATION
                                     --------
                Please cite the following reference when publishing
                           results obtained with NWChem:

                 M. Valiev, E.J. Bylaska, N. Govind, K. Kowalski,
              T.P. Straatsma, H.J.J. van Dam, D. Wang, J. Nieplocha,
                        E. Apra, T.L. Windus, W.A. de Jong
                 "NWChem: a comprehensive and scalable open-source
                  solution for large scale molecular simulations"
                      Comput. Phys. Commun. 181, 1477 (2010)
                           doi:10.1016/j.cpc.2010.04.018

                                      AUTHORS
                                      -------
          E. Apra, E. J. Bylaska, W. A. de Jong, N. Govind, K. Kowalski,
       T. P. Straatsma, M. Valiev, H. J. J. van Dam, D. Wang, T. L. Windus,
        J. Hammond, J. Autschbach, K. Bhaskaran-Nair, J. Brabec, K. Lopata,
       S. A. Fischer, S. Krishnamoorthy, W. Ma, M. Klemm, O. Villa, Y. Chen,
    V. Anisimov, F. Aquino, S. Hirata, M. T. Hackler, T. Risthaus, M. Malagoli,
       A. Marenich, A. Otero-de-la-Roza, J. Mullin, P. Nichols, R. Peverati,
     J. Pittner, Y. Zhao, P.-D. Fan, A. Fonari, M. Williamson, R. J. Harrison,
       J. R. Rehr, M. Dupuis, D. Silverstein, D. M. A. Smith, J. Nieplocha,
        V. Tipparaju, M. Krishnan, B. E. Van Kuiken, A. Vazquez-Mayagoitia,
        L. Jensen, M. Swart, Q. Wu, T. Van Voorhis, A. A. Auer, M. Nooijen,
      L. D. Crosby, E. Brown, G. Cisneros, G. I. Fann, H. Fruchtl, J. Garza,
        K. Hirao, R. A. Kendall, J. A. Nichols, K. Tsemekhman, K. Wolinski,
     J. Anchell, D. E. Bernholdt, P. Borowski, T. Clark, D. Clerc, H. Dachsel,
   M. J. O. Deegan, K. Dyall, D. Elwood, E. Glendening, M. Gutowski, A. C. Hess,
         J. Jaffe, B. G. Johnson, J. Ju, R. Kobayashi, R. Kutteh, Z. Lin,
   R. Littlefield, X. Long, B. Meng, T. Nakajima, S. Niu, L. Pollack, M. Rosing,
   K. Glaesemann, G. Sandrone, M. Stave, H. Taylor, G. Thomas, J. H. van Lenthe,
                               A. T. Wong, Z. Zhang.

 Total times  cpu:        1.6s     wall:        4.5s
