[1537857234.730735] [r8n4:11488:0]         sys.c:744  MXM  WARN  Conflicting CPU frequencies detected, using: 2980.30
[1537857234.741294] [r8n4:11490:0]         sys.c:744  MXM  WARN  Conflicting CPU frequencies detected, using: 2980.30
[1537857234.741662] [r8n4:11492:0]         sys.c:744  MXM  WARN  Conflicting CPU frequencies detected, using: 2980.30
[1537857234.741747] [r8n4:11491:0]         sys.c:744  MXM  WARN  Conflicting CPU frequencies detected, using: 2980.30
[1537857234.741769] [r8n4:11489:0]         sys.c:744  MXM  WARN  Conflicting CPU frequencies detected, using: 2980.30
[1537857234.741828] [r8n4:11493:0]         sys.c:744  MXM  WARN  Conflicting CPU frequencies detected, using: 2980.30
[1537857234.749123] [r8n4:11495:0]         sys.c:744  MXM  WARN  Conflicting CPU frequencies detected, using: 2980.30
[1537857234.750814] [r8n4:11494:0]         sys.c:744  MXM  WARN  Conflicting CPU frequencies detected, using: 2980.30
[1537857234.800820] [r8n4:11500:0]         sys.c:744  MXM  WARN  Conflicting CPU frequencies detected, using: 2980.30
[1537857234.802555] [r8n4:11498:0]         sys.c:744  MXM  WARN  Conflicting CPU frequencies detected, using: 2980.30
[1537857234.809773] [r8n4:11503:0]         sys.c:744  MXM  WARN  Conflicting CPU frequencies detected, using: 2980.30
[1537857234.810632] [r8n4:11501:0]         sys.c:744  MXM  WARN  Conflicting CPU frequencies detected, using: 2980.30
[1537857234.812008] [r8n4:11509:0]         sys.c:744  MXM  WARN  Conflicting CPU frequencies detected, using: 2980.30
[1537857234.812065] [r8n4:11507:0]         sys.c:744  MXM  WARN  Conflicting CPU frequencies detected, using: 2980.30
[1537857234.812254] [r8n4:11511:0]         sys.c:744  MXM  WARN  Conflicting CPU frequencies detected, using: 2980.30
[1537857234.812326] [r8n4:11505:0]         sys.c:744  MXM  WARN  Conflicting CPU frequencies detected, using: 2980.30
 argument  1 = /storage/home/bikashp/nwchem_run/rabeet/mgbl19/nwmgbl19/H2CO.xyz.nw
                                         
                                         


              Northwest Computational Chemistry Package (NWChem) 6.6
              ------------------------------------------------------


                    Environmental Molecular Sciences Laboratory
                       Pacific Northwest National Laboratory
                                Richland, WA 99352

                              Copyright (c) 1994-2015
                       Pacific Northwest National Laboratory
                            Battelle Memorial Institute

             NWChem is an open-source computational chemistry package
                        distributed under the terms of the
                      Educational Community License (ECL) 2.0
             A copy of the license is included with this distribution
                              in the LICENSE.TXT file

                                  ACKNOWLEDGMENT
                                  --------------

            This software and its documentation were developed at the
            EMSL at Pacific Northwest National Laboratory, a multiprogram
            national laboratory, operated for the U.S. Department of Energy
            by Battelle under Contract Number DE-AC05-76RL01830. Support
            for this work was provided by the Department of Energy Office
            of Biological and Environmental Research, Office of Basic
            Energy Sciences, and the Office of Advanced Scientific Computing.


           Job information
           ---------------

    hostname        = r8n4.niserhpc.org
    program         = /home/bikashp/Code/nwchem-6.6_tpssloc/bin/LINUX64/nwchem
    date            = Tue Sep 25 12:03:57 2018

    compiled        = Tue_Sep_18_16:24:59_2018
    source          = /home/bikashp/Code/nwchem-6.6_tpssloc
    nwchem branch   = 6.6
    nwchem revision = 27746
    ga revision     = 10594
    input           = /storage/home/bikashp/nwchem_run/rabeet/mgbl19/nwmgbl19/H2CO.xyz.nw
    prefix          = H2CO.xyz.
    data base       = ./H2CO.xyz.db
    status          = startup
    nproc           =       16
    time left       =     -1s



           Memory information
           ------------------

    heap     =   13107196 doubles =    100.0 Mbytes
    stack    =   13107201 doubles =    100.0 Mbytes
    global   =   26214400 doubles =    200.0 Mbytes (distinct from heap & stack)
    total    =   52428797 doubles =    400.0 Mbytes
    verify   = yes
    hardfail = no 


           Directory information
           ---------------------

  0 permanent = .
  0 scratch   = .




                                NWChem Input Module
                                -------------------



 Scaling coordinates for geometry "geometry" by  1.889725989
 (inverse scale =  0.529177249)



                             Geometry "geometry" -> ""
                             -------------------------

 Output coordinates in angstroms (scale by  1.889725989 to convert to a.u.)

  No.       Tag          Charge          X              Y              Z
 ---- ---------------- ---------- -------------- -------------- --------------
    1 O                    8.0000     0.00000000     0.00000000     0.67462250
    2 C                    6.0000     0.00000000     0.00000000    -0.52970750
    3 H                    1.0000     0.00000000     0.93549000    -1.10936750
    4 H                    1.0000     0.00000000    -0.93549000    -1.10936750

      Atomic Mass 
      ----------- 

      O                 15.994910
      C                 12.000000
      H                  1.007825


 Effective nuclear repulsion energy (a.u.)      31.3471076660

            Nuclear Dipole moment (a.u.) 
            ----------------------------
        X                 Y               Z
 ---------------- ---------------- ----------------
     0.0000000000     0.0000000000    -0.0000000000


            XYZ format geometry
            -------------------
     4
 geometry
 O                     0.00000000     0.00000000     0.67462250
 C                     0.00000000     0.00000000    -0.52970750
 H                     0.00000000     0.93549000    -1.10936750
 H                     0.00000000    -0.93549000    -1.10936750

 ==============================================================================
                                internuclear distances
 ------------------------------------------------------------------------------
       center one      |      center two      | atomic units |  angstroms
 ------------------------------------------------------------------------------
    2 C                |   1 O                |     2.27585  |     1.20433
    3 H                |   2 C                |     2.07968  |     1.10052
    4 H                |   2 C                |     2.07968  |     1.10052
 ------------------------------------------------------------------------------
                         number of included internuclear distances:          3
 ==============================================================================



 ==============================================================================
                                 internuclear angles
 ------------------------------------------------------------------------------
        center 1       |       center 2       |       center 3       |  degrees
 ------------------------------------------------------------------------------
    1 O                |   2 C                |   3 H                |   121.78
    1 O                |   2 C                |   4 H                |   121.78
    3 H                |   2 C                |   4 H                |   116.43
 ------------------------------------------------------------------------------
                            number of included internuclear angles:          3
 ==============================================================================





 Summary of "ao basis" -> "" (cartesian)
 ------------------------------------------------------------------------------
       Tag                 Description            Shells   Functions and Types
 ---------------- ------------------------------  ------  ---------------------
 *                     6-311++G(3df,3pd)              on all atoms 




                           NWChem Geometry Optimization
                           ----------------------------



                                 NWChem DFT Module
                                 -----------------


                      Basis "ao basis" -> "ao basis" (cartesian)
                      -----
  O (Oxygen)
  ----------
            Exponent  Coefficients 
       -------------- ---------------------------------------------------------
  1 S  8.58850000E+03  0.001895
  1 S  1.29723000E+03  0.014386
  1 S  2.99296000E+02  0.070732
  1 S  8.73771000E+01  0.240001
  1 S  2.56789000E+01  0.594797
  1 S  3.74004000E+00  0.280802

  2 S  4.21175000E+01  0.113889
  2 S  9.62837000E+00  0.920811
  2 S  2.85332000E+00 -0.003274

  3 P  4.21175000E+01  0.036511
  3 P  9.62837000E+00  0.237153
  3 P  2.85332000E+00  0.819702

  4 S  9.05661000E-01  1.000000

  5 P  9.05661000E-01  1.000000

  6 S  2.55611000E-01  1.000000

  7 P  2.55611000E-01  1.000000

  8 S  8.45000000E-02  1.000000

  9 P  8.45000000E-02  1.000000

 10 D  5.16000000E+00  1.000000

 11 D  1.29200000E+00  1.000000

 12 D  3.22500000E-01  1.000000

 13 F  1.40000000E+00  1.000000

  C (Carbon)
  ----------
            Exponent  Coefficients 
       -------------- ---------------------------------------------------------
  1 S  4.56324000E+03  0.001967
  1 S  6.82024000E+02  0.015231
  1 S  1.54973000E+02  0.076127
  1 S  4.44553000E+01  0.260801
  1 S  1.30290000E+01  0.616462
  1 S  1.82773000E+00  0.221006

  2 S  2.09642000E+01  0.114660
  2 S  4.80331000E+00  0.919999
  2 S  1.45933000E+00 -0.003031

  3 P  2.09642000E+01  0.040249
  3 P  4.80331000E+00  0.237594
  3 P  1.45933000E+00  0.815854

  4 S  4.83456000E-01  1.000000

  5 P  4.83456000E-01  1.000000

  6 S  1.45585000E-01  1.000000

  7 P  1.45585000E-01  1.000000

  8 S  4.38000000E-02  1.000000

  9 P  4.38000000E-02  1.000000

 10 D  2.50400000E+00  1.000000

 11 D  6.26000000E-01  1.000000

 12 D  1.56500000E-01  1.000000

 13 F  8.00000000E-01  1.000000

  H (Hydrogen)
  ------------
            Exponent  Coefficients 
       -------------- ---------------------------------------------------------
  1 S  3.38650000E+01  0.025494
  1 S  5.09479000E+00  0.190373
  1 S  1.15879000E+00  0.852161

  2 S  3.25840000E-01  1.000000

  3 S  1.02741000E-01  1.000000

  4 S  3.60000000E-02  1.000000

  5 P  3.00000000E+00  1.000000

  6 P  7.50000000E-01  1.000000

  7 P  1.87500000E-01  1.000000

  8 D  1.00000000E+00  1.000000



 Summary of "ao basis" -> "ao basis" (cartesian)
 ------------------------------------------------------------------------------
       Tag                 Description            Shells   Functions and Types
 ---------------- ------------------------------  ------  ---------------------
 O                     6-311++G(3df,3pd)            13       45   5s4p3d1f
 C                     6-311++G(3df,3pd)            13       45   5s4p3d1f
 H                     6-311++G(3df,3pd)             8       19   4s3p1d




 Summary of "ao basis" -> "ao basis" (cartesian)
 ------------------------------------------------------------------------------
       Tag                 Description            Shells   Functions and Types
 ---------------- ------------------------------  ------  ---------------------
 O                     6-311++G(3df,3pd)            13       45   5s4p3d1f
 C                     6-311++G(3df,3pd)            13       45   5s4p3d1f
 H                     6-311++G(3df,3pd)             8       19   4s3p1d


  Caching 1-el integrals 

            General Information
            -------------------
          SCF calculation type: DFT
          Wavefunction type:  closed shell.
          No. of atoms     :     4
          No. of electrons :    16
           Alpha electrons :     8
            Beta electrons :     8
          Charge           :     0
          Spin multiplicity:     1
          Use of symmetry is: off; symmetry adaption is: off
          Maximum number of iterations: ***
          AO basis - number of functions:   128
                     number of shells:    42
          Convergence on energy requested: 1.00D-06
          Convergence on density requested: 1.00D-05
          Convergence on gradient requested: 5.00D-04

              XC Information
              --------------
                  TPSS metaGGA Exchange Functional  1.000          
             TPSS03 metaGGA Correlation Functional  1.000          

             Grid Information
             ----------------
          Grid used for XC integration:  medium    
          Radial quadrature: Mura-Knowles        
          Angular quadrature: Lebedev. 
          Tag              B.-S. Rad. Rad. Pts. Rad. Cut. Ang. Pts.
          ---              ---------- --------- --------- ---------
          O                   0.60       49          10.0       434
          C                   0.70       49          10.0       434
          H                   0.35       45          11.0       434
          Grid pruning is: on 
          Number of quadrature shells:   188
          Spatial weights used:  Erf1

          Convergence Information
          -----------------------
          Convergence aids based upon iterative change in 
          total energy or number of iterations. 
          Levelshifting, if invoked, occurs when the 
          HOMO/LUMO gap drops below (HL_TOL): 1.00D-02
          DIIS, if invoked, will attempt to extrapolate 
          using up to (NFOCK): 10 stored Fock matrices.

                    Damping( 0%)  Levelshifting(0.5)       DIIS
                  --------------- ------------------- ---------------
          dE  on:    start            ASAP                start   
          dE off:    2 iters        *** iters           *** iters 


      Screening Tolerance Information
      -------------------------------
          Density screening/tol_rho: 1.00D-10
          AO Gaussian exp screening on grid/accAOfunc:  14
          CD Gaussian exp screening on grid/accCDfunc:  20
          XC Gaussian exp screening on grid/accXCfunc:  20
          Schwarz screening/accCoul: 1.00D-08


      Superposition of Atomic Density Guess
      -------------------------------------

 Sum of atomic energies:        -113.44653992

      Non-variational initial energy
      ------------------------------

 Total energy =    -114.126717
 1-e energy   =    -216.064536
 2-e energy   =      70.590711
 HOMO         =      -0.336335
 LUMO         =      -0.051718

   Time after variat. SCF:      0.5
   Time prior to 1st pass:      0.5

 Integral file          = ./H2CO.xyz.aoints.00
 Record size in doubles =    65536    No. of integs per rec  =    43688
 Max. records in memory =       68    Max. records in file   = 11666375
 No. of bits per label  =        8    No. of bits per value  =       64


 #quartets = 3.991D+05 #integrals = 1.529D+07 #direct =  0.0% #cached =100.0%


File balance: exchanges=     8  moved=    11  time=   0.0


 Grid_pts file          = ./H2CO.xyz.gridpts.00
 Record size in doubles =  12289        No. of grid_pts per rec  =   3070
 Max. records in memory =      3        Max. recs in file   =   1519765


           Memory utilization after 1st SCF pass: 
           Heap Space remaining (MW):        8.61             8610324
          Stack Space remaining (MW):       13.11            13106420

   convergence    iter        energy       DeltaE   RMS-Dens  Diis-err    time
 ---------------- ----- ----------------- --------- --------- ---------  ------
 d= 0,ls=0.0,diis     1   -114.4711090998 -1.46D+02  1.21D-02  1.18D+00     1.1
 d= 0,ls=0.0,diis     2   -113.8071926559  6.64D-01  9.07D-03  6.82D+00     1.4
 d= 0,ls=0.0,diis     3   -114.5467963059 -7.40D-01  9.41D-04  4.81D-02     1.6
 d= 0,ls=0.0,diis     4   -114.5454971831  1.30D-03  4.34D-04  3.52D-03     1.8
 d= 0,ls=0.0,diis     5   -114.5474914008 -1.99D-03  1.32D-04  4.59D-04     2.0
  Resetting Diis
 d= 0,ls=0.0,diis     6   -114.5466175181  8.74D-04  4.31D-05  4.84D-05     2.2
 d= 0,ls=0.0,diis     7   -114.5467997892 -1.82D-04  1.04D-05  4.68D-07     2.4
 d= 0,ls=0.0,diis     8   -114.5468163724 -1.66D-05  4.34D-06  2.17D-06     2.7
 d= 0,ls=0.0,diis     9   -114.5467973365  1.90D-05  1.44D-06  7.90D-08     2.9
 d= 0,ls=0.0,diis    10   -114.5468014580 -4.12D-06  6.76D-07  1.47D-09     3.1
 d= 0,ls=0.0,diis    11   -114.5468009622  4.96D-07  6.03D-08  2.81D-11     3.3


         Total DFT energy =     -114.546800962221
      One electron energy =     -217.056453340248
           Coulomb energy =       85.793855963199
          Exchange energy =      -14.110976486813
       Correlation energy =       -0.520334764360
 Nuclear repulsion energy =       31.347107666002

 Numeric. integr. density =       16.000000143646

     Total iterative time =      2.8s



                       DFT Final Molecular Orbital Analysis
                       ------------------------------------

 Vector    1  Occ=2.000000D+00  E=-1.898694D+01
              MO Center=  3.3D-17,  1.9D-13,  6.7D-01, r^2= 1.5D-02
   Bfn.  Coefficient  Atom+Function         Bfn.  Coefficient  Atom+Function  
  ----- ------------  ---------------      ----- ------------  ---------------
     1      0.550740  1 O  s                  2      0.470945  1 O  s          

 Vector    2  Occ=2.000000D+00  E=-1.015452D+01
              MO Center= -2.8D-16,  2.8D-13, -5.3D-01, r^2= 2.8D-02
   Bfn.  Coefficient  Atom+Function         Bfn.  Coefficient  Atom+Function  
  ----- ------------  ---------------      ----- ------------  ---------------
    46      0.562102  2 C  s                 47      0.465760  2 C  s          

 Vector    3  Occ=2.000000D+00  E=-1.059203D+00
              MO Center= -4.8D-15,  2.3D-11,  3.2D-01, r^2= 5.0D-01
   Bfn.  Coefficient  Atom+Function         Bfn.  Coefficient  Atom+Function  
  ----- ------------  ---------------      ----- ------------  ---------------
    10      0.558110  1 O  s                  6      0.486006  1 O  s          
    51      0.195789  2 C  s                  2     -0.186409  1 O  s          

 Vector    4  Occ=2.000000D+00  E=-6.501478D-01
              MO Center= -5.5D-15,  1.2D-11, -6.5D-01, r^2= 1.3D+00
   Bfn.  Coefficient  Atom+Function         Bfn.  Coefficient  Atom+Function  
  ----- ------------  ---------------      ----- ------------  ---------------
    55      0.426778  2 C  s                 10     -0.383318  1 O  s          
    51      0.301322  2 C  s                  6     -0.221478  1 O  s          

 Vector    5  Occ=2.000000D+00  E=-5.188891D-01
              MO Center= -1.3D-15, -6.8D-10, -3.8D-01, r^2= 1.3D+00
   Bfn.  Coefficient  Atom+Function         Bfn.  Coefficient  Atom+Function  
  ----- ------------  ---------------      ----- ------------  ---------------
    53      0.247038  2 C  py                12      0.225860  1 O  py         
    49      0.200750  2 C  py                 8      0.181653  1 O  py         
    92      0.162194  3 H  s                111     -0.162194  4 H  s          

 Vector    6  Occ=2.000000D+00  E=-4.752608D-01
              MO Center= -3.0D-15,  2.7D-10,  4.8D-01, r^2= 1.1D+00
   Bfn.  Coefficient  Atom+Function         Bfn.  Coefficient  Atom+Function  
  ----- ------------  ---------------      ----- ------------  ---------------
    13      0.382131  1 O  pz                10      0.359132  1 O  s          
    55      0.329898  2 C  s                  9      0.313383  1 O  pz         
     5      0.253563  1 O  pz                54     -0.193948  2 C  pz         
    50     -0.174203  2 C  pz                 6      0.158458  1 O  s          

 Vector    7  Occ=2.000000D+00  E=-4.513597D-01
              MO Center=  4.2D-15,  2.9D-11,  2.4D-01, r^2= 9.8D-01
   Bfn.  Coefficient  Atom+Function         Bfn.  Coefficient  Atom+Function  
  ----- ------------  ---------------      ----- ------------  ---------------
    11      0.341885  1 O  px                 7      0.308004  1 O  px         
     3      0.239790  1 O  px                52      0.219887  2 C  px         
    56      0.165650  2 C  px                48      0.162280  2 C  px         

 Vector    8  Occ=2.000000D+00  E=-2.970123D-01
              MO Center= -3.6D-16, -7.1D-10,  9.3D-02, r^2= 1.6D+00
   Bfn.  Coefficient  Atom+Function         Bfn.  Coefficient  Atom+Function  
  ----- ------------  ---------------      ----- ------------  ---------------
    12      0.434230  1 O  py                 8      0.349566  1 O  py         
     4      0.268884  1 O  py                92     -0.208223  3 H  s          
   111      0.208223  4 H  s                 93     -0.157382  3 H  s          
   112      0.157382  4 H  s          

 Vector    9  Occ=0.000000D+00  E=-1.664411D-01
              MO Center= -5.5D-15, -1.4D-10, -2.5D-01, r^2= 1.6D+00
   Bfn.  Coefficient  Atom+Function         Bfn.  Coefficient  Atom+Function  
  ----- ------------  ---------------      ----- ------------  ---------------
    56      0.476381  2 C  px                11     -0.346454  1 O  px         
    52      0.319134  2 C  px                 7     -0.277080  1 O  px         
    48      0.223015  2 C  px                 3     -0.208755  1 O  px         

 Vector   10  Occ=0.000000D+00  E=-2.070939D-02
              MO Center= -2.3D-14, -5.0D-09, -1.7D+00, r^2= 7.6D+00
   Bfn.  Coefficient  Atom+Function         Bfn.  Coefficient  Atom+Function  
  ----- ------------  ---------------      ----- ------------  ---------------
    59      2.054615  2 C  s                 94     -1.316588  3 H  s          
   113     -1.316588  4 H  s                 55      0.645845  2 C  s          
    93     -0.241125  3 H  s                112     -0.241125  4 H  s          
    51      0.226794  2 C  s                 62     -0.195545  2 C  pz         
    14     -0.184488  1 O  s          

 Vector   11  Occ=0.000000D+00  E= 1.751829D-02
              MO Center= -5.5D-14, -1.5D-08, -1.0D-01, r^2= 7.7D+00
   Bfn.  Coefficient  Atom+Function         Bfn.  Coefficient  Atom+Function  
  ----- ------------  ---------------      ----- ------------  ---------------
    14      1.650310  1 O  s                 62     -1.269010  2 C  pz         
    59     -1.004793  2 C  s                 10      0.530162  1 O  s          
    58     -0.505715  2 C  pz                55     -0.446442  2 C  s          
    17     -0.186102  1 O  pz                13     -0.170363  1 O  pz         
     6      0.163713  1 O  s          

 Vector   12  Occ=0.000000D+00  E= 1.835366D-02
              MO Center=  3.1D-16,  2.0D-08, -1.5D+00, r^2= 1.1D+01
   Bfn.  Coefficient  Atom+Function         Bfn.  Coefficient  Atom+Function  
  ----- ------------  ---------------      ----- ------------  ---------------
    94      2.948800  3 H  s                113     -2.948800  4 H  s          
    61     -1.095350  2 C  py                16      0.224094  1 O  py         
    79     -0.206727  2 C  dyz               93     -0.183031  3 H  s          
   112      0.183031  4 H  s                 53     -0.163600  2 C  py         

 Vector   13  Occ=0.000000D+00  E= 5.608850D-02
              MO Center= -2.1D-13, -3.1D-10, -7.3D-01, r^2= 9.3D+00
   Bfn.  Coefficient  Atom+Function         Bfn.  Coefficient  Atom+Function  
  ----- ------------  ---------------      ----- ------------  ---------------
    60      1.262313  2 C  px                56     -0.351046  2 C  px         
    15     -0.219391  1 O  px         

 Vector   14  Occ=0.000000D+00  E= 7.214689D-02
              MO Center=  2.5D-13,  4.3D-09, -1.2D+00, r^2= 6.0D+00
   Bfn.  Coefficient  Atom+Function         Bfn.  Coefficient  Atom+Function  
  ----- ------------  ---------------      ----- ------------  ---------------
    59      3.954098  2 C  s                 55      3.724036  2 C  s          
    93     -3.097864  3 H  s                112     -3.097864  4 H  s          
    14     -1.146674  1 O  s                 62     -0.913089  2 C  pz         
    58     -0.753062  2 C  pz                92     -0.561111  3 H  s          
   111     -0.561111  4 H  s                 78      0.502834  2 C  dyy        

 Vector   15  Occ=0.000000D+00  E= 1.003381D-01
              MO Center=  1.7D-14,  3.0D-08, -1.8D+00, r^2= 1.3D+01
   Bfn.  Coefficient  Atom+Function         Bfn.  Coefficient  Atom+Function  
  ----- ------------  ---------------      ----- ------------  ---------------
    59     10.931151  2 C  s                 94     -4.296937  3 H  s          
   113     -4.296937  4 H  s                 14     -1.848557  1 O  s          
    62     -1.516714  2 C  pz                55      1.323465  2 C  s          
    93     -0.644174  3 H  s                112     -0.644174  4 H  s          
    58      0.625341  2 C  pz                10     -0.494900  1 O  s          

 Vector   16  Occ=0.000000D+00  E= 1.019399D-01
              MO Center= -2.3D-16, -2.8D-08, -5.9D-01, r^2= 1.3D+01
   Bfn.  Coefficient  Atom+Function         Bfn.  Coefficient  Atom+Function  
  ----- ------------  ---------------      ----- ------------  ---------------
    94     -6.008695  3 H  s                113      6.008695  4 H  s          
    61      5.531943  2 C  py                93     -2.130510  3 H  s          
   112      2.130510  4 H  s                 57      1.012134  2 C  py         
    16     -0.652879  1 O  py                79     -0.364291  2 C  dyz        
   102      0.282430  3 H  py               121      0.282430  4 H  py         

 Vector   17  Occ=0.000000D+00  E= 1.367274D-01
              MO Center=  3.9D-15, -4.9D-09, -1.2D+00, r^2= 9.0D+00
   Bfn.  Coefficient  Atom+Function         Bfn.  Coefficient  Atom+Function  
  ----- ------------  ---------------      ----- ------------  ---------------
    93      3.336669  3 H  s                112     -3.336669  4 H  s          
    94     -2.699306  3 H  s                113      2.699306  4 H  s          
    57     -2.315421  2 C  py                79      0.716711  2 C  dyz        
    92      0.645097  3 H  s                111     -0.645097  4 H  s          
    61      0.443130  2 C  py               102     -0.389734  3 H  py         

 Vector   18  Occ=0.000000D+00  E= 1.386027D-01
              MO Center= -7.8D-15,  1.3D-10,  8.4D-01, r^2= 7.5D+00
   Bfn.  Coefficient  Atom+Function         Bfn.  Coefficient  Atom+Function  
  ----- ------------  ---------------      ----- ------------  ---------------
    14      5.362176  1 O  s                 17     -2.348230  1 O  pz         
    58     -2.077253  2 C  pz                59     -2.046156  2 C  s          
    55     -2.019874  2 C  s                 80     -1.339370  2 C  dzz        
    62     -1.179129  2 C  pz                10      0.957932  1 O  s          
    93     -0.862370  3 H  s                112     -0.862370  4 H  s          

 Vector   19  Occ=0.000000D+00  E= 1.970526D-01
              MO Center= -1.9D-14, -1.1D-09, -6.9D-01, r^2= 3.0D+00
   Bfn.  Coefficient  Atom+Function         Bfn.  Coefficient  Atom+Function  
  ----- ------------  ---------------      ----- ------------  ---------------
    76      1.095928  2 C  dxy              101      0.286049  3 H  px         
   120     -0.286049  4 H  px         

 Vector   20  Occ=0.000000D+00  E= 2.038527D-01
              MO Center= -2.5D-13,  2.0D-10,  5.5D-01, r^2= 8.1D+00
   Bfn.  Coefficient  Atom+Function         Bfn.  Coefficient  Atom+Function  
  ----- ------------  ---------------      ----- ------------  ---------------
    14      2.382610  1 O  s                 62     -1.806095  2 C  pz         
    17      1.391378  1 O  pz                59     -0.948183  2 C  s          
    78      0.502637  2 C  dyy               55      0.451273  2 C  s          
     6     -0.356373  1 O  s                 94     -0.356860  3 H  s          
   113     -0.356860  4 H  s                 58      0.301949  2 C  pz         

 Vector   21  Occ=0.000000D+00  E= 2.047728D-01
              MO Center=  2.3D-13, -5.7D-10,  6.4D-01, r^2= 6.6D+00
   Bfn.  Coefficient  Atom+Function         Bfn.  Coefficient  Atom+Function  
  ----- ------------  ---------------      ----- ------------  ---------------
    15      1.964023  1 O  px                60     -0.983541  2 C  px         
    11     -0.375956  1 O  px                56     -0.259924  2 C  px         
    77     -0.212548  2 C  dxz                7     -0.155288  1 O  px         

 Vector   22  Occ=0.000000D+00  E= 2.702503D-01
              MO Center=  8.7D-15,  2.2D-09,  4.1D-01, r^2= 8.7D+00
   Bfn.  Coefficient  Atom+Function         Bfn.  Coefficient  Atom+Function  
  ----- ------------  ---------------      ----- ------------  ---------------
    61      5.102988  2 C  py                94     -5.034470  3 H  s          
   113      5.034470  4 H  s                 16     -3.066783  1 O  py         
    79      1.768534  2 C  dyz               93      0.352748  3 H  s          
   112     -0.352748  4 H  s                 92      0.207557  3 H  s          
   111     -0.207557  4 H  s                102     -0.192293  3 H  py         

 Vector   23  Occ=0.000000D+00  E= 2.794402D-01
              MO Center=  1.8D-14,  8.7D-10, -9.0D-01, r^2= 7.7D+00
   Bfn.  Coefficient  Atom+Function         Bfn.  Coefficient  Atom+Function  
  ----- ------------  ---------------      ----- ------------  ---------------
    59      9.979319  2 C  s                 55      9.296825  2 C  s          
    93     -6.111592  3 H  s                112     -6.111592  4 H  s          
    14     -5.307898  1 O  s                 94     -2.009384  3 H  s          
   113     -2.009384  4 H  s                 78      1.737959  2 C  dyy        
    17      1.476135  1 O  pz                62     -1.277040  2 C  pz         

 Vector   24  Occ=0.000000D+00  E= 3.094019D-01
              MO Center= -1.8D-14, -3.3D-09,  1.2D-01, r^2= 5.9D+00
   Bfn.  Coefficient  Atom+Function         Bfn.  Coefficient  Atom+Function  
  ----- ------------  ---------------      ----- ------------  ---------------
    14      7.266549  1 O  s                 93     -3.167965  3 H  s          
   112     -3.167965  4 H  s                 58     -2.983288  2 C  pz         
    17     -2.457535  1 O  pz                62     -1.271348  2 C  pz         
    75     -1.195912  2 C  dxx               13     -0.775461  1 O  pz         
    59     -0.694035  2 C  s                 92     -0.571628  3 H  s          

 Vector   25  Occ=0.000000D+00  E= 3.176797D-01
              MO Center=  1.0D-15, -3.7D-09, -2.3D-01, r^2= 7.1D+00
   Bfn.  Coefficient  Atom+Function         Bfn.  Coefficient  Atom+Function  
  ----- ------------  ---------------      ----- ------------  ---------------
    93      5.563140  3 H  s                112     -5.563140  4 H  s          
    61     -4.401744  2 C  py                57     -3.506657  2 C  py         
    94      2.722482  3 H  s                113     -2.722482  4 H  s          
    79      1.794800  2 C  dyz               16      1.392572  1 O  py         
   103      0.961804  3 H  pz               122     -0.961804  4 H  pz         

 Vector   26  Occ=0.000000D+00  E= 3.387671D-01
              MO Center= -2.4D-14, -4.1D-11, -1.0D+00, r^2= 4.1D+00
   Bfn.  Coefficient  Atom+Function         Bfn.  Coefficient  Atom+Function  
  ----- ------------  ---------------      ----- ------------  ---------------
    77      1.667270  2 C  dxz               15     -0.883731  1 O  px         
    60      0.857912  2 C  px                56      0.557376  2 C  px         
    11     -0.512371  1 O  px               101     -0.484567  3 H  px         
   120     -0.484567  4 H  px                52      0.387652  2 C  px         

 Vector   27  Occ=0.000000D+00  E= 3.951473D-01
              MO Center= -3.5D-14, -6.7D-10, -1.2D+00, r^2= 6.6D+00
   Bfn.  Coefficient  Atom+Function         Bfn.  Coefficient  Atom+Function  
  ----- ------------  ---------------      ----- ------------  ---------------
    59      5.460001  2 C  s                 93      3.760615  3 H  s          
   112      3.760615  4 H  s                 58      2.906265  2 C  pz         
    94     -2.244458  3 H  s                113     -2.244458  4 H  s          
    55     -2.029156  2 C  s                 75     -2.017179  2 C  dxx        
    78     -1.921222  2 C  dyy               14     -1.640900  1 O  s          

 Vector   28  Occ=0.000000D+00  E= 4.504539D-01
              MO Center=  2.4D-15, -4.6D-09, -1.3D+00, r^2= 5.0D+00
   Bfn.  Coefficient  Atom+Function         Bfn.  Coefficient  Atom+Function  
  ----- ------------  ---------------      ----- ------------  ---------------
    93      4.590154  3 H  s                112     -4.590154  4 H  s          
    57     -3.116197  2 C  py               102     -1.709247  3 H  py         
   121     -1.709247  4 H  py                94     -1.457621  3 H  s          
   113      1.457621  4 H  s                 79      1.100406  2 C  dyz        
    16      0.427412  1 O  py                92      0.348462  3 H  s          

 Vector   29  Occ=0.000000D+00  E= 4.626533D-01
              MO Center=  1.0D-13,  5.4D-09, -6.0D-01, r^2= 5.3D+00
   Bfn.  Coefficient  Atom+Function         Bfn.  Coefficient  Atom+Function  
  ----- ------------  ---------------      ----- ------------  ---------------
    14      4.023617  1 O  s                 78     -3.143907  2 C  dyy        
    55      2.993187  2 C  s                 59      2.788652  2 C  s          
    80     -2.046908  2 C  dzz               75     -1.943379  2 C  dxx        
    17     -1.704530  1 O  pz                94     -1.213043  3 H  s          
   113     -1.213043  4 H  s                 10     -1.123595  1 O  s          

 Vector   30  Occ=0.000000D+00  E= 4.648486D-01
              MO Center= -6.2D-14, -7.1D-09, -2.0D-01, r^2= 4.1D+00
   Bfn.  Coefficient  Atom+Function         Bfn.  Coefficient  Atom+Function  
  ----- ------------  ---------------      ----- ------------  ---------------
    77      3.044870  2 C  dxz               15     -0.969364  1 O  px         
   101      0.887442  3 H  px               120      0.887442  4 H  px         
    11     -0.809779  1 O  px                56      0.779452  2 C  px         
    52     -0.555893  2 C  px                32      0.377698  1 O  dxz        
    48     -0.170671  2 C  px         

 Vector   31  Occ=0.000000D+00  E= 4.671832D-01
              MO Center=  7.1D-16,  5.8D-09, -6.0D-01, r^2= 4.0D+00
   Bfn.  Coefficient  Atom+Function         Bfn.  Coefficient  Atom+Function  
  ----- ------------  ---------------      ----- ------------  ---------------
    76      3.101343  2 C  dxy              101     -1.697227  3 H  px         
   120      1.697227  4 H  px                31      0.302389  1 O  dxy        

 Vector   32  Occ=0.000000D+00  E= 5.259614D-01
              MO Center= -4.1D-14,  3.4D-09, -8.8D-01, r^2= 3.8D+00
   Bfn.  Coefficient  Atom+Function         Bfn.  Coefficient  Atom+Function  
  ----- ------------  ---------------      ----- ------------  ---------------
    56      3.133701  2 C  px                77     -1.607989  2 C  dxz        
   101     -1.553433  3 H  px               120     -1.553433  4 H  px         
    52     -0.588311  2 C  px                15     -0.313564  1 O  px         
    60     -0.187449  2 C  px                32      0.156713  1 O  dxz        


 center of mass
 --------------
 x =   0.00000000 y =   0.00000000 z =   0.13840140

 moments of inertia (a.u.)
 ------------------
          52.602739698921           0.000000000000           0.000000000000
           0.000000000000          46.303457083276           0.000000000000
           0.000000000000           0.000000000000           6.299282615645

     Multipole analysis of the density
     ---------------------------------

     L   x y z        total         alpha         beta         nuclear
     -   - - -        -----         -----         ----         -------
     0   0 0 0     -0.000000     -8.000000     -8.000000     16.000000

     1   1 0 0      0.000000      0.000000      0.000000      0.000000
     1   0 1 0      0.000000      0.000000      0.000000      0.000000
     1   0 0 1     -0.933445     -0.466722     -0.466722     -0.000000

     2   2 0 0     -8.972547     -4.486274     -4.486274      0.000000
     2   1 1 0      0.000000      0.000000      0.000000      0.000000
     2   1 0 1     -0.000000     -0.000000     -0.000000      0.000000
     2   0 2 0     -8.817248     -7.533811     -7.533811      6.250373
     2   0 1 1     -0.000000     -0.000000     -0.000000      0.000000
     2   0 0 2     -9.303200    -18.553498    -18.553498     27.803796


 Parallel integral file used     358 records with       0 large values


            General Information
            -------------------
          SCF calculation type: DFT
          Wavefunction type:  closed shell.
          No. of atoms     :     4
          No. of electrons :    16
           Alpha electrons :     8
            Beta electrons :     8
          Charge           :     0
          Spin multiplicity:     1
          Use of symmetry is: off; symmetry adaption is: off
          Maximum number of iterations: ***
          AO basis - number of functions:   128
                     number of shells:    42
          Convergence on energy requested: 1.00D-06
          Convergence on density requested: 1.00D-05
          Convergence on gradient requested: 5.00D-04

              XC Information
              --------------
                  TPSS metaGGA Exchange Functional  1.000          
             TPSS03 metaGGA Correlation Functional  1.000          

             Grid Information
             ----------------
          Grid used for XC integration:  medium    
          Radial quadrature: Mura-Knowles        
          Angular quadrature: Lebedev. 
          Tag              B.-S. Rad. Rad. Pts. Rad. Cut. Ang. Pts.
          ---              ---------- --------- --------- ---------
          O                   0.60       49          10.0       434
          C                   0.70       49          10.0       434
          H                   0.35       45          11.0       434
          Grid pruning is: on 
          Number of quadrature shells:   188
          Spatial weights used:  Erf1

          Convergence Information
          -----------------------
          Convergence aids based upon iterative change in 
          total energy or number of iterations. 
          Levelshifting, if invoked, occurs when the 
          HOMO/LUMO gap drops below (HL_TOL): 1.00D-02
          DIIS, if invoked, will attempt to extrapolate 
          using up to (NFOCK): 10 stored Fock matrices.

                    Damping( 0%)  Levelshifting(0.5)       DIIS
                  --------------- ------------------- ---------------
          dE  on:    start            ASAP                start   
          dE off:    2 iters        *** iters           *** iters 


      Screening Tolerance Information
      -------------------------------
          Density screening/tol_rho: 1.00D-10
          AO Gaussian exp screening on grid/accAOfunc:  14
          CD Gaussian exp screening on grid/accCDfunc:  20
          XC Gaussian exp screening on grid/accXCfunc:  20
          Schwarz screening/accCoul: 1.00D-08



                            NWChem DFT Gradient Module
                            --------------------------



  charge          =   0.00
  wavefunction    = closed shell



                         DFT ENERGY GRADIENTS

    atom               coordinates                        gradient
                 x          y          z           x          y          z
   1 O       0.000000   0.000000   1.274852   -0.000000  -0.000000   0.021550
   2 C       0.000000   0.000000  -1.001002    0.000000   0.000000  -0.020991
   3 H       0.000000   1.767820  -2.096401    0.000000  -0.003706  -0.000279
   4 H       0.000000  -1.767820  -2.096401    0.000000   0.003706  -0.000279

                 ----------------------------------------
                 |  Time  |  1-e(secs)   |  2-e(secs)   |
                 ----------------------------------------
                 |  CPU   |       0.00   |       0.85   |
                 ----------------------------------------
                 |  WALL  |       0.00   |       0.86   |
                 ----------------------------------------
                               NWChem STEPPER Module
                               ---------------------


   Step sought for minimum. 
   Update Hessian used. 
   Nuclear Hessian initialized with UNIT matrix. 
   Number of modes removed with force (in the spectral representation)
   less than:   0.000000 is:    3
   PARTIT has partitioned the input hessian 
   and gradient into two subspaces;  An 
   "external" hessian and gradient composed 
   of                     6  independent translations 
   and rotations, and an "internal" hessian 
   and gradient with a dimension of                     3
               e-diff         g-norm     g-max   
 value     -114.5468009622  0.030539  0.021550
 thres        0.0001000000  0.010000  0.000800
  trust radius =     0.10
   Calculating the Newton-Raphson step. 
  The length (norm) of the STEP is   0.030539

  The lowest few components in the bases 
  generated by the spectral decomposition 
  of the internal hessian (non-zero force). 

  Component  Hessian     Grad      Step   Scaled-Step
  ---------  --------  --------  -------- -----------
       1     0.10D+01  -.17D-01  0.17D-01  0.17D-01
       2     0.10D+01  -.52D-02  0.52D-02  0.52D-02
       3     0.10D+01  0.25D-01  -.25D-01  -.25D-01

  Clean-up the step; truncate at:   0.000001
  In cartesian coordinates; norm of this step is:   0.030539
         Walk statistics for step:   1
     Previous actual total energy:   0.000000000000D+00
      Current actual total energy:  -0.114546800962D+03
         Actual energy difference:  -0.114546800962D+03 threshold:         0.100000D-03
    Second order energy predicted:   0.000000000000D+00
             Ratio of differences:   0.000000000000D+00
               Fixed trust radius:   0.100000000000D+00
   Number of negative eigenvalues:   0
   Max absolute value of Gradient:   0.215496366067D-01 threshold:         0.800000D-03
                    Gradient norm:   0.305391268130D-01 threshold:         0.100000D-01
                RMS Gradient norm:   0.152695634065D-01
  Largest component of step v-tor:   0.248830000000D-01
  New 2nd order energy prediction:  -0.466319133120D-03



  ------------------- New geometry -------------------


                         Geometry "g-1-step" -> "g-1-step"
                         ---------------------------------

 Output coordinates in angstroms (scale by  1.889725989 to convert to a.u.)

  No.       Tag          Charge          X              Y              Z
 ---- ---------------- ---------- -------------- -------------- --------------
    1 O                    8.0000     0.00000000     0.00000000     0.66321873
    2 C                    6.0000     0.00000000     0.00000000    -0.51859954
    3 H                    1.0000     0.00000000     0.93745113    -1.10921986
    4 H                    1.0000     0.00000000    -0.93745113    -1.10921986

      Atomic Mass 
      ----------- 

      O                 15.994910
      C                 12.000000
      H                  1.007825


 Effective nuclear repulsion energy (a.u.)      31.7288682030

            Nuclear Dipole moment (a.u.) 
            ----------------------------
        X                 Y               Z
 ---------------- ---------------- ----------------
     0.0000000000     0.0000000000    -0.0458960000

 ==============================================================================
                                internuclear distances
 ------------------------------------------------------------------------------
       center one      |      center two      | atomic units |  angstroms
 ------------------------------------------------------------------------------
    2 C                |   1 O                |     2.23331  |     1.18182
    3 H                |   2 C                |     2.09380  |     1.10799
    4 H                |   2 C                |     2.09380  |     1.10799
 ------------------------------------------------------------------------------
                         number of included internuclear distances:          3
 ==============================================================================



 ==============================================================================
                                 internuclear angles
 ------------------------------------------------------------------------------
        center 1       |       center 2       |       center 3       |  degrees
 ------------------------------------------------------------------------------
    1 O                |   2 C                |   3 H                |   122.21
    1 O                |   2 C                |   4 H                |   122.21
    3 H                |   2 C                |   4 H                |   115.58
 ------------------------------------------------------------------------------
                            number of included internuclear angles:          3
 ==============================================================================



 ==============================================================================
                             internuclear dihedral angles
 ------------------------------------------------------------------------------
    center 1   |   center 2   |   center 3   |   center 4   |  degrees
 ------------------------------------------------------------------------------
    4 H        |   2 C        |   3 H        |   1 O        |   180.00
 ------------------------------------------------------------------------------
                            number of included dihedral angles:          1
 ==============================================================================




                                 NWChem DFT Module
                                 -----------------




 Summary of "ao basis" -> "ao basis" (cartesian)
 ------------------------------------------------------------------------------
       Tag                 Description            Shells   Functions and Types
 ---------------- ------------------------------  ------  ---------------------
 O                     6-311++G(3df,3pd)            13       45   5s4p3d1f
 C                     6-311++G(3df,3pd)            13       45   5s4p3d1f
 H                     6-311++G(3df,3pd)             8       19   4s3p1d


  Caching 1-el integrals 

            General Information
            -------------------
          SCF calculation type: DFT
          Wavefunction type:  closed shell.
          No. of atoms     :     4
          No. of electrons :    16
           Alpha electrons :     8
            Beta electrons :     8
          Charge           :     0
          Spin multiplicity:     1
          Use of symmetry is: off; symmetry adaption is: off
          Maximum number of iterations: ***
          AO basis - number of functions:   128
                     number of shells:    42
          Convergence on energy requested: 1.00D-06
          Convergence on density requested: 1.00D-05
          Convergence on gradient requested: 5.00D-04

              XC Information
              --------------
                  TPSS metaGGA Exchange Functional  1.000          
             TPSS03 metaGGA Correlation Functional  1.000          

             Grid Information
             ----------------
          Grid used for XC integration:  medium    
          Radial quadrature: Mura-Knowles        
          Angular quadrature: Lebedev. 
          Tag              B.-S. Rad. Rad. Pts. Rad. Cut. Ang. Pts.
          ---              ---------- --------- --------- ---------
          O                   0.60       49          10.0       434
          C                   0.70       49          10.0       434
          H                   0.35       45          11.0       434
          Grid pruning is: on 
          Number of quadrature shells:   188
          Spatial weights used:  Erf1

          Convergence Information
          -----------------------
          Convergence aids based upon iterative change in 
          total energy or number of iterations. 
          Levelshifting, if invoked, occurs when the 
          HOMO/LUMO gap drops below (HL_TOL): 1.00D-02
          DIIS, if invoked, will attempt to extrapolate 
          using up to (NFOCK): 10 stored Fock matrices.

                    Damping( 0%)  Levelshifting(0.5)       DIIS
                  --------------- ------------------- ---------------
          dE  on:    start            ASAP                start   
          dE off:    2 iters        *** iters           *** iters 


      Screening Tolerance Information
      -------------------------------
          Density screening/tol_rho: 1.00D-10
          AO Gaussian exp screening on grid/accAOfunc:  14
          CD Gaussian exp screening on grid/accCDfunc:  20
          XC Gaussian exp screening on grid/accXCfunc:  20
          Schwarz screening/accCoul: 1.00D-08


 Loading old vectors from job with title :



   Time after variat. SCF:      4.6
   Time prior to 1st pass:      4.6

 Integral file          = ./H2CO.xyz.aoints.00
 Record size in doubles =    65536    No. of integs per rec  =    43688
 Max. records in memory =       68    Max. records in file   = 11666132
 No. of bits per label  =        8    No. of bits per value  =       64


 #quartets = 4.020D+05 #integrals = 1.540D+07 #direct =  0.0% #cached =100.0%


File balance: exchanges=     8  moved=    11  time=   0.0


 Grid_pts file          = ./H2CO.xyz.gridpts.00
 Record size in doubles =  12289        No. of grid_pts per rec  =   3070
 Max. records in memory =      3        Max. recs in file   =  62214312


           Memory utilization after 1st SCF pass: 
           Heap Space remaining (MW):        8.61             8610324
          Stack Space remaining (MW):       13.11            13106420

   convergence    iter        energy       DeltaE   RMS-Dens  Diis-err    time
 ---------------- ----- ----------------- --------- --------- ---------  ------
 d= 0,ls=0.0,diis     1   -114.5448118532 -1.46D+02  6.62D-04  4.89D-03     5.2
 d= 0,ls=0.0,diis     2   -114.5471582742 -2.35D-03  3.27D-04  5.73D-03     5.5
 d= 0,ls=0.0,diis     3   -114.5451785131  1.98D-03  1.77D-04  2.95D-03     5.8
 d= 0,ls=0.0,diis     4   -114.5459531239 -7.75D-04  4.46D-05  1.08D-04     6.1
 d= 0,ls=0.0,diis     5   -114.5461190737 -1.66D-04  1.50D-05  3.80D-06     6.4
 d= 0,ls=0.0,diis     6   -114.5460497782  6.93D-05  3.64D-06  1.69D-07     6.7
 d= 0,ls=0.0,diis     7   -114.5460579594 -8.18D-06  8.48D-07  5.17D-09     7.0
 d= 0,ls=0.0,diis     8   -114.5460575473  4.12D-07  4.41D-08  7.13D-12     7.3


         Total DFT energy =     -114.546057547302
      One electron energy =     -217.780460225834
           Coulomb energy =       86.151931227904
          Exchange energy =      -14.125053534755
       Correlation energy =       -0.521343217604
 Nuclear repulsion energy =       31.728868202987

 Numeric. integr. density =       15.999999512863

     Total iterative time =      2.6s



                       DFT Final Molecular Orbital Analysis
                       ------------------------------------

 Vector    1  Occ=2.000000D+00  E=-1.898594D+01
              MO Center= -1.5D-16,  1.8D-13,  6.6D-01, r^2= 1.5D-02
   Bfn.  Coefficient  Atom+Function         Bfn.  Coefficient  Atom+Function  
  ----- ------------  ---------------      ----- ------------  ---------------
     1      0.550721  1 O  s                  2      0.470946  1 O  s          

 Vector    2  Occ=2.000000D+00  E=-1.015167D+01
              MO Center=  2.4D-16,  2.5D-13, -5.2D-01, r^2= 2.8D-02
   Bfn.  Coefficient  Atom+Function         Bfn.  Coefficient  Atom+Function  
  ----- ------------  ---------------      ----- ------------  ---------------
    46      0.562054  2 C  s                 47      0.465766  2 C  s          

 Vector    3  Occ=2.000000D+00  E=-1.071085D+00
              MO Center=  4.0D-15,  2.5D-11,  3.1D-01, r^2= 4.9D-01
   Bfn.  Coefficient  Atom+Function         Bfn.  Coefficient  Atom+Function  
  ----- ------------  ---------------      ----- ------------  ---------------
    10      0.559653  1 O  s                  6      0.484389  1 O  s          
    51      0.194703  2 C  s                  2     -0.186054  1 O  s          

 Vector    4  Occ=2.000000D+00  E=-6.456430D-01
              MO Center= -1.9D-16,  4.7D-11, -6.5D-01, r^2= 1.3D+00
   Bfn.  Coefficient  Atom+Function         Bfn.  Coefficient  Atom+Function  
  ----- ------------  ---------------      ----- ------------  ---------------
    55      0.427076  2 C  s                 10     -0.386744  1 O  s          
    51      0.302183  2 C  s                  6     -0.220162  1 O  s          

 Vector    5  Occ=2.000000D+00  E=-5.207172D-01
              MO Center=  3.9D-16, -7.1D-10, -3.4D-01, r^2= 1.3D+00
   Bfn.  Coefficient  Atom+Function         Bfn.  Coefficient  Atom+Function  
  ----- ------------  ---------------      ----- ------------  ---------------
    53      0.245387  2 C  py                12      0.237394  1 O  py         
    49      0.199361  2 C  py                 8      0.190781  1 O  py         
    92      0.154280  3 H  s                111     -0.154280  4 H  s          
     4      0.150215  1 O  py         

 Vector    6  Occ=2.000000D+00  E=-4.785611D-01
              MO Center=  3.1D-14,  3.1D-10,  4.8D-01, r^2= 1.1D+00
   Bfn.  Coefficient  Atom+Function         Bfn.  Coefficient  Atom+Function  
  ----- ------------  ---------------      ----- ------------  ---------------
    13      0.381792  1 O  pz                10      0.358763  1 O  s          
    55      0.353394  2 C  s                  9      0.315672  1 O  pz         
     5      0.254662  1 O  pz                54     -0.189812  2 C  pz         
    50     -0.174773  2 C  pz                 6      0.158240  1 O  s          

 Vector    7  Occ=2.000000D+00  E=-4.584699D-01
              MO Center= -2.7D-14,  2.6D-11,  2.4D-01, r^2= 9.6D-01
   Bfn.  Coefficient  Atom+Function         Bfn.  Coefficient  Atom+Function  
  ----- ------------  ---------------      ----- ------------  ---------------
    11      0.341862  1 O  px                 7      0.308468  1 O  px         
     3      0.240181  1 O  px                52      0.219435  2 C  px         
    48      0.163596  2 C  px                56      0.159425  2 C  px         

 Vector    8  Occ=2.000000D+00  E=-2.953467D-01
              MO Center=  8.9D-16, -7.6D-10,  3.8D-02, r^2= 1.7D+00
   Bfn.  Coefficient  Atom+Function         Bfn.  Coefficient  Atom+Function  
  ----- ------------  ---------------      ----- ------------  ---------------
    12      0.428565  1 O  py                 8      0.343852  1 O  py         
     4      0.264408  1 O  py                92     -0.213901  3 H  s          
   111      0.213901  4 H  s                 93     -0.158507  3 H  s          
   112      0.158507  4 H  s          

 Vector    9  Occ=0.000000D+00  E=-1.606350D-01
              MO Center=  2.8D-15, -1.5D-10, -2.6D-01, r^2= 1.6D+00
   Bfn.  Coefficient  Atom+Function         Bfn.  Coefficient  Atom+Function  
  ----- ------------  ---------------      ----- ------------  ---------------
    56      0.482751  2 C  px                11     -0.349067  1 O  px         
    52      0.317160  2 C  px                 7     -0.277024  1 O  px         
    48      0.221753  2 C  px                 3     -0.208517  1 O  px         

 Vector   10  Occ=0.000000D+00  E=-2.103792D-02
              MO Center= -8.6D-15, -5.1D-09, -1.7D+00, r^2= 7.5D+00
   Bfn.  Coefficient  Atom+Function         Bfn.  Coefficient  Atom+Function  
  ----- ------------  ---------------      ----- ------------  ---------------
    59      2.062496  2 C  s                 94     -1.312617  3 H  s          
   113     -1.312617  4 H  s                 55      0.674557  2 C  s          
    93     -0.251905  3 H  s                112     -0.251905  4 H  s          
    51      0.227619  2 C  s                 62     -0.204471  2 C  pz         
    14     -0.193991  1 O  s          

 Vector   11  Occ=0.000000D+00  E= 1.848483D-02
              MO Center= -1.3D-15, -2.5D-07, -1.5D+00, r^2= 1.1D+01
   Bfn.  Coefficient  Atom+Function         Bfn.  Coefficient  Atom+Function  
  ----- ------------  ---------------      ----- ------------  ---------------
    94      2.908495  3 H  s                113     -2.908495  4 H  s          
    61     -1.062032  2 C  py                16      0.228933  1 O  py         
    79     -0.215609  2 C  dyz               93     -0.211527  3 H  s          
   112      0.211527  4 H  s                 53     -0.166073  2 C  py         

 Vector   12  Occ=0.000000D+00  E= 1.852893D-02
              MO Center= -1.4D-14,  2.6D-07, -6.1D-02, r^2= 7.8D+00
   Bfn.  Coefficient  Atom+Function         Bfn.  Coefficient  Atom+Function  
  ----- ------------  ---------------      ----- ------------  ---------------
    14      1.689939  1 O  s                 62     -1.278162  2 C  pz         
    59     -1.036411  2 C  s                 10      0.537410  1 O  s          
    58     -0.500478  2 C  pz                55     -0.472635  2 C  s          
    17     -0.180367  1 O  pz                13     -0.162954  1 O  pz         
     6      0.160641  1 O  s          

 Vector   13  Occ=0.000000D+00  E= 5.602467D-02
              MO Center=  3.1D-14, -3.2D-10, -7.1D-01, r^2= 9.2D+00
   Bfn.  Coefficient  Atom+Function         Bfn.  Coefficient  Atom+Function  
  ----- ------------  ---------------      ----- ------------  ---------------
    60      1.260791  2 C  px                56     -0.351744  2 C  px         
    15     -0.217607  1 O  px         

 Vector   14  Occ=0.000000D+00  E= 7.248494D-02
              MO Center= -1.8D-14,  4.0D-09, -1.2D+00, r^2= 6.0D+00
   Bfn.  Coefficient  Atom+Function         Bfn.  Coefficient  Atom+Function  
  ----- ------------  ---------------      ----- ------------  ---------------
    59      3.756567  2 C  s                 55      3.675181  2 C  s          
    93     -3.074808  3 H  s                112     -3.074808  4 H  s          
    14     -1.126727  1 O  s                 62     -0.924076  2 C  pz         
    58     -0.773670  2 C  pz                92     -0.551781  3 H  s          
   111     -0.551781  4 H  s                 78      0.510407  2 C  dyy        

 Vector   15  Occ=0.000000D+00  E= 1.002285D-01
              MO Center= -6.1D-16,  4.9D-08, -1.8D+00, r^2= 1.3D+01
   Bfn.  Coefficient  Atom+Function         Bfn.  Coefficient  Atom+Function  
  ----- ------------  ---------------      ----- ------------  ---------------
    59     11.018172  2 C  s                 94     -4.297752  3 H  s          
   113     -4.297751  4 H  s                 14     -1.989506  1 O  s          
    62     -1.561753  2 C  pz                55      1.508582  2 C  s          
    93     -0.707357  3 H  s                112     -0.707357  4 H  s          
    58      0.660018  2 C  pz                10     -0.552063  1 O  s          

 Vector   16  Occ=0.000000D+00  E= 1.012743D-01
              MO Center=  4.5D-15, -4.9D-08, -6.0D-01, r^2= 1.3D+01
   Bfn.  Coefficient  Atom+Function         Bfn.  Coefficient  Atom+Function  
  ----- ------------  ---------------      ----- ------------  ---------------
    94     -5.942188  3 H  s                113      5.942188  4 H  s          
    61      5.463072  2 C  py                93     -2.041225  3 H  s          
   112      2.041225  4 H  s                 57      0.965183  2 C  py         
    16     -0.661623  1 O  py                79     -0.347433  2 C  dyz        
   102      0.270359  3 H  py               121      0.270359  4 H  py         

 Vector   17  Occ=0.000000D+00  E= 1.371304D-01
              MO Center= -3.3D-15, -5.4D-09, -1.2D+00, r^2= 8.9D+00
   Bfn.  Coefficient  Atom+Function         Bfn.  Coefficient  Atom+Function  
  ----- ------------  ---------------      ----- ------------  ---------------
    93      3.348555  3 H  s                112     -3.348555  4 H  s          
    94     -2.597872  3 H  s                113      2.597872  4 H  s          
    57     -2.321777  2 C  py                79      0.732446  2 C  dyz        
    92      0.636018  3 H  s                111     -0.636018  4 H  s          
   102     -0.388851  3 H  py               121     -0.388851  4 H  py         

 Vector   18  Occ=0.000000D+00  E= 1.381220D-01
              MO Center= -3.6D-16,  9.8D-10,  8.9D-01, r^2= 7.3D+00
   Bfn.  Coefficient  Atom+Function         Bfn.  Coefficient  Atom+Function  
  ----- ------------  ---------------      ----- ------------  ---------------
    14      5.565235  1 O  s                 17     -2.435469  1 O  pz         
    55     -2.258007  2 C  s                 58     -2.165510  2 C  pz         
    59     -2.074268  2 C  s                 80     -1.364992  2 C  dzz        
    62     -1.139787  2 C  pz                10      1.028653  1 O  s          
    93     -0.857439  3 H  s                112     -0.857439  4 H  s          

 Vector   19  Occ=0.000000D+00  E= 1.970940D-01
              MO Center=  3.1D-15, -1.2D-09, -6.8D-01, r^2= 3.0D+00
   Bfn.  Coefficient  Atom+Function         Bfn.  Coefficient  Atom+Function  
  ----- ------------  ---------------      ----- ------------  ---------------
    76      1.088981  2 C  dxy              101      0.290323  3 H  px         
   120     -0.290323  4 H  px         

 Vector   20  Occ=0.000000D+00  E= 2.048010D-01
              MO Center= -5.0D-14, -5.5D-10,  6.3D-01, r^2= 6.6D+00
   Bfn.  Coefficient  Atom+Function         Bfn.  Coefficient  Atom+Function  
  ----- ------------  ---------------      ----- ------------  ---------------
    15      1.995964  1 O  px                60     -1.011207  2 C  px         
    11     -0.359289  1 O  px                56     -0.273986  2 C  px         
    77     -0.248716  2 C  dxz                7     -0.154729  1 O  px         

 Vector   21  Occ=0.000000D+00  E= 2.071040D-01
              MO Center=  6.0D-14,  1.7D-10,  5.4D-01, r^2= 8.2D+00
   Bfn.  Coefficient  Atom+Function         Bfn.  Coefficient  Atom+Function  
  ----- ------------  ---------------      ----- ------------  ---------------
    14      2.791463  1 O  s                 62     -1.848547  2 C  pz         
    17      1.298822  1 O  pz                59     -1.217080  2 C  s          
    78      0.510792  2 C  dyy                6     -0.356651  1 O  s          
    80     -0.340787  2 C  dzz               94     -0.304097  3 H  s          
   113     -0.304097  4 H  s                 13     -0.299957  1 O  pz         

 Vector   22  Occ=0.000000D+00  E= 2.702367D-01
              MO Center= -1.6D-15,  2.1D-09,  4.0D-01, r^2= 8.9D+00
   Bfn.  Coefficient  Atom+Function         Bfn.  Coefficient  Atom+Function  
  ----- ------------  ---------------      ----- ------------  ---------------
    61      5.173581  2 C  py                94     -5.077376  3 H  s          
   113      5.077376  4 H  s                 16     -3.134598  1 O  py         
    79      1.786271  2 C  dyz               93      0.353812  3 H  s          
   112     -0.353812  4 H  s                 92      0.208435  3 H  s          
   111     -0.208435  4 H  s                 57      0.196856  2 C  py         

 Vector   23  Occ=0.000000D+00  E= 2.803864D-01
              MO Center=  3.5D-15,  9.6D-10, -9.5D-01, r^2= 7.6D+00
   Bfn.  Coefficient  Atom+Function         Bfn.  Coefficient  Atom+Function  
  ----- ------------  ---------------      ----- ------------  ---------------
    59      9.933913  2 C  s                 55      9.376618  2 C  s          
    93     -6.157693  3 H  s                112     -6.157694  4 H  s          
    14     -5.212844  1 O  s                 94     -2.004021  3 H  s          
   113     -2.004021  4 H  s                 78      1.750446  2 C  dyy        
    17      1.475492  1 O  pz                62     -1.383622  2 C  pz         

 Vector   24  Occ=0.000000D+00  E= 3.142155D-01
              MO Center=  4.8D-15, -4.2D-09,  1.5D-01, r^2= 5.8D+00
   Bfn.  Coefficient  Atom+Function         Bfn.  Coefficient  Atom+Function  
  ----- ------------  ---------------      ----- ------------  ---------------
    14      7.501118  1 O  s                 93     -2.998223  3 H  s          
   112     -2.998222  4 H  s                 58     -2.978055  2 C  pz         
    17     -2.588082  1 O  pz                75     -1.241250  2 C  dxx        
    62     -1.162957  2 C  pz                59     -0.983786  2 C  s          
    13     -0.798891  1 O  pz                92     -0.542203  3 H  s          

 Vector   25  Occ=0.000000D+00  E= 3.183192D-01
              MO Center= -3.3D-15, -2.5D-09, -2.4D-01, r^2= 7.0D+00
   Bfn.  Coefficient  Atom+Function         Bfn.  Coefficient  Atom+Function  
  ----- ------------  ---------------      ----- ------------  ---------------
    93      5.498574  3 H  s                112     -5.498574  4 H  s          
    61     -4.231274  2 C  py                57     -3.480137  2 C  py         
    94      2.542189  3 H  s                113     -2.542189  4 H  s          
    79      1.820128  2 C  dyz               16      1.346524  1 O  py         
   103      0.977962  3 H  pz               122     -0.977962  4 H  pz         

 Vector   26  Occ=0.000000D+00  E= 3.395071D-01
              MO Center= -1.4D-14, -6.2D-11, -1.0D+00, r^2= 4.1D+00
   Bfn.  Coefficient  Atom+Function         Bfn.  Coefficient  Atom+Function  
  ----- ------------  ---------------      ----- ------------  ---------------
    77      1.615933  2 C  dxz               15     -0.860517  1 O  px         
    60      0.855531  2 C  px                56      0.574813  2 C  px         
    11     -0.524716  1 O  px               101     -0.506439  3 H  px         
   120     -0.506439  4 H  px                52      0.398812  2 C  px         

 Vector   27  Occ=0.000000D+00  E= 3.946261D-01
              MO Center=  8.4D-15, -2.8D-10, -1.3D+00, r^2= 6.6D+00
   Bfn.  Coefficient  Atom+Function         Bfn.  Coefficient  Atom+Function  
  ----- ------------  ---------------      ----- ------------  ---------------
    59      5.464401  2 C  s                 93      3.802207  3 H  s          
   112      3.802207  4 H  s                 58      3.086010  2 C  pz         
    94     -2.246532  3 H  s                113     -2.246532  4 H  s          
    75     -2.000608  2 C  dxx               78     -1.928799  2 C  dyy        
    55     -1.814200  2 C  s                 14     -1.803999  1 O  s          

 Vector   28  Occ=0.000000D+00  E= 4.504502D-01
              MO Center=  1.2D-15, -4.4D-09, -1.3D+00, r^2= 5.0D+00
   Bfn.  Coefficient  Atom+Function         Bfn.  Coefficient  Atom+Function  
  ----- ------------  ---------------      ----- ------------  ---------------
    93      4.557731  3 H  s                112     -4.557731  4 H  s          
    57     -3.113787  2 C  py               102     -1.697497  3 H  py         
   121     -1.697496  4 H  py                94     -1.438178  3 H  s          
   113      1.438178  4 H  s                 79      1.082901  2 C  dyz        
    16      0.454348  1 O  py                92      0.329683  3 H  s          

 Vector   29  Occ=0.000000D+00  E= 4.628446D-01
              MO Center= -4.6D-14,  4.6D-09, -6.0D-01, r^2= 5.3D+00
   Bfn.  Coefficient  Atom+Function         Bfn.  Coefficient  Atom+Function  
  ----- ------------  ---------------      ----- ------------  ---------------
    14      4.147239  1 O  s                 78     -3.173241  2 C  dyy        
    55      3.062786  2 C  s                 59      2.776317  2 C  s          
    80     -2.031027  2 C  dzz               75     -1.979147  2 C  dxx        
    17     -1.735190  1 O  pz                10     -1.206306  1 O  s          
    94     -1.209217  3 H  s                113     -1.209217  4 H  s          

 Vector   30  Occ=0.000000D+00  E= 4.661519D-01
              MO Center=  3.4D-14, -1.6D-07, -1.8D-01, r^2= 4.1D+00
   Bfn.  Coefficient  Atom+Function         Bfn.  Coefficient  Atom+Function  
  ----- ------------  ---------------      ----- ------------  ---------------
    77      3.150168  2 C  dxz               15     -1.030594  1 O  px         
   101      0.876103  3 H  px               120      0.876109  4 H  px         
    11     -0.865079  1 O  px                56      0.856514  2 C  px         
    52     -0.534937  2 C  px                32      0.400182  1 O  dxz        
    48     -0.166196  2 C  px         

 Vector   31  Occ=0.000000D+00  E= 4.662423D-01
              MO Center=  2.6D-15,  1.6D-07, -6.1D-01, r^2= 4.0D+00
   Bfn.  Coefficient  Atom+Function         Bfn.  Coefficient  Atom+Function  
  ----- ------------  ---------------      ----- ------------  ---------------
    76      3.059763  2 C  dxy              101     -1.674453  3 H  px         
   120      1.674450  4 H  px                31      0.293760  1 O  dxy        

 Vector   32  Occ=0.000000D+00  E= 5.272804D-01
              MO Center=  3.4D-15,  3.3D-09, -8.7D-01, r^2= 3.8D+00
   Bfn.  Coefficient  Atom+Function         Bfn.  Coefficient  Atom+Function  
  ----- ------------  ---------------      ----- ------------  ---------------
    56      3.118257  2 C  px                77     -1.630721  2 C  dxz        
   101     -1.545008  3 H  px               120     -1.545008  4 H  px         
    52     -0.590021  2 C  px                15     -0.330212  1 O  px         
    60     -0.176542  2 C  px                32      0.170772  1 O  dxz        


 center of mass
 --------------
 x =   0.00000000 y =   0.00000000 z =   0.13532795

 moments of inertia (a.u.)
 ------------------
          51.281637256346           0.000000000000           0.000000000000
           0.000000000000          44.955915733484           0.000000000000
           0.000000000000           0.000000000000           6.325721522862

     Multipole analysis of the density
     ---------------------------------

     L   x y z        total         alpha         beta         nuclear
     -   - - -        -----         -----         ----         -------
     0   0 0 0     -0.000000     -8.000000     -8.000000     16.000000

     1   1 0 0     -0.000000     -0.000000     -0.000000      0.000000
     1   0 1 0      0.000000      0.000000      0.000000      0.000000
     1   0 0 1     -0.891829     -0.422966     -0.422966     -0.045896

     2   2 0 0     -8.935584     -4.467792     -4.467792      0.000000
     2   1 1 0     -0.000000     -0.000000     -0.000000      0.000000
     2   1 0 1     -0.000000     -0.000000     -0.000000      0.000000
     2   0 2 0     -8.841586     -7.559097     -7.559097      6.276607
     2   0 1 1     -0.000000     -0.000000     -0.000000      0.000000
     2   0 0 2     -9.340468    -18.228285    -18.228285     27.116102


 Parallel integral file used     360 records with       0 large values


            General Information
            -------------------
          SCF calculation type: DFT
          Wavefunction type:  closed shell.
          No. of atoms     :     4
          No. of electrons :    16
           Alpha electrons :     8
            Beta electrons :     8
          Charge           :     0
          Spin multiplicity:     1
          Use of symmetry is: off; symmetry adaption is: off
          Maximum number of iterations: ***
          AO basis - number of functions:   128
                     number of shells:    42
          Convergence on energy requested: 1.00D-06
          Convergence on density requested: 1.00D-05
          Convergence on gradient requested: 5.00D-04

              XC Information
              --------------
                  TPSS metaGGA Exchange Functional  1.000          
             TPSS03 metaGGA Correlation Functional  1.000          

             Grid Information
             ----------------
          Grid used for XC integration:  medium    
          Radial quadrature: Mura-Knowles        
          Angular quadrature: Lebedev. 
          Tag              B.-S. Rad. Rad. Pts. Rad. Cut. Ang. Pts.
          ---              ---------- --------- --------- ---------
          O                   0.60       49          10.0       434
          C                   0.70       49          10.0       434
          H                   0.35       45          11.0       434
          Grid pruning is: on 
          Number of quadrature shells:   188
          Spatial weights used:  Erf1

          Convergence Information
          -----------------------
          Convergence aids based upon iterative change in 
          total energy or number of iterations. 
          Levelshifting, if invoked, occurs when the 
          HOMO/LUMO gap drops below (HL_TOL): 1.00D-02
          DIIS, if invoked, will attempt to extrapolate 
          using up to (NFOCK): 10 stored Fock matrices.

                    Damping( 0%)  Levelshifting(0.5)       DIIS
                  --------------- ------------------- ---------------
          dE  on:    start            ASAP                start   
          dE off:    2 iters        *** iters           *** iters 


      Screening Tolerance Information
      -------------------------------
          Density screening/tol_rho: 1.00D-10
          AO Gaussian exp screening on grid/accAOfunc:  14
          CD Gaussian exp screening on grid/accCDfunc:  20
          XC Gaussian exp screening on grid/accXCfunc:  20
          Schwarz screening/accCoul: 1.00D-08



                            NWChem DFT Gradient Module
                            --------------------------



  charge          =   0.00
  wavefunction    = closed shell



                         DFT ENERGY GRADIENTS

    atom               coordinates                        gradient
                 x          y          z           x          y          z
   1 O       0.000000   0.000000   1.253302   -0.000000  -0.000000  -0.016038
   2 C       0.000000   0.000000  -0.980011    0.000000   0.000000   0.019045
   3 H       0.000000   1.771526  -2.096122    0.000000  -0.001685  -0.001504
   4 H       0.000000  -1.771526  -2.096122    0.000000   0.001685  -0.001504

                 ----------------------------------------
                 |  Time  |  1-e(secs)   |  2-e(secs)   |
                 ----------------------------------------
                 |  CPU   |       0.00   |       0.85   |
                 ----------------------------------------
                 |  WALL  |       0.00   |       0.86   |
                 ----------------------------------------
                               NWChem STEPPER Module
                               ---------------------


   Step sought for minimum. 
  Energy ratio, actual to predicted =   0.627266
   Update Hessian used. 
   Number of modes removed with force (in the spectral representation)
   less than:   0.000000 is:    3
   PARTIT has partitioned the input hessian 
   and gradient into two subspaces;  An 
   "external" hessian and gradient composed 
   of                     6  independent translations 
   and rotations, and an "internal" hessian 
   and gradient with a dimension of                     3
               e-diff         g-norm     g-max   
 value        0.0007434149  0.025102  0.019045
 thres        0.0001000000  0.010000  0.000800
  trust radius =     0.10
   Calculating the Newton-Raphson step. 
  The length (norm) of the STEP is   0.013520

  The lowest few components in the bases 
  generated by the spectral decomposition 
  of the internal hessian (non-zero force). 

  Component  Hessian     Grad      Step   Scaled-Step
  ---------  --------  --------  -------- -----------
       1     0.96D+00  -.34D-03  0.35D-03  0.35D-03
       2     0.10D+01  -.13D-06  0.13D-06  0.13D-06
       3     0.19D+01  -.25D-01  0.14D-01  0.14D-01

  Clean-up the step; truncate at:   0.000001
  In cartesian coordinates; norm of this step is:   0.013520
         Walk statistics for step:   2
     Previous actual total energy:  -0.114546800962D+03
      Current actual total energy:  -0.114546057547D+03
         Actual energy difference:   0.743414918404D-03 threshold:         0.100000D-03
    Second order energy predicted:  -0.466319133120D-03
             Ratio of differences:   0.627266310611D+00
               Fixed trust radius:   0.100000000000D+00
   Number of negative eigenvalues:   0
   Max absolute value of Gradient:   0.190447457701D-01 threshold:         0.800000D-03
                    Gradient norm:   0.251019493912D-01 threshold:         0.100000D-01
                RMS Gradient norm:   0.125509746956D-01
  Largest component of step v-tor:   0.135150000000D-01
  New 2nd order energy prediction:  -0.169672818033D-03



  ------------------- New geometry -------------------


                         Geometry "g-2-step" -> "g-2-step"
                         ---------------------------------

 Output coordinates in angstroms (scale by  1.889725989 to convert to a.u.)

  No.       Tag          Charge          X              Y              Z
 ---- ---------------- ---------- -------------- -------------- --------------
    1 O                    8.0000     0.00000000     0.00000000     0.66776066
    2 C                    6.0000     0.00000000     0.00000000    -0.52403842
    3 H                    1.0000     0.00000000     0.93798719    -1.10877112
    4 H                    1.0000     0.00000000    -0.93798719    -1.10877112

      Atomic Mass 
      ----------- 

      O                 15.994910
      C                 12.000000
      H                  1.007825


 Effective nuclear repulsion energy (a.u.)      31.5544374043

            Nuclear Dipole moment (a.u.) 
            ----------------------------
        X                 Y               Z
 ---------------- ---------------- ----------------
     0.0000000000     0.0000000000    -0.0372040000

 ==============================================================================
                                internuclear distances
 ------------------------------------------------------------------------------
       center one      |      center two      | atomic units |  angstroms
 ------------------------------------------------------------------------------
    2 C                |   1 O                |     2.25217  |     1.19180
    3 H                |   2 C                |     2.08875  |     1.10532
    4 H                |   2 C                |     2.08875  |     1.10532
 ------------------------------------------------------------------------------
                         number of included internuclear distances:          3
 ==============================================================================



 ==============================================================================
                                 internuclear angles
 ------------------------------------------------------------------------------
        center 1       |       center 2       |       center 3       |  degrees
 ------------------------------------------------------------------------------
[...]
  ----- ------------  ---------------      ----- ------------  ---------------
    59      9.719738  2 C  s                 55      9.257500  2 C  s          
    93     -6.166328  3 H  s                112     -6.166328  4 H  s          
    14     -5.096941  1 O  s                 94     -1.910681  3 H  s          
   113     -1.910681  4 H  s                 78      1.793071  2 C  dyy        
    17      1.366179  1 O  pz                62     -1.249071  2 C  pz         

 Vector   24  Occ=0.000000D+00  E= 3.124342D-01
              MO Center= -7.6D-15, -2.6D-09,  1.5D-01, r^2= 5.8D+00
   Bfn.  Coefficient  Atom+Function         Bfn.  Coefficient  Atom+Function  
  ----- ------------  ---------------      ----- ------------  ---------------
    14      7.452690  1 O  s                 58     -2.906102  2 C  pz         
    93     -2.915774  3 H  s                112     -2.915774  4 H  s          
    17     -2.564054  1 O  pz                75     -1.220941  2 C  dxx        
    62     -1.148854  2 C  pz                59     -1.088833  2 C  s          
    13     -0.795227  1 O  pz                92     -0.532512  3 H  s          

 Vector   25  Occ=0.000000D+00  E= 3.188489D-01
              MO Center=  3.6D-15, -2.4D-09, -2.4D-01, r^2= 7.0D+00
   Bfn.  Coefficient  Atom+Function         Bfn.  Coefficient  Atom+Function  
  ----- ------------  ---------------      ----- ------------  ---------------
    93      5.487021  3 H  s                112     -5.487021  4 H  s          
    61     -4.341381  2 C  py                57     -3.492629  2 C  py         
    94      2.651274  3 H  s                113     -2.651274  4 H  s          
    79      1.790848  2 C  dyz               16      1.339796  1 O  py         
   103      0.964496  3 H  pz               122     -0.964496  4 H  pz         

 Vector   26  Occ=0.000000D+00  E= 3.398632D-01
              MO Center=  2.3D-15, -1.8D-12, -1.0D+00, r^2= 4.1D+00
   Bfn.  Coefficient  Atom+Function         Bfn.  Coefficient  Atom+Function  
  ----- ------------  ---------------      ----- ------------  ---------------
    77      1.649133  2 C  dxz               15     -0.866294  1 O  px         
    60      0.856849  2 C  px                56      0.560219  2 C  px         
    11     -0.521762  1 O  px               101     -0.496161  3 H  px         
   120     -0.496161  4 H  px                52      0.395968  2 C  px         

 Vector   27  Occ=0.000000D+00  E= 3.943050D-01
              MO Center= -8.5D-16, -2.5D-10, -1.2D+00, r^2= 6.7D+00
   Bfn.  Coefficient  Atom+Function         Bfn.  Coefficient  Atom+Function  
  ----- ------------  ---------------      ----- ------------  ---------------
    59      5.606732  2 C  s                 93      3.719407  3 H  s          
   112      3.719407  4 H  s                 58      2.936316  2 C  pz         
    94     -2.283172  3 H  s                113     -2.283172  4 H  s          
    75     -2.003104  2 C  dxx               78     -1.947485  2 C  dyy        
    14     -1.815195  1 O  s                 55     -1.779544  2 C  s          

 Vector   28  Occ=0.000000D+00  E= 4.475241D-01
              MO Center= -7.7D-15, -2.9D-09, -1.3D+00, r^2= 5.1D+00
   Bfn.  Coefficient  Atom+Function         Bfn.  Coefficient  Atom+Function  
  ----- ------------  ---------------      ----- ------------  ---------------
    93      4.628330  3 H  s                112     -4.628330  4 H  s          
    57     -3.183986  2 C  py               102     -1.707378  3 H  py         
   121     -1.707378  4 H  py                94     -1.365998  3 H  s          
   113      1.365998  4 H  s                 79      1.168782  2 C  dyz        
    16      0.463387  1 O  py                92      0.352819  3 H  s          

 Vector   29  Occ=0.000000D+00  E= 4.623267D-01
              MO Center= -2.9D-14,  3.1D-09, -6.1D-01, r^2= 5.3D+00
   Bfn.  Coefficient  Atom+Function         Bfn.  Coefficient  Atom+Function  
  ----- ------------  ---------------      ----- ------------  ---------------
    14      4.103520  1 O  s                 78     -3.099976  2 C  dyy        
    55      3.006538  2 C  s                 59      2.775735  2 C  s          
    80     -2.079703  2 C  dzz               75     -1.961245  2 C  dxx        
    17     -1.727498  1 O  pz                94     -1.205911  3 H  s          
   113     -1.205911  4 H  s                 10     -1.139955  1 O  s          

 Vector   30  Occ=0.000000D+00  E= 4.639889D-01
              MO Center=  3.8D-14, -4.0D-09, -2.2D-01, r^2= 4.1D+00
   Bfn.  Coefficient  Atom+Function         Bfn.  Coefficient  Atom+Function  
  ----- ------------  ---------------      ----- ------------  ---------------
    77      3.098799  2 C  dxz               15     -0.994141  1 O  px         
   101      0.901720  3 H  px               120      0.901720  4 H  px         
    11     -0.831751  1 O  px                56      0.759903  2 C  px         
    52     -0.527698  2 C  px                32      0.381700  1 O  dxz        
    48     -0.164382  2 C  px         

 Vector   31  Occ=0.000000D+00  E= 4.674295D-01
              MO Center=  1.2D-15,  3.1D-09, -6.0D-01, r^2= 4.0D+00
   Bfn.  Coefficient  Atom+Function         Bfn.  Coefficient  Atom+Function  
  ----- ------------  ---------------      ----- ------------  ---------------
    76      3.115364  2 C  dxy              101     -1.691530  3 H  px         
   120      1.691530  4 H  px                31      0.298693  1 O  dxy        

 Vector   32  Occ=0.000000D+00  E= 5.252607D-01
              MO Center= -2.7D-14,  2.3D-09, -8.5D-01, r^2= 3.8D+00
   Bfn.  Coefficient  Atom+Function         Bfn.  Coefficient  Atom+Function  
  ----- ------------  ---------------      ----- ------------  ---------------
    56      3.125063  2 C  px               101     -1.503039  3 H  px         
   120     -1.503039  4 H  px                77     -1.457987  2 C  dxz        
    52     -0.602658  2 C  px                15     -0.356836  1 O  px         
    32      0.181532  1 O  dxz               60     -0.180844  2 C  px         


 center of mass
 --------------
 x =   0.00000000 y =   0.00000000 z =   0.12872129

 moments of inertia (a.u.)
 ------------------
          51.831881124118           0.000000000000           0.000000000000
           0.000000000000          45.384588875609           0.000000000000
           0.000000000000           0.000000000000           6.447292248509

     Multipole analysis of the density
     ---------------------------------

     L   x y z        total         alpha         beta         nuclear
     -   - - -        -----         -----         ----         -------
     0   0 0 0     -0.000000     -8.000000     -8.000000     16.000000

     1   1 0 0      0.000000      0.000000      0.000000      0.000000
     1   0 1 0      0.000000      0.000000      0.000000      0.000000
     1   0 0 1     -0.906794     -0.385387     -0.385387     -0.136020

     2   2 0 0     -8.960752     -4.480376     -4.480376      0.000000
     2   1 1 0     -0.000000     -0.000000     -0.000000      0.000000
     2   1 0 1      0.000000      0.000000      0.000000      0.000000
     2   0 2 0     -8.796528     -7.596881     -7.596881      6.397234
     2   0 1 1     -0.000000     -0.000000     -0.000000      0.000000
     2   0 0 2     -9.348439    -18.307507    -18.307507     27.266574


 Parallel integral file used     362 records with       0 large values


            General Information
            -------------------
          SCF calculation type: DFT
          Wavefunction type:  closed shell.
          No. of atoms     :     4
          No. of electrons :    16
           Alpha electrons :     8
            Beta electrons :     8
          Charge           :     0
          Spin multiplicity:     1
          Use of symmetry is: off; symmetry adaption is: off
          Maximum number of iterations: ***
          AO basis - number of functions:   128
                     number of shells:    42
          Convergence on energy requested: 1.00D-06
          Convergence on density requested: 1.00D-05
          Convergence on gradient requested: 5.00D-04

              XC Information
              --------------
                  TPSS metaGGA Exchange Functional  1.000          
             TPSS03 metaGGA Correlation Functional  1.000          

             Grid Information
             ----------------
          Grid used for XC integration:  medium    
          Radial quadrature: Mura-Knowles        
          Angular quadrature: Lebedev. 
          Tag              B.-S. Rad. Rad. Pts. Rad. Cut. Ang. Pts.
          ---              ---------- --------- --------- ---------
          O                   0.60       49          10.0       434
          C                   0.70       49          10.0       434
          H                   0.35       45          11.0       434
          Grid pruning is: on 
          Number of quadrature shells:   188
          Spatial weights used:  Erf1

          Convergence Information
          -----------------------
          Convergence aids based upon iterative change in 
          total energy or number of iterations. 
          Levelshifting, if invoked, occurs when the 
          HOMO/LUMO gap drops below (HL_TOL): 1.00D-02
          DIIS, if invoked, will attempt to extrapolate 
          using up to (NFOCK): 10 stored Fock matrices.

                    Damping( 0%)  Levelshifting(0.5)       DIIS
                  --------------- ------------------- ---------------
          dE  on:    start            ASAP                start   
          dE off:    2 iters        *** iters           *** iters 


      Screening Tolerance Information
      -------------------------------
          Density screening/tol_rho: 1.00D-10
          AO Gaussian exp screening on grid/accAOfunc:  14
          CD Gaussian exp screening on grid/accCDfunc:  20
          XC Gaussian exp screening on grid/accXCfunc:  20
          Schwarz screening/accCoul: 1.00D-08



                            NWChem DFT Gradient Module
                            --------------------------



  charge          =   0.00
  wavefunction    = closed shell



                         DFT ENERGY GRADIENTS

    atom               coordinates                        gradient
                 x          y          z           x          y          z
   1 O       0.000000   0.000000   1.253642    0.000000  -0.000000   0.000430
   2 C       0.000000   0.000000  -0.998512   -0.000000   0.000000   0.000269
   3 H       0.000000   1.788468  -2.087041   -0.000000   0.000328  -0.000349
   4 H       0.000000  -1.788468  -2.087041    0.000000  -0.000328  -0.000349

                 ----------------------------------------
                 |  Time  |  1-e(secs)   |  2-e(secs)   |
                 ----------------------------------------
                 |  CPU   |       0.00   |       0.85   |
                 ----------------------------------------
                 |  WALL  |       0.00   |       0.85   |
                 ----------------------------------------
                               NWChem STEPPER Module
                               ---------------------


   Step sought for minimum. 
   Actual energy difference is :    5.1590996051231741E-005
   2nd order predicted energy difference  was :   -3.6774885001427818E-005
   One of these is below the energy  tolerance:    1.0000000000000000E-004
   Backstepping possibilities are NO 
   longer considered appropriate. 
   Update Hessian used. 
   Number of modes removed with force (in the spectral representation)
   less than:   0.000000 is:    3
   PARTIT has partitioned the input hessian 
   and gradient into two subspaces;  An 
   "external" hessian and gradient composed 
   of                     6  independent translations 
   and rotations, and an "internal" hessian 
   and gradient with a dimension of                     3
               e-diff         g-norm     g-max   
 value        0.0000515910  0.000846  0.000430
 thres        0.0001000000  0.010000  0.000800
   ENERGY =   -114.54654659927958     
   The hessian exhibits the "proper" 
   structure, and the gradient and energy 
   convergence criterion has been met.  
   This geometry walk is HISTORY.
   Calculating the Newton-Raphson step. 
  The length (norm) of the STEP is   0.001020

  The lowest few components in the bases 
  generated by the spectral decomposition 
  of the internal hessian (non-zero force). 

  Component  Hessian     Grad      Step   Scaled-Step
  ---------  --------  --------  -------- -----------
       1     0.12D+00  -.75D-04  0.61D-03  0.61D-03
       2     0.10D+01  0.84D-03  -.82D-03  -.82D-03
       3     0.19D+01  0.78D-04  -.41D-04  -.41D-04

  Clean-up the step; truncate at:   0.000001
  In cartesian coordinates; norm of this step is:   0.001020



  ---------------- Converged geometry ----------------


                         Geometry "g-5-step" -> "g-5-step"
                         ---------------------------------

 Output coordinates in angstroms (scale by  1.889725989 to convert to a.u.)

  No.       Tag          Charge          X              Y              Z
 ---- ---------------- ---------- -------------- -------------- --------------
    1 O                    8.0000     0.00000000     0.00000000     0.66339865
    2 C                    6.0000     0.00000000     0.00000000    -0.52838985
    3 H                    1.0000     0.00000000     0.94641645    -1.10441440
    4 H                    1.0000     0.00000000    -0.94641645    -1.10441440

      Atomic Mass 
      ----------- 

      O                 15.994910
      C                 12.000000
      H                  1.007825


 Effective nuclear repulsion energy (a.u.)      31.5464449455

            Nuclear Dipole moment (a.u.) 
            ----------------------------
        X                 Y               Z
 ---------------- ---------------- ----------------
     0.0000000000     0.0000000000    -0.1360200000

 ==============================================================================
                                internuclear distances
 ------------------------------------------------------------------------------
       center one      |      center two      | atomic units |  angstroms
 ------------------------------------------------------------------------------
    2 C                |   1 O                |     2.25215  |     1.19179
    3 H                |   2 C                |     2.09368  |     1.10793
    4 H                |   2 C                |     2.09368  |     1.10793
 ------------------------------------------------------------------------------
                         number of included internuclear distances:          3
 ==============================================================================



 ==============================================================================
                                 internuclear angles
 ------------------------------------------------------------------------------
        center 1       |       center 2       |       center 3       |  degrees
 ------------------------------------------------------------------------------
    1 O                |   2 C                |   3 H                |   121.33
    1 O                |   2 C                |   4 H                |   121.33
    3 H                |   2 C                |   4 H                |   117.35
 ------------------------------------------------------------------------------
                            number of included internuclear angles:          3
 ==============================================================================



 ==============================================================================
                             internuclear dihedral angles
 ------------------------------------------------------------------------------
    center 1   |   center 2   |   center 3   |   center 4   |  degrees
 ------------------------------------------------------------------------------
    4 H        |   2 C        |   3 H        |   1 O        |   180.00
 ------------------------------------------------------------------------------
                            number of included dihedral angles:          1
 ==============================================================================




 Task  times  cpu:       18.2s     wall:       22.4s


                                NWChem Input Module
                                -------------------


 Summary of allocated global arrays
-----------------------------------
  No active global arrays



                         GA Statistics for process    0
                         ------------------------------

       create   destroy   get      put      acc     scatter   gather  read&inc
calls:  721      721     1.70e+05 5282     1785        0        0      455     
number of processes/call 1.20e+00 2.80e+00 4.76e+00 0.00e+00 0.00e+00
bytes total:             1.62e+08 2.17e+07 6.98e+07 0.00e+00 0.00e+00 3.64e+03
bytes remote:            1.36e+08 1.31e+07 6.18e+07 0.00e+00 0.00e+00 0.00e+00
Max memory consumed for GA by this process: 583200 bytes

MA_summarize_allocated_blocks: starting scan ...
MA_summarize_allocated_blocks: scan completed: 0 heap blocks, 0 stack blocks
MA usage statistics:

	allocation statistics:
					      heap	     stack
					      ----	     -----
	current number of blocks	         0	         0
	maximum number of blocks	        23	        51
	current total bytes		         0	         0
	maximum total bytes		  35975008	  42516072
	maximum total K-bytes		     35976	     42517
	maximum total M-bytes		        36	        43


                                     CITATION
                                     --------
                Please cite the following reference when publishing
                           results obtained with NWChem:

                 M. Valiev, E.J. Bylaska, N. Govind, K. Kowalski,
              T.P. Straatsma, H.J.J. van Dam, D. Wang, J. Nieplocha,
                        E. Apra, T.L. Windus, W.A. de Jong
                 "NWChem: a comprehensive and scalable open-source
                  solution for large scale molecular simulations"
                      Comput. Phys. Commun. 181, 1477 (2010)
                           doi:10.1016/j.cpc.2010.04.018

                                      AUTHORS
                                      -------
          E. Apra, E. J. Bylaska, W. A. de Jong, N. Govind, K. Kowalski,
       T. P. Straatsma, M. Valiev, H. J. J. van Dam, D. Wang, T. L. Windus,
        J. Hammond, J. Autschbach, K. Bhaskaran-Nair, J. Brabec, K. Lopata,
       S. A. Fischer, S. Krishnamoorthy, W. Ma, M. Klemm, O. Villa, Y. Chen,
    V. Anisimov, F. Aquino, S. Hirata, M. T. Hackler, T. Risthaus, M. Malagoli,
       A. Marenich, A. Otero-de-la-Roza, J. Mullin, P. Nichols, R. Peverati,
     J. Pittner, Y. Zhao, P.-D. Fan, A. Fonari, M. Williamson, R. J. Harrison,
       J. R. Rehr, M. Dupuis, D. Silverstein, D. M. A. Smith, J. Nieplocha,
        V. Tipparaju, M. Krishnan, B. E. Van Kuiken, A. Vazquez-Mayagoitia,
        L. Jensen, M. Swart, Q. Wu, T. Van Voorhis, A. A. Auer, M. Nooijen,
      L. D. Crosby, E. Brown, G. Cisneros, G. I. Fann, H. Fruchtl, J. Garza,
        K. Hirao, R. A. Kendall, J. A. Nichols, K. Tsemekhman, K. Wolinski,
     J. Anchell, D. E. Bernholdt, P. Borowski, T. Clark, D. Clerc, H. Dachsel,
   M. J. O. Deegan, K. Dyall, D. Elwood, E. Glendening, M. Gutowski, A. C. Hess,
         J. Jaffe, B. G. Johnson, J. Ju, R. Kobayashi, R. Kutteh, Z. Lin,
   R. Littlefield, X. Long, B. Meng, T. Nakajima, S. Niu, L. Pollack, M. Rosing,
   K. Glaesemann, G. Sandrone, M. Stave, H. Taylor, G. Thomas, J. H. van Lenthe,
                               A. T. Wong, Z. Zhang.

 Total times  cpu:       18.3s     wall:       22.6s
