[1537857261.443834] [r8n4:11663:0]         sys.c:744  MXM  WARN  Conflicting CPU frequencies detected, using: 2221.66
[1537857261.452558] [r8n4:11664:0]         sys.c:744  MXM  WARN  Conflicting CPU frequencies detected, using: 2221.66
[1537857261.453613] [r8n4:11672:0]         sys.c:744  MXM  WARN  Conflicting CPU frequencies detected, using: 2221.66
[1537857261.454171] [r8n4:11665:0]         sys.c:744  MXM  WARN  Conflicting CPU frequencies detected, using: 2221.66
[1537857261.454185] [r8n4:11666:0]         sys.c:744  MXM  WARN  Conflicting CPU frequencies detected, using: 2221.66
[1537857261.454188] [r8n4:11667:0]         sys.c:744  MXM  WARN  Conflicting CPU frequencies detected, using: 2221.66
[1537857261.454422] [r8n4:11669:0]         sys.c:744  MXM  WARN  Conflicting CPU frequencies detected, using: 2221.66
[1537857261.454512] [r8n4:11670:0]         sys.c:744  MXM  WARN  Conflicting CPU frequencies detected, using: 2221.66
[1537857261.475114] [r8n4:11674:0]         sys.c:744  MXM  WARN  Conflicting CPU frequencies detected, using: 2221.66
[1537857261.475144] [r8n4:11678:0]         sys.c:744  MXM  WARN  Conflicting CPU frequencies detected, using: 2221.66
[1537857261.475204] [r8n4:11676:0]         sys.c:744  MXM  WARN  Conflicting CPU frequencies detected, using: 2221.66
[1537857261.502282] [r8n4:11680:0]         sys.c:744  MXM  WARN  Conflicting CPU frequencies detected, using: 2299.91
[1537857261.502747] [r8n4:11684:0]         sys.c:744  MXM  WARN  Conflicting CPU frequencies detected, using: 2299.91
[1537857261.503817] [r8n4:11686:0]         sys.c:744  MXM  WARN  Conflicting CPU frequencies detected, using: 2299.91
[1537857261.504236] [r8n4:11682:0]         sys.c:744  MXM  WARN  Conflicting CPU frequencies detected, using: 2299.91
[1537857261.505231] [r8n4:11688:0]         sys.c:744  MXM  WARN  Conflicting CPU frequencies detected, using: 2299.91
 argument  1 = /storage/home/bikashp/nwchem_run/rabeet/mgbl19/nwmgbl19/H2O.xyz.nw
                                         
                                         


              Northwest Computational Chemistry Package (NWChem) 6.6
              ------------------------------------------------------


                    Environmental Molecular Sciences Laboratory
                       Pacific Northwest National Laboratory
                                Richland, WA 99352

                              Copyright (c) 1994-2015
                       Pacific Northwest National Laboratory
                            Battelle Memorial Institute

             NWChem is an open-source computational chemistry package
                        distributed under the terms of the
                      Educational Community License (ECL) 2.0
             A copy of the license is included with this distribution
                              in the LICENSE.TXT file

                                  ACKNOWLEDGMENT
                                  --------------

            This software and its documentation were developed at the
            EMSL at Pacific Northwest National Laboratory, a multiprogram
            national laboratory, operated for the U.S. Department of Energy
            by Battelle under Contract Number DE-AC05-76RL01830. Support
            for this work was provided by the Department of Energy Office
            of Biological and Environmental Research, Office of Basic
            Energy Sciences, and the Office of Advanced Scientific Computing.


           Job information
           ---------------

    hostname        = r8n4.niserhpc.org
    program         = /home/bikashp/Code/nwchem-6.6_tpssloc/bin/LINUX64/nwchem
    date            = Tue Sep 25 12:04:24 2018

    compiled        = Tue_Sep_18_16:24:59_2018
    source          = /home/bikashp/Code/nwchem-6.6_tpssloc
    nwchem branch   = 6.6
    nwchem revision = 27746
    ga revision     = 10594
    input           = /storage/home/bikashp/nwchem_run/rabeet/mgbl19/nwmgbl19/H2O.xyz.nw
    prefix          = H2O.xyz.
    data base       = ./H2O.xyz.db
    status          = startup
    nproc           =       16
    time left       =     -1s



           Memory information
           ------------------

    heap     =   13107196 doubles =    100.0 Mbytes
    stack    =   13107201 doubles =    100.0 Mbytes
    global   =   26214400 doubles =    200.0 Mbytes (distinct from heap & stack)
    total    =   52428797 doubles =    400.0 Mbytes
    verify   = yes
    hardfail = no 


           Directory information
           ---------------------

  0 permanent = .
  0 scratch   = .




                                NWChem Input Module
                                -------------------



 Scaling coordinates for geometry "geometry" by  1.889725989
 (inverse scale =  0.529177249)



                             Geometry "geometry" -> ""
                             -------------------------

 Output coordinates in angstroms (scale by  1.889725989 to convert to a.u.)

  No.       Tag          Charge          X              Y              Z
 ---- ---------------- ---------- -------------- -------------- --------------
    1 O                    8.0000    -0.09263600     0.00000000    -0.07170400
    2 H                    1.0000    -0.09263600     0.00000000     0.88520600
    3 H                    1.0000     0.83372400     0.00000000    -0.31157400

      Atomic Mass 
      ----------- 

      O                 15.994910
      H                  1.007825


 Effective nuclear repulsion energy (a.u.)       9.1977493655

            Nuclear Dipole moment (a.u.) 
            ----------------------------
        X                 Y               Z
 ---------------- ---------------- ----------------
     0.0000000000     0.0000000000    -0.0000000000


            XYZ format geometry
            -------------------
     3
 geometry
 O                    -0.09263600     0.00000000    -0.07170400
 H                    -0.09263600     0.00000000     0.88520600
 H                     0.83372400     0.00000000    -0.31157400

 ==============================================================================
                                internuclear distances
 ------------------------------------------------------------------------------
       center one      |      center two      | atomic units |  angstroms
 ------------------------------------------------------------------------------
    2 H                |   1 O                |     1.80830  |     0.95691
    3 H                |   1 O                |     1.80830  |     0.95691
 ------------------------------------------------------------------------------
                         number of included internuclear distances:          2
 ==============================================================================



 ==============================================================================
                                 internuclear angles
 ------------------------------------------------------------------------------
        center 1       |       center 2       |       center 3       |  degrees
 ------------------------------------------------------------------------------
    2 H                |   1 O                |   3 H                |   104.52
 ------------------------------------------------------------------------------
                            number of included internuclear angles:          1
 ==============================================================================





 Summary of "ao basis" -> "" (cartesian)
 ------------------------------------------------------------------------------
       Tag                 Description            Shells   Functions and Types
 ---------------- ------------------------------  ------  ---------------------
 *                     6-311++G(3df,3pd)              on all atoms 




                           NWChem Geometry Optimization
                           ----------------------------



                                 NWChem DFT Module
                                 -----------------


                      Basis "ao basis" -> "ao basis" (cartesian)
                      -----
  O (Oxygen)
  ----------
            Exponent  Coefficients 
       -------------- ---------------------------------------------------------
  1 S  8.58850000E+03  0.001895
  1 S  1.29723000E+03  0.014386
  1 S  2.99296000E+02  0.070732
  1 S  8.73771000E+01  0.240001
  1 S  2.56789000E+01  0.594797
  1 S  3.74004000E+00  0.280802

  2 S  4.21175000E+01  0.113889
  2 S  9.62837000E+00  0.920811
  2 S  2.85332000E+00 -0.003274

  3 P  4.21175000E+01  0.036511
  3 P  9.62837000E+00  0.237153
  3 P  2.85332000E+00  0.819702

  4 S  9.05661000E-01  1.000000

  5 P  9.05661000E-01  1.000000

  6 S  2.55611000E-01  1.000000

  7 P  2.55611000E-01  1.000000

  8 S  8.45000000E-02  1.000000

  9 P  8.45000000E-02  1.000000

 10 D  5.16000000E+00  1.000000

 11 D  1.29200000E+00  1.000000

 12 D  3.22500000E-01  1.000000

 13 F  1.40000000E+00  1.000000

  H (Hydrogen)
  ------------
            Exponent  Coefficients 
       -------------- ---------------------------------------------------------
  1 S  3.38650000E+01  0.025494
  1 S  5.09479000E+00  0.190373
  1 S  1.15879000E+00  0.852161

  2 S  3.25840000E-01  1.000000

  3 S  1.02741000E-01  1.000000

  4 S  3.60000000E-02  1.000000

  5 P  3.00000000E+00  1.000000

  6 P  7.50000000E-01  1.000000

  7 P  1.87500000E-01  1.000000

  8 D  1.00000000E+00  1.000000



 Summary of "ao basis" -> "ao basis" (cartesian)
 ------------------------------------------------------------------------------
       Tag                 Description            Shells   Functions and Types
 ---------------- ------------------------------  ------  ---------------------
 O                     6-311++G(3df,3pd)            13       45   5s4p3d1f
 H                     6-311++G(3df,3pd)             8       19   4s3p1d




 Summary of "ao basis" -> "ao basis" (cartesian)
 ------------------------------------------------------------------------------
       Tag                 Description            Shells   Functions and Types
 ---------------- ------------------------------  ------  ---------------------
 O                     6-311++G(3df,3pd)            13       45   5s4p3d1f
 H                     6-311++G(3df,3pd)             8       19   4s3p1d


  Caching 1-el integrals 

            General Information
            -------------------
          SCF calculation type: DFT
          Wavefunction type:  closed shell.
          No. of atoms     :     3
          No. of electrons :    10
           Alpha electrons :     5
            Beta electrons :     5
          Charge           :     0
          Spin multiplicity:     1
          Use of symmetry is: off; symmetry adaption is: off
          Maximum number of iterations: ***
          AO basis - number of functions:    83
                     number of shells:    29
          Convergence on energy requested: 1.00D-06
          Convergence on density requested: 1.00D-05
          Convergence on gradient requested: 5.00D-04

              XC Information
              --------------
                  TPSS metaGGA Exchange Functional  1.000          
             TPSS03 metaGGA Correlation Functional  1.000          

             Grid Information
             ----------------
          Grid used for XC integration:  medium    
          Radial quadrature: Mura-Knowles        
          Angular quadrature: Lebedev. 
          Tag              B.-S. Rad. Rad. Pts. Rad. Cut. Ang. Pts.
          ---              ---------- --------- --------- ---------
          O                   0.60       49           8.0       434
          H                   0.35       45          11.0       434
          Grid pruning is: on 
          Number of quadrature shells:   139
          Spatial weights used:  Erf1

          Convergence Information
          -----------------------
          Convergence aids based upon iterative change in 
          total energy or number of iterations. 
          Levelshifting, if invoked, occurs when the 
          HOMO/LUMO gap drops below (HL_TOL): 1.00D-02
          DIIS, if invoked, will attempt to extrapolate 
          using up to (NFOCK): 10 stored Fock matrices.

                    Damping( 0%)  Levelshifting(0.5)       DIIS
                  --------------- ------------------- ---------------
          dE  on:    start            ASAP                start   
          dE off:    2 iters        *** iters           *** iters 


      Screening Tolerance Information
      -------------------------------
          Density screening/tol_rho: 1.00D-10
          AO Gaussian exp screening on grid/accAOfunc:  14
          CD Gaussian exp screening on grid/accCDfunc:  20
          XC Gaussian exp screening on grid/accXCfunc:  20
          Schwarz screening/accCoul: 1.00D-08


      Superposition of Atomic Density Guess
      -------------------------------------

 Sum of atomic energies:         -75.77742205

      Non-variational initial energy
      ------------------------------

 Total energy =     -75.940625
 1-e energy   =    -121.712803
 2-e energy   =      36.574429
 HOMO         =      -0.482820
 LUMO         =       0.016000

   Time after variat. SCF:      0.6
   Time prior to 1st pass:      0.6

 Integral file          = ./H2O.xyz.aoints.00
 Record size in doubles =    65536    No. of integs per rec  =    43688
 Max. records in memory =       13    Max. records in file   = 11666356
 No. of bits per label  =        8    No. of bits per value  =       64


 #quartets = 9.483D+04 #integrals = 2.718D+06 #direct =  0.0% #cached =100.0%


File balance: exchanges=     0  moved=     0  time=   0.0


 Grid_pts file          = ./H2O.xyz.gridpts.00
 Record size in doubles =  12289        No. of grid_pts per rec  =   3070
 Max. records in memory =      3        Max. recs in file   =  62215508


           Memory utilization after 1st SCF pass: 
           Heap Space remaining (MW):       12.22            12215444
          Stack Space remaining (MW):       13.11            13106644

   convergence    iter        energy       DeltaE   RMS-Dens  Diis-err    time
 ---------------- ----- ----------------- --------- --------- ---------  ------
 d= 0,ls=0.0,diis     1    -76.4259819317 -8.56D+01  1.15D-02  7.83D-01     0.9
 d= 0,ls=0.0,diis     2    -76.2889145811  1.37D-01  5.94D-03  1.70D+00     1.0
 d= 0,ls=0.0,diis     3    -76.4599215695 -1.71D-01  1.04D-03  4.32D-02     1.1
 d= 0,ls=0.0,diis     4    -76.4561292266  3.79D-03  2.95D-04  1.03D-03     1.2
 d= 0,ls=0.0,diis     5    -76.4559659132  1.63D-04  7.11D-05  9.02D-05     1.3
  Resetting Diis
 d= 0,ls=0.0,diis     6    -76.4558605348  1.05D-04  1.89D-05  9.51D-06     1.3
 d= 0,ls=0.0,diis     7    -76.4559622255 -1.02D-04  3.11D-06  2.33D-08     1.4
 d= 0,ls=0.0,diis     8    -76.4559546576  7.57D-06  7.80D-07  4.19D-08     1.5
 d= 0,ls=0.0,diis     9    -76.4559606451 -5.99D-06  3.01D-07  2.02D-09     1.6
 d= 0,ls=0.0,diis    10    -76.4559596324  1.01D-06  1.03D-07  8.13D-11     1.7
 d= 0,ls=0.0,diis    11    -76.4559596908 -5.84D-08  1.71D-08  5.44D-12     1.8


         Total DFT energy =      -76.455959690806
      One electron energy =     -122.698627502243
           Coulomb energy =       46.322209788520
          Exchange energy =       -8.946180392074
       Correlation energy =       -0.331110950532
 Nuclear repulsion energy =        9.197749365524

 Numeric. integr. density =       10.000001197766

     Total iterative time =      1.2s



                       DFT Final Molecular Orbital Analysis
                       ------------------------------------

 Vector    1  Occ=2.000000D+00  E=-1.896720D+01
              MO Center= -9.3D-02, -2.0D-16, -7.2D-02, r^2= 1.5D-02
   Bfn.  Coefficient  Atom+Function         Bfn.  Coefficient  Atom+Function  
  ----- ------------  ---------------      ----- ------------  ---------------
     1      0.550754  1 O  s                  2      0.470919  1 O  s          

 Vector    2  Occ=2.000000D+00  E=-1.009597D+00
              MO Center=  6.6D-02, -3.9D-15,  5.1D-02, r^2= 5.1D-01
   Bfn.  Coefficient  Atom+Function         Bfn.  Coefficient  Atom+Function  
  ----- ------------  ---------------      ----- ------------  ---------------
    10      0.650075  1 O  s                  6      0.542345  1 O  s          
     2     -0.203566  1 O  s          

 Vector    3  Occ=2.000000D+00  E=-5.516727D-01
              MO Center=  6.7D-02, -5.9D-15,  5.2D-02, r^2= 7.8D-01
   Bfn.  Coefficient  Atom+Function         Bfn.  Coefficient  Atom+Function  
  ----- ------------  ---------------      ----- ------------  ---------------
    13      0.305522  1 O  pz                 9      0.259739  1 O  pz         
    11     -0.236487  1 O  px                 7     -0.201048  1 O  px         
     5      0.198089  1 O  pz                 3     -0.153329  1 O  px         

 Vector    4  Occ=2.000000D+00  E=-4.179799D-01
              MO Center= -1.4D-01,  2.8D-15, -1.1D-01, r^2= 7.4D-01
   Bfn.  Coefficient  Atom+Function         Bfn.  Coefficient  Atom+Function  
  ----- ------------  ---------------      ----- ------------  ---------------
    10      0.404044  1 O  s                 11     -0.315659  1 O  px         
     7     -0.266173  1 O  px                13     -0.244333  1 O  pz         
     3     -0.210246  1 O  px                 9     -0.206029  1 O  pz         
     6      0.167994  1 O  s                  5     -0.162739  1 O  pz         

 Vector    5  Occ=2.000000D+00  E=-3.441252D-01
              MO Center= -5.6D-02, -2.1D-15, -4.3D-02, r^2= 7.1D-01
   Bfn.  Coefficient  Atom+Function         Bfn.  Coefficient  Atom+Function  
  ----- ------------  ---------------      ----- ------------  ---------------
    12      0.449168  1 O  py                 8      0.393292  1 O  py         
     4      0.298809  1 O  py         

 Vector    6  Occ=0.000000D+00  E=-4.413723D-02
              MO Center=  5.8D-01, -3.7D-14,  4.5D-01, r^2= 5.0D+00
   Bfn.  Coefficient  Atom+Function         Bfn.  Coefficient  Atom+Function  
  ----- ------------  ---------------      ----- ------------  ---------------
    14      0.716029  1 O  s                 48     -0.444302  2 H  s          
    67     -0.444307  3 H  s                 49     -0.440038  2 H  s          
    68     -0.440041  3 H  s                 10      0.417973  1 O  s          
     6      0.217542  1 O  s          

 Vector    7  Occ=0.000000D+00  E= 2.076754D-02
              MO Center=  5.8D-01, -3.7D-14,  4.5D-01, r^2= 8.2D+00
   Bfn.  Coefficient  Atom+Function         Bfn.  Coefficient  Atom+Function  
  ----- ------------  ---------------      ----- ------------  ---------------
    49      1.744478  2 H  s                 68     -1.744472  3 H  s          
    48      0.533042  2 H  s                 67     -0.533044  3 H  s          
    17     -0.371909  1 O  pz                15      0.287875  1 O  px         

 Vector    8  Occ=0.000000D+00  E= 1.062104D-01
              MO Center=  4.7D-01,  1.8D-13,  3.6D-01, r^2= 8.8D+00
   Bfn.  Coefficient  Atom+Function         Bfn.  Coefficient  Atom+Function  
  ----- ------------  ---------------      ----- ------------  ---------------
    48      1.880900  2 H  s                 67      1.881152  3 H  s          
    14     -0.971162  1 O  s                 49     -0.971351  2 H  s          
    68     -0.971517  3 H  s                 10     -0.313403  1 O  s          
    15     -0.314483  1 O  px                 6     -0.248570  1 O  s          
    17     -0.243359  1 O  pz                33     -0.202773  1 O  dyy        

 Vector    9  Occ=0.000000D+00  E= 1.125686D-01
              MO Center=  4.6D-02, -2.4D-14,  3.6D-02, r^2= 7.4D+00
   Bfn.  Coefficient  Atom+Function         Bfn.  Coefficient  Atom+Function  
  ----- ------------  ---------------      ----- ------------  ---------------
    48      3.146092  2 H  s                 67     -3.145915  3 H  s          
    49     -1.828902  2 H  s                 68      1.828819  3 H  s          
    17     -1.039159  1 O  pz                15      0.804332  1 O  px         
    13     -0.567774  1 O  pz                11      0.439464  1 O  px         
    47      0.370930  2 H  s                 66     -0.370930  3 H  s          

 Vector   10  Occ=0.000000D+00  E= 1.367431D-01
              MO Center= -9.3D-02, -6.0D-14, -7.2D-02, r^2= 4.8D+00
   Bfn.  Coefficient  Atom+Function         Bfn.  Coefficient  Atom+Function  
  ----- ------------  ---------------      ----- ------------  ---------------
    16      1.231435  1 O  py                12     -0.433103  1 O  py         
     8     -0.175595  1 O  py         

 Vector   11  Occ=0.000000D+00  E= 1.391035D-01
              MO Center= -4.2D-01,  7.7D-14, -3.3D-01, r^2= 4.9D+00
   Bfn.  Coefficient  Atom+Function         Bfn.  Coefficient  Atom+Function  
  ----- ------------  ---------------      ----- ------------  ---------------
    14      1.881073  1 O  s                 48     -1.670135  2 H  s          
    67     -1.670116  3 H  s                 15      1.505424  1 O  px         
    17      1.165270  1 O  pz                11     -0.271997  1 O  px         
     6      0.221414  1 O  s                 13     -0.210538  1 O  pz         
    33      0.176671  1 O  dyy               30      0.175349  1 O  dxx        

 Vector   12  Occ=0.000000D+00  E= 1.829859D-01
              MO Center=  1.9D-01, -2.2D-13,  1.5D-01, r^2= 6.1D+00
   Bfn.  Coefficient  Atom+Function         Bfn.  Coefficient  Atom+Function  
  ----- ------------  ---------------      ----- ------------  ---------------
    14     11.071703  1 O  s                 48     -5.580866  2 H  s          
    67     -5.580828  3 H  s                 15      2.223381  1 O  px         
    17      1.721004  1 O  pz                10      1.208808  1 O  s          
    58      0.699069  2 H  pz                75      0.695554  3 H  px         
    11      0.621408  1 O  px                47     -0.600048  2 H  s          

 Vector   13  Occ=0.000000D+00  E= 2.033627D-01
              MO Center= -1.4D-01, -4.2D-14, -1.1D-01, r^2= 7.6D+00
   Bfn.  Coefficient  Atom+Function         Bfn.  Coefficient  Atom+Function  
  ----- ------------  ---------------      ----- ------------  ---------------
    48     -2.633276  2 H  s                 67      2.633296  3 H  s          
    17      2.574455  1 O  pz                15     -1.992748  1 O  px         
    49     -1.900508  2 H  s                 68      1.900506  3 H  s          
    58      0.480787  2 H  pz                75     -0.477740  3 H  px         
    47     -0.332498  2 H  s                 66      0.332498  3 H  s          

 Vector   14  Occ=0.000000D+00  E= 2.785153D-01
              MO Center=  1.3D-01,  2.7D-15,  9.9D-02, r^2= 3.7D+00
   Bfn.  Coefficient  Atom+Function         Bfn.  Coefficient  Atom+Function  
  ----- ------------  ---------------      ----- ------------  ---------------
    14      5.616784  1 O  s                 48     -3.309058  2 H  s          
    67     -3.309037  3 H  s                 15      1.955727  1 O  px         
    17      1.513824  1 O  pz                77     -0.977039  3 H  pz         
    56     -0.921408  2 H  px                10      0.634789  1 O  s          
    11      0.635655  1 O  px                13      0.492026  1 O  pz         

 Vector   15  Occ=0.000000D+00  E= 3.034078D-01
              MO Center=  3.6D-01,  1.3D-13,  2.8D-01, r^2= 2.9D+00
   Bfn.  Coefficient  Atom+Function         Bfn.  Coefficient  Atom+Function  
  ----- ------------  ---------------      ----- ------------  ---------------
    57      0.960232  2 H  py                76     -0.960240  3 H  py         

 Vector   16  Occ=0.000000D+00  E= 3.420265D-01
              MO Center=  1.7D-01,  1.5D-13,  1.3D-01, r^2= 3.4D+00
   Bfn.  Coefficient  Atom+Function         Bfn.  Coefficient  Atom+Function  
  ----- ------------  ---------------      ----- ------------  ---------------
    57     -1.099557  2 H  py                76     -1.099546  3 H  py         
    16      1.046004  1 O  py                12      0.640896  1 O  py         

 Vector   17  Occ=0.000000D+00  E= 3.871483D-01
              MO Center=  8.4D-02, -1.9D-14,  6.5D-02, r^2= 6.1D+00
   Bfn.  Coefficient  Atom+Function         Bfn.  Coefficient  Atom+Function  
  ----- ------------  ---------------      ----- ------------  ---------------
    48      7.566144  2 H  s                 67     -7.566155  3 H  s          
    17     -2.387850  1 O  pz                58     -1.875465  2 H  pz         
    15      1.848301  1 O  px                75      1.837951  3 H  px         
    49     -1.326381  2 H  s                 68      1.326388  3 H  s          
    13     -1.294486  1 O  pz                11      1.001983  1 O  px         

 Vector   18  Occ=0.000000D+00  E= 4.435759D-01
              MO Center=  2.8D-01, -7.7D-14,  2.2D-01, r^2= 5.0D+00
   Bfn.  Coefficient  Atom+Function         Bfn.  Coefficient  Atom+Function  
  ----- ------------  ---------------      ----- ------------  ---------------
    14      8.759880  1 O  s                 48     -7.248168  2 H  s          
    67     -7.248072  3 H  s                 15      1.947700  1 O  px         
    10      1.932502  1 O  s                 58      1.583857  2 H  pz         
    75      1.570911  3 H  px                17      1.507628  1 O  pz         
    35      0.906731  1 O  dzz               30      0.837713  1 O  dxx        

 Vector   19  Occ=0.000000D+00  E= 5.244276D-01
              MO Center=  3.8D-01, -1.2D-14,  2.9D-01, r^2= 4.1D+00
   Bfn.  Coefficient  Atom+Function         Bfn.  Coefficient  Atom+Function  
  ----- ------------  ---------------      ----- ------------  ---------------
    56      1.760273  2 H  px                77     -1.760062  3 H  pz         
    17      1.488033  1 O  pz                15     -1.151807  1 O  px         
    49     -0.879338  2 H  s                 68      0.879337  3 H  s          
    13      0.561513  1 O  pz                47     -0.522268  2 H  s          
    66      0.522272  3 H  s                 11     -0.434641  1 O  px         


 center of mass
 --------------
 x =  -0.07709942 y =   0.00000000 z =  -0.05967806

 moments of inertia (a.u.)
 ------------------
           3.399061573302           0.000000000000           0.933492640129
           0.000000000000           6.314701954170           0.000000000000
           0.933492640129           0.000000000000           2.915640380868

     Multipole analysis of the density
     ---------------------------------

     L   x y z        total         alpha         beta         nuclear
     -   - - -        -----         -----         ----         -------
     0   0 0 0     -0.000000     -5.000000     -5.000000     10.000000

     1   1 0 0      0.592570      0.296285      0.296285      0.000000
     1   0 1 0      0.000000      0.000000      0.000000      0.000000
     1   0 0 1      0.458674      0.229337      0.229337     -0.000000

     2   2 0 0     -4.273875     -3.515955     -3.515955      2.758035
     2   1 1 0     -0.000000     -0.000000     -0.000000      0.000000
     2   1 0 1     -0.724699      0.153008      0.153008     -1.030715
     2   0 2 0     -5.857569     -2.928784     -2.928784      0.000000
     2   0 1 1      0.000000      0.000000      0.000000      0.000000
     2   0 0 2     -3.898575     -3.595190     -3.595190      3.291806


 Parallel integral file used      70 records with       0 large values


            General Information
            -------------------
          SCF calculation type: DFT
          Wavefunction type:  closed shell.
          No. of atoms     :     3
          No. of electrons :    10
           Alpha electrons :     5
            Beta electrons :     5
          Charge           :     0
          Spin multiplicity:     1
          Use of symmetry is: off; symmetry adaption is: off
          Maximum number of iterations: ***
          AO basis - number of functions:    83
                     number of shells:    29
          Convergence on energy requested: 1.00D-06
          Convergence on density requested: 1.00D-05
          Convergence on gradient requested: 5.00D-04

              XC Information
              --------------
                  TPSS metaGGA Exchange Functional  1.000          
             TPSS03 metaGGA Correlation Functional  1.000          

             Grid Information
             ----------------
          Grid used for XC integration:  medium    
          Radial quadrature: Mura-Knowles        
          Angular quadrature: Lebedev. 
          Tag              B.-S. Rad. Rad. Pts. Rad. Cut. Ang. Pts.
          ---              ---------- --------- --------- ---------
          O                   0.60       49           8.0       434
          H                   0.35       45          11.0       434
          Grid pruning is: on 
          Number of quadrature shells:   139
          Spatial weights used:  Erf1

          Convergence Information
          -----------------------
          Convergence aids based upon iterative change in 
          total energy or number of iterations. 
          Levelshifting, if invoked, occurs when the 
          HOMO/LUMO gap drops below (HL_TOL): 1.00D-02
          DIIS, if invoked, will attempt to extrapolate 
          using up to (NFOCK): 10 stored Fock matrices.

                    Damping( 0%)  Levelshifting(0.5)       DIIS
                  --------------- ------------------- ---------------
          dE  on:    start            ASAP                start   
          dE off:    2 iters        *** iters           *** iters 


      Screening Tolerance Information
      -------------------------------
          Density screening/tol_rho: 1.00D-10
          AO Gaussian exp screening on grid/accAOfunc:  14
          CD Gaussian exp screening on grid/accCDfunc:  20
          XC Gaussian exp screening on grid/accXCfunc:  20
          Schwarz screening/accCoul: 1.00D-08



                            NWChem DFT Gradient Module
                            --------------------------



  charge          =   0.00
  wavefunction    = closed shell



                         DFT ENERGY GRADIENTS

    atom               coordinates                        gradient
                 x          y          z           x          y          z
   1 O      -0.175057   0.000000  -0.135501    0.008863  -0.000000   0.006862
   2 H      -0.175057   0.000000   1.672797   -0.005795   0.000000  -0.001670
   3 H       1.575510   0.000000  -0.588789   -0.003068   0.000000  -0.005192

                 ----------------------------------------
                 |  Time  |  1-e(secs)   |  2-e(secs)   |
                 ----------------------------------------
                 |  CPU   |       0.00   |       0.13   |
                 ----------------------------------------
                 |  WALL  |       0.00   |       0.13   |
                 ----------------------------------------
                               NWChem STEPPER Module
                               ---------------------


   Step sought for minimum. 
   Update Hessian used. 
   Nuclear Hessian initialized with UNIT matrix. 
   Number of modes removed with force (in the spectral representation)
   less than:   0.000000 is:    0
   PARTIT has partitioned the input hessian 
   and gradient into two subspaces;  An 
   "external" hessian and gradient composed 
   of                     6  independent translations 
   and rotations, and an "internal" hessian 
   and gradient with a dimension of                     3
               e-diff         g-norm     g-max   
 value      -76.4559596908  0.014085  0.008863
 thres        0.0001000000  0.010000  0.000800
  trust radius =     0.10
   Calculating the Newton-Raphson step. 
  The length (norm) of the STEP is   0.014085

  The lowest few components in the bases 
  generated by the spectral decomposition 
  of the internal hessian (non-zero force). 

  Component  Hessian     Grad      Step   Scaled-Step
  ---------  --------  --------  -------- -----------
       1     0.10D+01  0.79D-02  -.79D-02  -.79D-02
       2     0.10D+01  0.11D-01  -.11D-01  -.11D-01
       3     0.10D+01  -.31D-02  0.31D-02  0.31D-02

  Clean-up the step; truncate at:   0.000001
  In cartesian coordinates; norm of this step is:   0.014085
         Walk statistics for step:   1
     Previous actual total energy:   0.000000000000D+00
      Current actual total energy:  -0.764559596908D+02
         Actual energy difference:  -0.764559596908D+02 threshold:         0.100000D-03
    Second order energy predicted:   0.000000000000D+00
             Ratio of differences:   0.000000000000D+00
               Fixed trust radius:   0.100000000000D+00
   Number of negative eigenvalues:   0
   Max absolute value of Gradient:   0.886269025565D-02 threshold:         0.800000D-03
                    Gradient norm:   0.140845391553D-01 threshold:         0.100000D-01
                RMS Gradient norm:   0.813171247272D-02
  Largest component of step v-tor:   0.112100000000D-01
  New 2nd order energy prediction:  -0.991871215269D-04



  ------------------- New geometry -------------------


                         Geometry "g-1-step" -> "g-1-step"
                         ---------------------------------

 Output coordinates in angstroms (scale by  1.889725989 to convert to a.u.)

  No.       Tag          Charge          X              Y              Z
 ---- ---------------- ---------- -------------- -------------- --------------
    1 O                    8.0000    -0.09732610     0.00000000    -0.07533521
    2 H                    1.0000    -0.08956942     0.00000000     0.88608973
    3 H                    1.0000     0.83534752     0.00000000    -0.30882651

      Atomic Mass 
      ----------- 

      O                 15.994910
      H                  1.007825


 Effective nuclear repulsion energy (a.u.)       9.1564652744

            Nuclear Dipole moment (a.u.) 
            ----------------------------
        X                 Y               Z
 ---------------- ---------------- ----------------
    -0.0620410000     0.0000000000    -0.0480340000

 ==============================================================================
                                internuclear distances
 ------------------------------------------------------------------------------
       center one      |      center two      | atomic units |  angstroms
 ------------------------------------------------------------------------------
    2 H                |   1 O                |     1.81689  |     0.96146
    3 H                |   1 O                |     1.81689  |     0.96146
 ------------------------------------------------------------------------------
                         number of included internuclear distances:          2
 ==============================================================================



 ==============================================================================
                                 internuclear angles
 ------------------------------------------------------------------------------
        center 1       |       center 2       |       center 3       |  degrees
 ------------------------------------------------------------------------------
    2 H                |   1 O                |   3 H                |   103.59
 ------------------------------------------------------------------------------
                            number of included internuclear angles:          1
 ==============================================================================




                                 NWChem DFT Module
                                 -----------------




 Summary of "ao basis" -> "ao basis" (cartesian)
 ------------------------------------------------------------------------------
       Tag                 Description            Shells   Functions and Types
 ---------------- ------------------------------  ------  ---------------------
 O                     6-311++G(3df,3pd)            13       45   5s4p3d1f
 H                     6-311++G(3df,3pd)             8       19   4s3p1d


  Caching 1-el integrals 

            General Information
            -------------------
          SCF calculation type: DFT
          Wavefunction type:  closed shell.
          No. of atoms     :     3
          No. of electrons :    10
           Alpha electrons :     5
            Beta electrons :     5
          Charge           :     0
          Spin multiplicity:     1
          Use of symmetry is: off; symmetry adaption is: off
          Maximum number of iterations: ***
          AO basis - number of functions:    83
                     number of shells:    29
          Convergence on energy requested: 1.00D-06
          Convergence on density requested: 1.00D-05
          Convergence on gradient requested: 5.00D-04

              XC Information
              --------------
                  TPSS metaGGA Exchange Functional  1.000          
             TPSS03 metaGGA Correlation Functional  1.000          

             Grid Information
             ----------------
          Grid used for XC integration:  medium    
          Radial quadrature: Mura-Knowles        
          Angular quadrature: Lebedev. 
          Tag              B.-S. Rad. Rad. Pts. Rad. Cut. Ang. Pts.
          ---              ---------- --------- --------- ---------
          O                   0.60       49           8.0       434
          H                   0.35       45          11.0       434
          Grid pruning is: on 
          Number of quadrature shells:   139
          Spatial weights used:  Erf1

          Convergence Information
          -----------------------
          Convergence aids based upon iterative change in 
          total energy or number of iterations. 
          Levelshifting, if invoked, occurs when the 
          HOMO/LUMO gap drops below (HL_TOL): 1.00D-02
          DIIS, if invoked, will attempt to extrapolate 
          using up to (NFOCK): 10 stored Fock matrices.

                    Damping( 0%)  Levelshifting(0.5)       DIIS
                  --------------- ------------------- ---------------
          dE  on:    start            ASAP                start   
          dE off:    2 iters        *** iters           *** iters 


      Screening Tolerance Information
      -------------------------------
          Density screening/tol_rho: 1.00D-10
          AO Gaussian exp screening on grid/accAOfunc:  14
          CD Gaussian exp screening on grid/accCDfunc:  20
          XC Gaussian exp screening on grid/accXCfunc:  20
          Schwarz screening/accCoul: 1.00D-08


 Loading old vectors from job with title :



   Time after variat. SCF:      2.1
   Time prior to 1st pass:      2.1

 Integral file          = ./H2O.xyz.aoints.00
 Record size in doubles =    65536    No. of integs per rec  =    43688
 Max. records in memory =       13    Max. records in file   = 11665898
 No. of bits per label  =        8    No. of bits per value  =       64


 #quartets = 9.483D+04 #integrals = 3.160D+06 #direct =  0.0% #cached =100.0%


File balance: exchanges=     0  moved=     0  time=   0.0


 Grid_pts file          = ./H2O.xyz.gridpts.00
 Record size in doubles =  12289        No. of grid_pts per rec  =   3070
 Max. records in memory =      3        Max. recs in file   =  62213066


           Memory utilization after 1st SCF pass: 
           Heap Space remaining (MW):       12.22            12215444
          Stack Space remaining (MW):       13.11            13106644

   convergence    iter        energy       DeltaE   RMS-Dens  Diis-err    time
 ---------------- ----- ----------------- --------- --------- ---------  ------
 d= 0,ls=0.0,diis     1    -76.4564603443 -8.56D+01  2.39D-04  2.61D-04     2.5
 d= 0,ls=0.0,diis     2    -76.4555384961  9.22D-04  8.18D-05  4.36D-04     2.6
 d= 0,ls=0.0,diis     3    -76.4561749820 -6.36D-04  3.61D-05  2.13D-05     2.6
 d= 0,ls=0.0,diis     4    -76.4560576160  1.17D-04  6.03D-06  1.39D-07     2.7
 d= 0,ls=0.0,diis     5    -76.4560570852  5.31D-07  1.36D-06  2.75D-08     2.8


         Total DFT energy =      -76.456057085192
      One electron energy =     -122.623697065759
           Coulomb energy =       46.284164451529
          Exchange energy =       -8.942043126067
       Correlation energy =       -0.330946619345
 Nuclear repulsion energy =        9.156465274450

 Numeric. integr. density =       10.000001203109

     Total iterative time =      0.7s



                       DFT Final Molecular Orbital Analysis
                       ------------------------------------

 Vector    1  Occ=2.000000D+00  E=-1.896818D+01
              MO Center= -9.7D-02,  3.6D-17, -7.5D-02, r^2= 1.5D-02
   Bfn.  Coefficient  Atom+Function         Bfn.  Coefficient  Atom+Function  
  ----- ------------  ---------------      ----- ------------  ---------------
     1      0.550757  1 O  s                  2      0.470919  1 O  s          

 Vector    2  Occ=2.000000D+00  E=-1.008300D+00
              MO Center=  6.2D-02,  4.1D-16,  4.8D-02, r^2= 5.1D-01
   Bfn.  Coefficient  Atom+Function         Bfn.  Coefficient  Atom+Function  
  ----- ------------  ---------------      ----- ------------  ---------------
    10      0.649725  1 O  s                  6      0.542055  1 O  s          
     2     -0.203450  1 O  s          

 Vector    3  Occ=2.000000D+00  E=-5.484368D-01
              MO Center=  6.5D-02,  9.3D-16,  5.0D-02, r^2= 7.8D-01
   Bfn.  Coefficient  Atom+Function         Bfn.  Coefficient  Atom+Function  
  ----- ------------  ---------------      ----- ------------  ---------------
    13      0.305355  1 O  pz                 9      0.259373  1 O  pz         
    11     -0.236358  1 O  px                 7     -0.200766  1 O  px         
     5      0.198094  1 O  pz                 3     -0.153333  1 O  px         

 Vector    4  Occ=2.000000D+00  E=-4.192797D-01
              MO Center= -1.4D-01, -5.0D-15, -1.1D-01, r^2= 7.4D-01
   Bfn.  Coefficient  Atom+Function         Bfn.  Coefficient  Atom+Function  
  ----- ------------  ---------------      ----- ------------  ---------------
    10      0.408047  1 O  s                 11     -0.314634  1 O  px         
     7     -0.265194  1 O  px                13     -0.243540  1 O  pz         
     3     -0.209688  1 O  px                 9     -0.205272  1 O  pz         
     6      0.169059  1 O  s                  5     -0.162307  1 O  pz         

 Vector    5  Occ=2.000000D+00  E=-3.438977D-01
              MO Center= -6.0D-02,  8.8D-15, -4.7D-02, r^2= 7.1D-01
   Bfn.  Coefficient  Atom+Function         Bfn.  Coefficient  Atom+Function  
  ----- ------------  ---------------      ----- ------------  ---------------
    12      0.448976  1 O  py                 8      0.393323  1 O  py         
     4      0.298877  1 O  py         

 Vector    6  Occ=0.000000D+00  E=-4.525345D-02
              MO Center=  5.8D-01, -9.8D-16,  4.5D-01, r^2= 5.0D+00
   Bfn.  Coefficient  Atom+Function         Bfn.  Coefficient  Atom+Function  
  ----- ------------  ---------------      ----- ------------  ---------------
    14      0.715880  1 O  s                 48     -0.449689  2 H  s          
    67     -0.449690  3 H  s                 49     -0.434499  2 H  s          
    68     -0.434499  3 H  s                 10      0.418250  1 O  s          
     6      0.218285  1 O  s          

 Vector    7  Occ=0.000000D+00  E= 2.001429D-02
              MO Center=  5.8D-01,  5.7D-16,  4.5D-01, r^2= 8.0D+00
   Bfn.  Coefficient  Atom+Function         Bfn.  Coefficient  Atom+Function  
  ----- ------------  ---------------      ----- ------------  ---------------
    49      1.725252  2 H  s                 68     -1.725251  3 H  s          
    48      0.547802  2 H  s                 67     -0.547802  3 H  s          
    17     -0.373280  1 O  pz                15      0.288935  1 O  px         

 Vector    8  Occ=0.000000D+00  E= 1.052451D-01
              MO Center=  4.7D-01,  2.6D-15,  3.7D-01, r^2= 8.8D+00
   Bfn.  Coefficient  Atom+Function         Bfn.  Coefficient  Atom+Function  
  ----- ------------  ---------------      ----- ------------  ---------------
    48      1.857225  2 H  s                 67      1.857238  3 H  s          
    49     -0.974291  2 H  s                 68     -0.974300  3 H  s          
    14     -0.936045  1 O  s                 15     -0.312136  1 O  px         
    10     -0.309018  1 O  s                  6     -0.245513  1 O  s          
    17     -0.241604  1 O  pz                11     -0.200648  1 O  px         

 Vector    9  Occ=0.000000D+00  E= 1.106850D-01
              MO Center=  4.8D-02, -4.6D-16,  3.7D-02, r^2= 7.5D+00
   Bfn.  Coefficient  Atom+Function         Bfn.  Coefficient  Atom+Function  
  ----- ------------  ---------------      ----- ------------  ---------------
    48      3.063306  2 H  s                 67     -3.063297  3 H  s          
    49     -1.856238  2 H  s                 68      1.856234  3 H  s          
    17     -0.994510  1 O  pz                15      0.769792  1 O  px         
    13     -0.551760  1 O  pz                11      0.427085  1 O  px         
    47      0.361625  2 H  s                 66     -0.361625  3 H  s          

 Vector   10  Occ=0.000000D+00  E= 1.366686D-01
              MO Center= -9.5D-02, -1.7D-14, -7.3D-02, r^2= 4.8D+00
   Bfn.  Coefficient  Atom+Function         Bfn.  Coefficient  Atom+Function  
  ----- ------------  ---------------      ----- ------------  ---------------
    16      1.227097  1 O  py                12     -0.436300  1 O  py         
     8     -0.175872  1 O  py         

 Vector   11  Occ=0.000000D+00  E= 1.393269D-01
              MO Center= -4.3D-01, -8.3D-15, -3.3D-01, r^2= 4.9D+00
   Bfn.  Coefficient  Atom+Function         Bfn.  Coefficient  Atom+Function  
  ----- ------------  ---------------      ----- ------------  ---------------
    14      1.705724  1 O  s                 48     -1.591670  2 H  s          
    67     -1.591669  3 H  s                 15      1.475121  1 O  px         
    17      1.141807  1 O  pz                11     -0.281236  1 O  px         
     6      0.227388  1 O  s                 13     -0.217689  1 O  pz         
    49      0.183555  2 H  s                 68      0.183555  3 H  s          

 Vector   12  Occ=0.000000D+00  E= 1.835285D-01
              MO Center=  2.0D-01,  1.9D-14,  1.5D-01, r^2= 6.0D+00
   Bfn.  Coefficient  Atom+Function         Bfn.  Coefficient  Atom+Function  
  ----- ------------  ---------------      ----- ------------  ---------------
    14     11.080760  1 O  s                 48     -5.605130  2 H  s          
    67     -5.605128  3 H  s                 15      2.278064  1 O  px         
    17      1.763320  1 O  pz                10      1.181614  1 O  s          
    58      0.694752  2 H  pz                75      0.693755  3 H  px         
    11      0.617124  1 O  px                47     -0.586477  2 H  s          

 Vector   13  Occ=0.000000D+00  E= 2.034922D-01
              MO Center= -1.5D-01, -1.2D-15, -1.1D-01, r^2= 7.6D+00
   Bfn.  Coefficient  Atom+Function         Bfn.  Coefficient  Atom+Function  
  ----- ------------  ---------------      ----- ------------  ---------------
    48     -2.605108  2 H  s                 67      2.605108  3 H  s          
    17      2.551241  1 O  pz                15     -1.974772  1 O  px         
    49     -1.888281  2 H  s                 68      1.888281  3 H  s          
    58      0.478327  2 H  pz                75     -0.475646  3 H  px         
    47     -0.327595  2 H  s                 66      0.327595  3 H  s          

 Vector   14  Occ=0.000000D+00  E= 2.757756D-01
              MO Center=  1.2D-01,  2.4D-15,  9.1D-02, r^2= 3.7D+00
   Bfn.  Coefficient  Atom+Function         Bfn.  Coefficient  Atom+Function  
  ----- ------------  ---------------      ----- ------------  ---------------
    14      5.447362  1 O  s                 48     -3.203200  2 H  s          
    67     -3.203199  3 H  s                 15      1.930500  1 O  px         
    17      1.494291  1 O  pz                77     -0.960734  3 H  pz         
    56     -0.905641  2 H  px                11      0.620666  1 O  px         
    10      0.612691  1 O  s                 13      0.480422  1 O  pz         

 Vector   15  Occ=0.000000D+00  E= 3.034000D-01
              MO Center=  3.7D-01,  5.2D-15,  2.8D-01, r^2= 2.9D+00
   Bfn.  Coefficient  Atom+Function         Bfn.  Coefficient  Atom+Function  
  ----- ------------  ---------------      ----- ------------  ---------------
    57      0.959680  2 H  py                76     -0.959680  3 H  py         

 Vector   16  Occ=0.000000D+00  E= 3.394875D-01
              MO Center=  1.7D-01,  5.8D-15,  1.3D-01, r^2= 3.4D+00
   Bfn.  Coefficient  Atom+Function         Bfn.  Coefficient  Atom+Function  
  ----- ------------  ---------------      ----- ------------  ---------------
    57     -1.091716  2 H  py                76     -1.091715  3 H  py         
    16      1.044526  1 O  py                12      0.629746  1 O  py         

 Vector   17  Occ=0.000000D+00  E= 3.856266D-01
              MO Center=  9.0D-02, -3.8D-15,  7.0D-02, r^2= 6.1D+00
   Bfn.  Coefficient  Atom+Function         Bfn.  Coefficient  Atom+Function  
  ----- ------------  ---------------      ----- ------------  ---------------
    48      7.462730  2 H  s                 67     -7.462730  3 H  s          
    17     -2.324153  1 O  pz                58     -1.841796  2 H  pz         
    15      1.798995  1 O  px                75      1.804392  3 H  px         
    49     -1.347794  2 H  s                 68      1.347794  3 H  s          
    13     -1.247620  1 O  pz                11      0.965711  1 O  px         

 Vector   18  Occ=0.000000D+00  E= 4.437440D-01
              MO Center=  3.0D-01, -3.6D-15,  2.3D-01, r^2= 5.0D+00
   Bfn.  Coefficient  Atom+Function         Bfn.  Coefficient  Atom+Function  
  ----- ------------  ---------------      ----- ------------  ---------------
    14      8.641608  1 O  s                 48     -7.185759  2 H  s          
    67     -7.185755  3 H  s                 15      1.960088  1 O  px         
    10      1.852798  1 O  s                 58      1.551079  2 H  pz         
    75      1.540915  3 H  px                17      1.517194  1 O  pz         
    35      0.891011  1 O  dzz               30      0.826168  1 O  dxx        

 Vector   19  Occ=0.000000D+00  E= 5.241055D-01
              MO Center=  3.8D-01,  1.1D-15,  2.9D-01, r^2= 4.1D+00
   Bfn.  Coefficient  Atom+Function         Bfn.  Coefficient  Atom+Function  
  ----- ------------  ---------------      ----- ------------  ---------------
    56      1.763305  2 H  px                77     -1.750085  3 H  pz         
    17      1.492211  1 O  pz                15     -1.155036  1 O  px         
    49     -0.867699  2 H  s                 68      0.867699  3 H  s          
    13      0.616124  1 O  pz                47     -0.569862  2 H  s          
    66      0.569862  3 H  s                 11     -0.476907  1 O  px         


 center of mass
 --------------
 x =  -0.08447456 y =   0.00000000 z =  -0.06538812

 moments of inertia (a.u.)
 ------------------
           3.416196122642           0.000000000000           0.894787303590
           0.000000000000           6.369005587893           0.000000000000
           0.894787303590           0.000000000000           2.952809465252

     Multipole analysis of the density
     ---------------------------------

     L   x y z        total         alpha         beta         nuclear
     -   - - -        -----         -----         ----         -------
     0   0 0 0     -0.000000     -5.000000     -5.000000     10.000000

     1   1 0 0      0.597550      0.329796      0.329796     -0.062041
     1   0 1 0     -0.000000     -0.000000     -0.000000      0.000000
     1   0 0 1      0.462530      0.255282      0.255282     -0.048034

     2   2 0 0     -4.278652     -3.534911     -3.534911      2.791169
     2   1 1 0     -0.000000     -0.000000     -0.000000      0.000000
     2   1 0 1     -0.710460      0.142375      0.142375     -0.995210
     2   0 2 0     -5.865407     -2.932704     -2.932704      0.000000
     2   0 1 1      0.000000      0.000000      0.000000      0.000000
     2   0 0 2     -3.910725     -3.608644     -3.608644      3.306563


 Parallel integral file used      81 records with       0 large values


            General Information
            -------------------
          SCF calculation type: DFT
          Wavefunction type:  closed shell.
          No. of atoms     :     3
          No. of electrons :    10
           Alpha electrons :     5
            Beta electrons :     5
          Charge           :     0
          Spin multiplicity:     1
          Use of symmetry is: off; symmetry adaption is: off
          Maximum number of iterations: ***
          AO basis - number of functions:    83
                     number of shells:    29
          Convergence on energy requested: 1.00D-06
          Convergence on density requested: 1.00D-05
          Convergence on gradient requested: 5.00D-04

              XC Information
              --------------
                  TPSS metaGGA Exchange Functional  1.000          
             TPSS03 metaGGA Correlation Functional  1.000          

             Grid Information
             ----------------
          Grid used for XC integration:  medium    
          Radial quadrature: Mura-Knowles        
          Angular quadrature: Lebedev. 
          Tag              B.-S. Rad. Rad. Pts. Rad. Cut. Ang. Pts.
          ---              ---------- --------- --------- ---------
          O                   0.60       49           8.0       434
          H                   0.35       45          11.0       434
          Grid pruning is: on 
          Number of quadrature shells:   139
          Spatial weights used:  Erf1

          Convergence Information
          -----------------------
          Convergence aids based upon iterative change in 
          total energy or number of iterations. 
          Levelshifting, if invoked, occurs when the 
          HOMO/LUMO gap drops below (HL_TOL): 1.00D-02
          DIIS, if invoked, will attempt to extrapolate 
          using up to (NFOCK): 10 stored Fock matrices.

                    Damping( 0%)  Levelshifting(0.5)       DIIS
                  --------------- ------------------- ---------------
          dE  on:    start            ASAP                start   
          dE off:    2 iters        *** iters           *** iters 


      Screening Tolerance Information
      -------------------------------
          Density screening/tol_rho: 1.00D-10
          AO Gaussian exp screening on grid/accAOfunc:  14
          CD Gaussian exp screening on grid/accCDfunc:  20
          XC Gaussian exp screening on grid/accXCfunc:  20
          Schwarz screening/accCoul: 1.00D-08



                            NWChem DFT Gradient Module
                            --------------------------



  charge          =   0.00
  wavefunction    = closed shell



                         DFT ENERGY GRADIENTS

    atom               coordinates                        gradient
                 x          y          z           x          y          z
   1 O      -0.183920   0.000000  -0.142363    0.003897   0.000000   0.003016
   2 H      -0.169262   0.000000   1.674467   -0.004857  -0.000000   0.002249
   3 H       1.578578   0.000000  -0.583597    0.000960  -0.000000  -0.005266

                 ----------------------------------------
                 |  Time  |  1-e(secs)   |  2-e(secs)   |
                 ----------------------------------------
                 |  CPU   |       0.00   |       0.13   |
                 ----------------------------------------
                 |  WALL  |       0.00   |       0.13   |
                 ----------------------------------------
                               NWChem STEPPER Module
                               ---------------------


   Step sought for minimum. 
   Actual energy difference is :   -9.7394386273208511E-005
   2nd order predicted energy difference  was :   -9.9187121526892456E-005
   One of these is below the energy  tolerance:    1.0000000000000000E-004
   Backstepping possibilities are NO 
   longer considered appropriate. 
   Update Hessian used. 
   Number of modes removed with force (in the spectral representation)
   less than:   0.000000 is:    0
   PARTIT has partitioned the input hessian 
   and gradient into two subspaces;  An 
   "external" hessian and gradient composed 
   of                     6  independent translations 
   and rotations, and an "internal" hessian 
   and gradient with a dimension of                     3
               e-diff         g-norm     g-max   
 value       -0.0000973944  0.009032  0.005266
 thres        0.0001000000  0.010000  0.000800
  trust radius =     0.10
   Calculating the Newton-Raphson step. 
  The length (norm) of the STEP is   0.026381

  The lowest few components in the bases 
  generated by the spectral decomposition 
  of the internal hessian (non-zero force). 

  Component  Hessian     Grad      Step   Scaled-Step
  ---------  --------  --------  -------- -----------
       1     0.33D+00  0.88D-02  -.26D-01  -.26D-01
       2     0.10D+01  0.41D-06  -.41D-06  -.41D-06
       3     0.14D+01  -.22D-02  0.15D-02  0.15D-02

  Clean-up the step; truncate at:   0.000001
  In cartesian coordinates; norm of this step is:   0.026381
         Walk statistics for step:   2
     Previous actual total energy:  -0.764559596908D+02
      Current actual total energy:  -0.764560570852D+02
         Actual energy difference:  -0.973943862732D-04 threshold:         0.100000D-03
    Second order energy predicted:  -0.991871215269D-04
             Ratio of differences:   0.981925725577D+00
               Fixed trust radius:   0.100000000000D+00
   Number of negative eigenvalues:   0
   Max absolute value of Gradient:   0.526559177349D-02 threshold:         0.800000D-03
                    Gradient norm:   0.903200243352D-02 threshold:         0.100000D-01
                RMS Gradient norm:   0.521462903631D-02
  Largest component of step v-tor:   0.263370000000D-01
  New 2nd order energy prediction:  -0.117076656499D-03



  ------------------- New geometry -------------------


                         Geometry "g-2-step" -> "g-2-step"
                         ---------------------------------

 Output coordinates in angstroms (scale by  1.889725989 to convert to a.u.)

  No.       Tag          Charge          X              Y              Z
 ---- ---------------- ---------- -------------- -------------- --------------
    1 O                    8.0000    -0.10448640     0.00000000    -0.08087782
    2 H                    1.0000    -0.08231916     0.00000000     0.88411960
    3 H                    1.0000     0.83525756     0.00000000    -0.30131378

      Atomic Mass 
      ----------- 

      O                 15.994910
      H                  1.007825


 Effective nuclear repulsion energy (a.u.)       9.1246390181

            Nuclear Dipole moment (a.u.) 
            ----------------------------
        X                 Y               Z
 ---------------- ---------------- ----------------
    -0.1567580000     0.0000000000    -0.1213520000

 ==============================================================================
                                internuclear distances
 ------------------------------------------------------------------------------
       center one      |      center two      | atomic units |  angstroms
 ------------------------------------------------------------------------------
    2 H                |   1 O                |     1.82406  |     0.96525
    3 H                |   1 O                |     1.82406  |     0.96525
 ------------------------------------------------------------------------------
                         number of included internuclear distances:          2
 ==============================================================================



 ==============================================================================
                                 internuclear angles
 ------------------------------------------------------------------------------
        center 1       |       center 2       |       center 3       |  degrees
 ------------------------------------------------------------------------------
    2 H                |   1 O                |   3 H                |   101.89
 ------------------------------------------------------------------------------
                            number of included internuclear angles:          1
 ==============================================================================




                                 NWChem DFT Module
                                 -----------------




 Summary of "ao basis" -> "ao basis" (cartesian)
 ------------------------------------------------------------------------------
       Tag                 Description            Shells   Functions and Types
 ---------------- ------------------------------  ------  ---------------------
 O                     6-311++G(3df,3pd)            13       45   5s4p3d1f
 H                     6-311++G(3df,3pd)             8       19   4s3p1d


  Caching 1-el integrals 

            General Information
            -------------------
          SCF calculation type: DFT
          Wavefunction type:  closed shell.
          No. of atoms     :     3
          No. of electrons :    10
           Alpha electrons :     5
            Beta electrons :     5
          Charge           :     0
          Spin multiplicity:     1
          Use of symmetry is: off; symmetry adaption is: off
          Maximum number of iterations: ***
          AO basis - number of functions:    83
                     number of shells:    29
          Convergence on energy requested: 1.00D-06
          Convergence on density requested: 1.00D-05
          Convergence on gradient requested: 5.00D-04

              XC Information
              --------------
                  TPSS metaGGA Exchange Functional  1.000          
             TPSS03 metaGGA Correlation Functional  1.000          

             Grid Information
             ----------------
          Grid used for XC integration:  medium    
          Radial quadrature: Mura-Knowles        
          Angular quadrature: Lebedev. 
          Tag              B.-S. Rad. Rad. Pts. Rad. Cut. Ang. Pts.
          ---              ---------- --------- --------- ---------
          O                   0.60       49           8.0       434
          H                   0.35       45          11.0       434
          Grid pruning is: on 
          Number of quadrature shells:   139
          Spatial weights used:  Erf1

          Convergence Information
          -----------------------
          Convergence aids based upon iterative change in 
          total energy or number of iterations. 
          Levelshifting, if invoked, occurs when the 
          HOMO/LUMO gap drops below (HL_TOL): 1.00D-02
          DIIS, if invoked, will attempt to extrapolate 
          using up to (NFOCK): 10 stored Fock matrices.

                    Damping( 0%)  Levelshifting(0.5)       DIIS
                  --------------- ------------------- ---------------
          dE  on:    start            ASAP                start   
          dE off:    2 iters        *** iters           *** iters 


      Screening Tolerance Information
      -------------------------------
          Density screening/tol_rho: 1.00D-10
          AO Gaussian exp screening on grid/accAOfunc:  14
          CD Gaussian exp screening on grid/accCDfunc:  20
          XC Gaussian exp screening on grid/accXCfunc:  20
          Schwarz screening/accCoul: 1.00D-08


 Loading old vectors from job with title :



   Time after variat. SCF:      3.2
   Time prior to 1st pass:      3.2

 Integral file          = ./H2O.xyz.aoints.00
 Record size in doubles =    65536    No. of integs per rec  =    43688
 Max. records in memory =       13    Max. records in file   = 11665262
 No. of bits per label  =        8    No. of bits per value  =       64


 #quartets = 9.483D+04 #integrals = 3.161D+06 #direct =  0.0% #cached =100.0%


File balance: exchanges=     0  moved=     0  time=   0.0


 Grid_pts file          = ./H2O.xyz.gridpts.00
 Record size in doubles =  12289        No. of grid_pts per rec  =   3070
 Max. records in memory =      3        Max. recs in file   =   2211896


           Memory utilization after 1st SCF pass: 
           Heap Space remaining (MW):       12.22            12215444
          Stack Space remaining (MW):       13.11            13106644

   convergence    iter        energy       DeltaE   RMS-Dens  Diis-err    time
 ---------------- ----- ----------------- --------- --------- ---------  ------
 d= 0,ls=0.0,diis     1    -76.4562497066 -8.56D+01  3.18D-04  3.90D-04     3.6
 d= 0,ls=0.0,diis     2    -76.4555249213  7.25D-04  9.39D-05  3.79D-04     3.6
 d= 0,ls=0.0,diis     3    -76.4562081453 -6.83D-04  5.04D-05  8.71D-05     3.7
 d= 0,ls=0.0,diis     4    -76.4559654711  2.43D-04  7.98D-06  5.38D-07     3.8
 d= 0,ls=0.0,diis     5    -76.4559734601 -7.99D-06  2.17D-06  9.13D-08     3.9
 d= 0,ls=0.0,diis     6    -76.4559722871  1.17D-06  4.38D-07  3.30D-09     4.0
 d= 0,ls=0.0,diis     7    -76.4559732272 -9.40D-07  1.56D-08  4.00D-12     4.1


         Total DFT energy =      -76.455973227232
      One electron energy =     -122.563888391188
           Coulomb energy =       46.252885104552
          Exchange energy =       -8.938775308794
       Correlation energy =       -0.330833649854
 Nuclear repulsion energy =        9.124639018053

 Numeric. integr. density =       10.000001028623

     Total iterative time =      0.9s



                       DFT Final Molecular Orbital Analysis
                       ------------------------------------

 Vector    1  Occ=2.000000D+00  E=-1.896931D+01
              MO Center= -1.0D-01, -6.5D-17, -8.1D-02, r^2= 1.5D-02
   Bfn.  Coefficient  Atom+Function         Bfn.  Coefficient  Atom+Function  
  ----- ------------  ---------------      ----- ------------  ---------------
     1      0.550759  1 O  s                  2      0.470921  1 O  s          

 Vector    2  Occ=2.000000D+00  E=-1.007870D+00
              MO Center=  5.7D-02,  3.3D-17,  4.4D-02, r^2= 5.1D-01
   Bfn.  Coefficient  Atom+Function         Bfn.  Coefficient  Atom+Function  
  ----- ------------  ---------------      ----- ------------  ---------------
    10      0.648244  1 O  s                  6      0.541421  1 O  s          
     2     -0.203196  1 O  s          

 Vector    3  Occ=2.000000D+00  E=-5.441121D-01
              MO Center=  6.0D-02, -1.7D-16,  4.7D-02, r^2= 7.8D-01
   Bfn.  Coefficient  Atom+Function         Bfn.  Coefficient  Atom+Function  
  ----- ------------  ---------------      ----- ------------  ---------------
    13      0.305159  1 O  pz                 9      0.259372  1 O  pz         
    11     -0.236207  1 O  px                 7     -0.200765  1 O  px         
     5      0.198312  1 O  pz                 3     -0.153502  1 O  px         

 Vector    4  Occ=2.000000D+00  E=-4.220609D-01
              MO Center= -1.5D-01,  6.0D-15, -1.1D-01, r^2= 7.5D-01
   Bfn.  Coefficient  Atom+Function         Bfn.  Coefficient  Atom+Function  
  ----- ------------  ---------------      ----- ------------  ---------------
    10      0.414868  1 O  s                 11     -0.312603  1 O  px         
     7     -0.263640  1 O  px                13     -0.241969  1 O  pz         
     3     -0.208783  1 O  px                 9     -0.204069  1 O  pz         
     6      0.171393  1 O  s                  5     -0.161607  1 O  pz         

 Vector    5  Occ=2.000000D+00  E=-3.438984D-01
              MO Center= -6.7D-02, -1.1D-15, -5.2D-02, r^2= 7.1D-01
   Bfn.  Coefficient  Atom+Function         Bfn.  Coefficient  Atom+Function  
  ----- ------------  ---------------      ----- ------------  ---------------
    12      0.448620  1 O  py                 8      0.393364  1 O  py         
     4      0.298961  1 O  py         

 Vector    6  Occ=0.000000D+00  E=-4.640907D-02
              MO Center=  5.8D-01,  2.4D-15,  4.5D-01, r^2= 4.9D+00
   Bfn.  Coefficient  Atom+Function         Bfn.  Coefficient  Atom+Function  
  ----- ------------  ---------------      ----- ------------  ---------------
    14      0.716902  1 O  s                 48     -0.455522  2 H  s          
    67     -0.455521  3 H  s                 49     -0.429001  2 H  s          
    68     -0.429000  3 H  s                 10      0.417636  1 O  s          
     6      0.218228  1 O  s          

 Vector    7  Occ=0.000000D+00  E= 1.937255D-02
              MO Center=  5.9D-01, -9.2D-16,  4.6D-01, r^2= 7.9D+00
   Bfn.  Coefficient  Atom+Function         Bfn.  Coefficient  Atom+Function  
  ----- ------------  ---------------      ----- ------------  ---------------
    49      1.716000  2 H  s                 68     -1.716001  3 H  s          
    48      0.561784  2 H  s                 67     -0.561784  3 H  s          
    17     -0.373410  1 O  pz                15      0.289036  1 O  px         
    13     -0.154985  1 O  pz         

 Vector    8  Occ=0.000000D+00  E= 1.044878D-01
              MO Center=  4.8D-01,  3.4D-14,  3.7D-01, r^2= 8.8D+00
   Bfn.  Coefficient  Atom+Function         Bfn.  Coefficient  Atom+Function  
  ----- ------------  ---------------      ----- ------------  ---------------
    48      1.818245  2 H  s                 67      1.818175  3 H  s          
    49     -0.976520  2 H  s                 68     -0.976472  3 H  s          
    14     -0.877973  1 O  s                 10     -0.302146  1 O  s          
    15     -0.299097  1 O  px                 6     -0.240203  1 O  s          
    17     -0.231531  1 O  pz                11     -0.205063  1 O  px         

 Vector    9  Occ=0.000000D+00  E= 1.085594D-01
              MO Center=  5.0D-02, -1.1D-15,  3.9D-02, r^2= 7.6D+00
   Bfn.  Coefficient  Atom+Function         Bfn.  Coefficient  Atom+Function  
  ----- ------------  ---------------      ----- ------------  ---------------
    48      2.986091  2 H  s                 67     -2.986137  3 H  s          
    49     -1.893699  2 H  s                 68      1.893723  3 H  s          
    17     -0.943962  1 O  pz                15      0.730673  1 O  px         
    13     -0.535471  1 O  pz                11      0.414482  1 O  px         
    47      0.357491  2 H  s                 66     -0.357490  3 H  s          

 Vector   10  Occ=0.000000D+00  E= 1.365948D-01
              MO Center= -9.7D-02, -2.8D-15, -7.5D-02, r^2= 4.8D+00
   Bfn.  Coefficient  Atom+Function         Bfn.  Coefficient  Atom+Function  
  ----- ------------  ---------------      ----- ------------  ---------------
    16      1.221454  1 O  py                12     -0.440194  1 O  py         
     8     -0.176145  1 O  py                 4     -0.150158  1 O  py         

 Vector   11  Occ=0.000000D+00  E= 1.398810D-01
              MO Center= -4.5D-01, -2.0D-15, -3.5D-01, r^2= 4.9D+00
   Bfn.  Coefficient  Atom+Function         Bfn.  Coefficient  Atom+Function  
  ----- ------------  ---------------      ----- ------------  ---------------
    48     -1.468412  2 H  s                 67     -1.468416  3 H  s          
    15      1.423114  1 O  px                14      1.404041  1 O  s          
    17      1.101551  1 O  pz                11     -0.299832  1 O  px         
     6      0.239835  1 O  s                 13     -0.232083  1 O  pz         
    49      0.213610  2 H  s                 68      0.213611  3 H  s          

 Vector   12  Occ=0.000000D+00  E= 1.846478D-01
              MO Center=  2.0D-01, -2.9D-14,  1.6D-01, r^2= 6.0D+00
   Bfn.  Coefficient  Atom+Function         Bfn.  Coefficient  Atom+Function  
  ----- ------------  ---------------      ----- ------------  ---------------
    14     11.224042  1 O  s                 48     -5.728186  2 H  s          
    67     -5.728194  3 H  s                 15      2.403123  1 O  px         
    17      1.860119  1 O  pz                10      1.172273  1 O  s          
    58      0.697202  2 H  pz                75      0.699973  3 H  px         
    11      0.620407  1 O  px                47     -0.577078  2 H  s          

 Vector   13  Occ=0.000000D+00  E= 2.038677D-01
              MO Center= -1.5D-01,  3.3D-15, -1.2D-01, r^2= 7.6D+00
   Bfn.  Coefficient  Atom+Function         Bfn.  Coefficient  Atom+Function  
  ----- ------------  ---------------      ----- ------------  ---------------
    48     -2.555155  2 H  s                 67      2.555151  3 H  s          
    17      2.511645  1 O  pz                15     -1.944121  1 O  px         
    49     -1.888435  2 H  s                 68      1.888435  3 H  s          
    58      0.472111  2 H  pz                75     -0.470795  3 H  px         
    47     -0.321258  2 H  s                 66      0.321258  3 H  s          

 Vector   14  Occ=0.000000D+00  E= 2.716691D-01
              MO Center=  1.0D-01, -4.2D-15,  7.9D-02, r^2= 3.7D+00
   Bfn.  Coefficient  Atom+Function         Bfn.  Coefficient  Atom+Function  
  ----- ------------  ---------------      ----- ------------  ---------------
    14      5.118426  1 O  s                 48     -2.994524  2 H  s          
    67     -2.994527  3 H  s                 15      1.870323  1 O  px         
    17      1.447710  1 O  pz                77     -0.934343  3 H  pz         
    56     -0.881238  2 H  px                11      0.599049  1 O  px         
    10      0.580072  1 O  s                 13      0.463690  1 O  pz         

 Vector   15  Occ=0.000000D+00  E= 3.042126D-01
              MO Center=  3.7D-01, -1.0D-15,  2.8D-01, r^2= 2.9D+00
   Bfn.  Coefficient  Atom+Function         Bfn.  Coefficient  Atom+Function  
  ----- ------------  ---------------      ----- ------------  ---------------
    57      0.962741  2 H  py                76     -0.962739  3 H  py         

 Vector   16  Occ=0.000000D+00  E= 3.355284D-01
              MO Center=  1.6D-01, -2.1D-15,  1.3D-01, r^2= 3.4D+00
   Bfn.  Coefficient  Atom+Function         Bfn.  Coefficient  Atom+Function  
  ----- ------------  ---------------      ----- ------------  ---------------
    57     -1.080875  2 H  py                76     -1.080877  3 H  py         
    16      1.041059  1 O  py                12      0.618811  1 O  py         

 Vector   17  Occ=0.000000D+00  E= 3.831971D-01
              MO Center=  1.0D-01, -4.2D-16,  7.8D-02, r^2= 6.2D+00
   Bfn.  Coefficient  Atom+Function         Bfn.  Coefficient  Atom+Function  
  ----- ------------  ---------------      ----- ------------  ---------------
    48      7.376940  2 H  s                 67     -7.376938  3 H  s          
    17     -2.236814  1 O  pz                58     -1.818270  2 H  pz         
    75      1.779085  3 H  px                15      1.731391  1 O  px         
    49     -1.383798  2 H  s                 68      1.383797  3 H  s          
    13     -1.197717  1 O  pz                11      0.927086  1 O  px         

 Vector   18  Occ=0.000000D+00  E= 4.453451D-01
              MO Center=  3.2D-01,  1.9D-15,  2.4D-01, r^2= 5.0D+00
   Bfn.  Coefficient  Atom+Function         Bfn.  Coefficient  Atom+Function  
  ----- ------------  ---------------      ----- ------------  ---------------
    14      8.595187  1 O  s                 48     -7.171119  2 H  s          
    67     -7.171136  3 H  s                 15      2.007624  1 O  px         
    10      1.786469  1 O  s                 17      1.553984  1 O  pz         
    58      1.524888  2 H  pz                75      1.518653  3 H  px         
    35      0.877157  1 O  dzz               30      0.819011  1 O  dxx        

 Vector   19  Occ=0.000000D+00  E= 5.247780D-01
              MO Center=  3.8D-01,  2.0D-16,  3.0D-01, r^2= 4.1D+00
   Bfn.  Coefficient  Atom+Function         Bfn.  Coefficient  Atom+Function  
  ----- ------------  ---------------      ----- ------------  ---------------
    56      1.781626  2 H  px                77     -1.747431  3 H  pz         
    17      1.499620  1 O  pz                15     -1.160770  1 O  px         
    49     -0.855279  2 H  s                 68      0.855279  3 H  s          
    13      0.712830  1 O  pz                47     -0.644873  2 H  s          
    66      0.644873  3 H  s                 11     -0.551760  1 O  px         


 center of mass
 --------------
 x =  -0.09573408 y =   0.00000000 z =  -0.07410382

 moments of inertia (a.u.)
 ------------------
           3.414705568987           0.000000000000           0.812795901038
           0.000000000000           6.408483257474           0.000000000000
           0.812795901038           0.000000000000           2.993777688486

     Multipole analysis of the density
     ---------------------------------

     L   x y z        total         alpha         beta         nuclear
     -   - - -        -----         -----         ----         -------
     0   0 0 0     -0.000000     -5.000000     -5.000000     10.000000

     1   1 0 0      0.605866      0.381312      0.381312     -0.156758
     1   0 1 0     -0.000000     -0.000000     -0.000000      0.000000
     1   0 0 1      0.468967      0.295159      0.295159     -0.121352

     2   2 0 0     -4.286431     -3.556948     -3.556948      2.827465
     2   1 1 0      0.000000      0.000000      0.000000      0.000000
     2   1 0 1     -0.677286      0.119970      0.119970     -0.917226
     2   0 2 0     -5.870549     -2.935275     -2.935275      0.000000
     2   0 1 1      0.000000      0.000000      0.000000      0.000000
     2   0 0 2     -3.935684     -3.619079     -3.619079      3.302475


 Parallel integral file used      79 records with       0 large values


            General Information
            -------------------
          SCF calculation type: DFT
          Wavefunction type:  closed shell.
          No. of atoms     :     3
          No. of electrons :    10
           Alpha electrons :     5
            Beta electrons :     5
          Charge           :     0
          Spin multiplicity:     1
          Use of symmetry is: off; symmetry adaption is: off
          Maximum number of iterations: ***
          AO basis - number of functions:    83
                     number of shells:    29
          Convergence on energy requested: 1.00D-06
          Convergence on density requested: 1.00D-05
          Convergence on gradient requested: 5.00D-04

              XC Information
              --------------
                  TPSS metaGGA Exchange Functional  1.000          
             TPSS03 metaGGA Correlation Functional  1.000          

             Grid Information
             ----------------
          Grid used for XC integration:  medium    
          Radial quadrature: Mura-Knowles        
          Angular quadrature: Lebedev. 
          Tag              B.-S. Rad. Rad. Pts. Rad. Cut. Ang. Pts.
          ---              ---------- --------- --------- ---------
          O                   0.60       49           8.0       434
          H                   0.35       45          11.0       434
          Grid pruning is: on 
[...]

 Vector    8  Occ=0.000000D+00  E= 1.052676D-01
              MO Center=  4.7D-01, -1.2D-14,  3.6D-01, r^2= 8.8D+00
   Bfn.  Coefficient  Atom+Function         Bfn.  Coefficient  Atom+Function  
  ----- ------------  ---------------      ----- ------------  ---------------
    48      1.780908  2 H  s                 67      1.780989  3 H  s          
    49     -0.973146  2 H  s                 68     -0.973200  3 H  s          
    14     -0.824009  1 O  s                 10     -0.296939  1 O  s          
    15     -0.270071  1 O  px                 6     -0.234440  1 O  s          
    11     -0.213947  1 O  px                17     -0.209027  1 O  pz         

 Vector    9  Occ=0.000000D+00  E= 1.083938D-01
              MO Center=  4.9D-02,  1.9D-16,  3.8D-02, r^2= 7.5D+00
   Bfn.  Coefficient  Atom+Function         Bfn.  Coefficient  Atom+Function  
  ----- ------------  ---------------      ----- ------------  ---------------
    48      3.019086  2 H  s                 67     -3.019034  3 H  s          
    49     -1.914580  2 H  s                 68      1.914553  3 H  s          
    17     -0.935082  1 O  pz                15      0.723787  1 O  px         
    13     -0.536980  1 O  pz                11      0.415640  1 O  px         
    47      0.373345  2 H  s                 66     -0.373346  3 H  s          

 Vector   10  Occ=0.000000D+00  E= 1.366449D-01
              MO Center= -1.0D-01,  3.8D-14, -7.8D-02, r^2= 4.8D+00
   Bfn.  Coefficient  Atom+Function         Bfn.  Coefficient  Atom+Function  
  ----- ------------  ---------------      ----- ------------  ---------------
    16      1.219116  1 O  py                12     -0.441483  1 O  py         
     8     -0.176034  1 O  py                 4     -0.150134  1 O  py         

 Vector   11  Occ=0.000000D+00  E= 1.408084D-01
              MO Center= -4.5D-01,  8.9D-16, -3.5D-01, r^2= 5.0D+00
   Bfn.  Coefficient  Atom+Function         Bfn.  Coefficient  Atom+Function  
  ----- ------------  ---------------      ----- ------------  ---------------
    15      1.367457  1 O  px                48     -1.352282  2 H  s          
    67     -1.352279  3 H  s                 14      1.076650  1 O  s          
    17      1.058471  1 O  pz                11     -0.326150  1 O  px         
    49      0.259244  2 H  s                 68      0.259244  3 H  s          
     6      0.255876  1 O  s                 13     -0.252454  1 O  pz         

 Vector   12  Occ=0.000000D+00  E= 1.861361D-01
              MO Center=  2.0D-01, -1.5D-14,  1.5D-01, r^2= 5.9D+00
   Bfn.  Coefficient  Atom+Function         Bfn.  Coefficient  Atom+Function  
  ----- ------------  ---------------      ----- ------------  ---------------
    14     11.618817  1 O  s                 48     -6.011720  2 H  s          
    67     -6.011713  3 H  s                 15      2.594676  1 O  px         
    17      2.008392  1 O  pz                10      1.230402  1 O  s          
    75      0.723608  3 H  px                58      0.717983  2 H  pz         
    11      0.644479  1 O  px                47     -0.591704  2 H  s          

 Vector   13  Occ=0.000000D+00  E= 2.045519D-01
              MO Center= -1.5D-01,  1.2D-15, -1.2D-01, r^2= 7.6D+00
   Bfn.  Coefficient  Atom+Function         Bfn.  Coefficient  Atom+Function  
  ----- ------------  ---------------      ----- ------------  ---------------
    48     -2.500505  2 H  s                 67      2.500508  3 H  s          
    17      2.471265  1 O  pz                49     -1.927872  2 H  s          
    68      1.927871  3 H  s                 15     -1.912866  1 O  px         
    58      0.462336  2 H  pz                75     -0.463817  3 H  px         
    47     -0.319378  2 H  s                 66      0.319378  3 H  s          

 Vector   14  Occ=0.000000D+00  E= 2.685781D-01
              MO Center=  9.4D-02, -1.4D-15,  7.3D-02, r^2= 3.6D+00
   Bfn.  Coefficient  Atom+Function         Bfn.  Coefficient  Atom+Function  
  ----- ------------  ---------------      ----- ------------  ---------------
    14      4.674311  1 O  s                 48     -2.709829  2 H  s          
    67     -2.709826  3 H  s                 15      1.768807  1 O  px         
    17      1.369133  1 O  pz                77     -0.909866  3 H  pz         
    56     -0.861107  2 H  px                11      0.582417  1 O  px         
    10      0.550689  1 O  s                 13      0.450816  1 O  pz         

 Vector   15  Occ=0.000000D+00  E= 3.065858D-01
              MO Center=  3.7D-01, -7.2D-15,  2.9D-01, r^2= 2.9D+00
   Bfn.  Coefficient  Atom+Function         Bfn.  Coefficient  Atom+Function  
  ----- ------------  ---------------      ----- ------------  ---------------
    57      0.973448  2 H  py                76     -0.973450  3 H  py         

 Vector   16  Occ=0.000000D+00  E= 3.321654D-01
              MO Center=  1.7D-01, -2.3D-15,  1.3D-01, r^2= 3.4D+00
   Bfn.  Coefficient  Atom+Function         Bfn.  Coefficient  Atom+Function  
  ----- ------------  ---------------      ----- ------------  ---------------
    57     -1.074240  2 H  py                76     -1.074237  3 H  py         
    16      1.035254  1 O  py                12      0.622538  1 O  py         

 Vector   17  Occ=0.000000D+00  E= 3.809447D-01
              MO Center=  1.1D-01,  8.1D-15,  8.5D-02, r^2= 6.2D+00
   Bfn.  Coefficient  Atom+Function         Bfn.  Coefficient  Atom+Function  
  ----- ------------  ---------------      ----- ------------  ---------------
    48      7.450346  2 H  s                 67     -7.450346  3 H  s          
    17     -2.183498  1 O  pz                58     -1.854237  2 H  pz         
    75      1.810051  3 H  px                15      1.690121  1 O  px         
    49     -1.420603  2 H  s                 68      1.420604  3 H  s          
    13     -1.194993  1 O  pz                11      0.924975  1 O  px         

 Vector   18  Occ=0.000000D+00  E= 4.495375D-01
              MO Center=  3.3D-01, -6.7D-15,  2.6D-01, r^2= 4.9D+00
   Bfn.  Coefficient  Atom+Function         Bfn.  Coefficient  Atom+Function  
  ----- ------------  ---------------      ----- ------------  ---------------
    14      8.846763  1 O  s                 48     -7.334146  2 H  s          
    67     -7.334132  3 H  s                 15      2.110449  1 O  px         
    10      1.847807  1 O  s                 17      1.633581  1 O  pz         
    58      1.556294  2 H  pz                75      1.553145  3 H  px         
    35      0.888416  1 O  dzz               30      0.836926  1 O  dxx        

 Vector   19  Occ=0.000000D+00  E= 5.277766D-01
              MO Center=  3.8D-01,  5.8D-16,  3.0D-01, r^2= 4.1D+00
   Bfn.  Coefficient  Atom+Function         Bfn.  Coefficient  Atom+Function  
  ----- ------------  ---------------      ----- ------------  ---------------
    56      1.825898  2 H  px                77     -1.771295  3 H  pz         
    17      1.509002  1 O  pz                15     -1.168033  1 O  px         
    49     -0.856638  2 H  s                 68      0.856638  3 H  s          
    13      0.827686  1 O  pz                47     -0.722873  2 H  s          
    66      0.722873  3 H  s                 11     -0.640665  1 O  px         


 center of mass
 --------------
 x =  -0.10461710 y =   0.00000000 z =  -0.08097892

 moments of inertia (a.u.)
 ------------------
           3.356184513433           0.000000000000           0.702442844711
           0.000000000000           6.348592857507           0.000000000000
           0.702442844711           0.000000000000           2.992408344074

     Multipole analysis of the density
     ---------------------------------

     L   x y z        total         alpha         beta         nuclear
     -   - - -        -----         -----         ----         -------
     0   0 0 0     -0.000000     -5.000000     -5.000000     10.000000

     1   1 0 0      0.614084      0.422784      0.422784     -0.231484
     1   0 1 0     -0.000000     -0.000000     -0.000000      0.000000
     1   0 0 1      0.475327      0.327257      0.327257     -0.179187

     2   2 0 0     -4.293329     -3.558582     -3.558582      2.823834
     2   1 1 0     -0.000000     -0.000000     -0.000000      0.000000
     2   1 0 1     -0.627778      0.090855      0.090855     -0.809488
     2   0 2 0     -5.860564     -2.930282     -2.930282      0.000000
     2   0 1 1     -0.000000     -0.000000     -0.000000      0.000000
     2   0 0 2     -3.968219     -3.605633     -3.605633      3.243047


 Parallel integral file used      80 records with       0 large values


            General Information
            -------------------
          SCF calculation type: DFT
          Wavefunction type:  closed shell.
          No. of atoms     :     3
          No. of electrons :    10
           Alpha electrons :     5
            Beta electrons :     5
          Charge           :     0
          Spin multiplicity:     1
          Use of symmetry is: off; symmetry adaption is: off
          Maximum number of iterations: ***
          AO basis - number of functions:    83
                     number of shells:    29
          Convergence on energy requested: 1.00D-06
          Convergence on density requested: 1.00D-05
          Convergence on gradient requested: 5.00D-04

              XC Information
              --------------
                  TPSS metaGGA Exchange Functional  1.000          
             TPSS03 metaGGA Correlation Functional  1.000          

             Grid Information
             ----------------
          Grid used for XC integration:  medium    
          Radial quadrature: Mura-Knowles        
          Angular quadrature: Lebedev. 
          Tag              B.-S. Rad. Rad. Pts. Rad. Cut. Ang. Pts.
          ---              ---------- --------- --------- ---------
          O                   0.60       49           8.0       434
          H                   0.35       45          11.0       434
          Grid pruning is: on 
          Number of quadrature shells:   139
          Spatial weights used:  Erf1

          Convergence Information
          -----------------------
          Convergence aids based upon iterative change in 
          total energy or number of iterations. 
          Levelshifting, if invoked, occurs when the 
          HOMO/LUMO gap drops below (HL_TOL): 1.00D-02
          DIIS, if invoked, will attempt to extrapolate 
          using up to (NFOCK): 10 stored Fock matrices.

                    Damping( 0%)  Levelshifting(0.5)       DIIS
                  --------------- ------------------- ---------------
          dE  on:    start            ASAP                start   
          dE off:    2 iters        *** iters           *** iters 


      Screening Tolerance Information
      -------------------------------
          Density screening/tol_rho: 1.00D-10
          AO Gaussian exp screening on grid/accAOfunc:  14
          CD Gaussian exp screening on grid/accCDfunc:  20
          XC Gaussian exp screening on grid/accXCfunc:  20
          Schwarz screening/accCoul: 1.00D-08



                            NWChem DFT Gradient Module
                            --------------------------



  charge          =   0.00
  wavefunction    = closed shell



                         DFT ENERGY GRADIENTS

    atom               coordinates                        gradient
                 x          y          z           x          y          z
   1 O      -0.208126   0.000000  -0.161099   -0.000138   0.000000  -0.000107
   2 H      -0.134654   0.000000   1.654760    0.000038   0.000000   0.000093
   3 H       1.568175   0.000000  -0.545155    0.000100  -0.000000   0.000014

                 ----------------------------------------
                 |  Time  |  1-e(secs)   |  2-e(secs)   |
                 ----------------------------------------
                 |  CPU   |       0.00   |       0.13   |
                 ----------------------------------------
                 |  WALL  |       0.00   |       0.13   |
                 ----------------------------------------
                               NWChem STEPPER Module
                               ---------------------


   Step sought for minimum. 
   Actual energy difference is :    2.4726458377699601E-005
   2nd order predicted energy difference  was :   -2.2893465548870912E-006
   One of these is below the energy  tolerance:    1.0000000000000000E-004
   Backstepping possibilities are NO 
   longer considered appropriate. 
   Update Hessian used. 
   Number of modes removed with force (in the spectral representation)
   less than:   0.000000 is:    0
   PARTIT has partitioned the input hessian 
   and gradient into two subspaces;  An 
   "external" hessian and gradient composed 
   of                     6  independent translations 
   and rotations, and an "internal" hessian 
   and gradient with a dimension of                     3
               e-diff         g-norm     g-max   
 value        0.0000247265  0.000225  0.000138
 thres        0.0001000000  0.010000  0.000800
   ENERGY =   -76.455560295694511     
   The hessian exhibits the "proper" 
   structure, and the gradient and energy 
   convergence criterion has been met.  
   This geometry walk is HISTORY.
   Calculating the Newton-Raphson step. 
  The length (norm) of the STEP is   0.000426

  The lowest few components in the bases 
  generated by the spectral decomposition 
  of the internal hessian (non-zero force). 

  Component  Hessian     Grad      Step   Scaled-Step
  ---------  --------  --------  -------- -----------
       1     0.16D+00  0.55D-04  -.35D-03  -.35D-03
       2     0.91D+00  -.22D-03  0.24D-03  0.24D-03
       3     0.10D+01  0.24D-06  -.24D-06  -.24D-06

  Clean-up the step; truncate at:   0.000001
  In cartesian coordinates; norm of this step is:   0.000426



  ---------------- Converged geometry ----------------


                         Geometry "g-6-step" -> "g-6-step"
                         ---------------------------------

 Output coordinates in angstroms (scale by  1.889725989 to convert to a.u.)

  No.       Tag          Charge          X              Y              Z
 ---- ---------------- ---------- -------------- -------------- --------------
    1 O                    8.0000    -0.11013536     0.00000000    -0.08524988
    2 H                    1.0000    -0.07125565     0.00000000     0.87566123
    3 H                    1.0000     0.82984248     0.00000000    -0.28848388

      Atomic Mass 
      ----------- 

      O                 15.994910
      H                  1.007825


 Effective nuclear repulsion energy (a.u.)       9.1635130747

            Nuclear Dipole moment (a.u.) 
            ----------------------------
        X                 Y               Z
 ---------------- ---------------- ----------------
    -0.2314840000     0.0000000000    -0.1791870000

 ==============================================================================
                                internuclear distances
 ------------------------------------------------------------------------------
       center one      |      center two      | atomic units |  angstroms
 ------------------------------------------------------------------------------
    2 H                |   1 O                |     1.81734  |     0.96170
    3 H                |   1 O                |     1.81735  |     0.96170
 ------------------------------------------------------------------------------
                         number of included internuclear distances:          2
 ==============================================================================



 ==============================================================================
                                 internuclear angles
 ------------------------------------------------------------------------------
        center 1       |       center 2       |       center 3       |  degrees
 ------------------------------------------------------------------------------
    2 H                |   1 O                |   3 H                |    99.88
 ------------------------------------------------------------------------------
                            number of included internuclear angles:          1
 ==============================================================================




 Task  times  cpu:        7.4s     wall:       11.9s


                                NWChem Input Module
                                -------------------


 Summary of allocated global arrays
-----------------------------------
  No active global arrays



                         GA Statistics for process    0
                         ------------------------------

       create   destroy   get      put      acc     scatter   gather  read&inc
calls:  797      797     3.39e+04 5276     1262        0        0      526     
number of processes/call 1.39e+00 2.02e+00 4.46e+00 0.00e+00 0.00e+00
bytes total:             7.31e+07 1.44e+07 3.06e+07 0.00e+00 0.00e+00 4.21e+03
bytes remote:            4.77e+07 5.57e+06 2.30e+07 0.00e+00 0.00e+00 0.00e+00
Max memory consumed for GA by this process: 583200 bytes

MA_summarize_allocated_blocks: starting scan ...
MA_summarize_allocated_blocks: scan completed: 0 heap blocks, 0 stack blocks
MA usage statistics:

	allocation statistics:
					      heap	     stack
					      ----	     -----
	current number of blocks	         0	         0
	maximum number of blocks	        23	        51
	current total bytes		         0	         0
	maximum total bytes		   7133504	  42330152
	maximum total K-bytes		      7134	     42331
	maximum total M-bytes		         8	        43


                                     CITATION
                                     --------
                Please cite the following reference when publishing
                           results obtained with NWChem:

                 M. Valiev, E.J. Bylaska, N. Govind, K. Kowalski,
              T.P. Straatsma, H.J.J. van Dam, D. Wang, J. Nieplocha,
                        E. Apra, T.L. Windus, W.A. de Jong
                 "NWChem: a comprehensive and scalable open-source
                  solution for large scale molecular simulations"
                      Comput. Phys. Commun. 181, 1477 (2010)
                           doi:10.1016/j.cpc.2010.04.018

                                      AUTHORS
                                      -------
          E. Apra, E. J. Bylaska, W. A. de Jong, N. Govind, K. Kowalski,
       T. P. Straatsma, M. Valiev, H. J. J. van Dam, D. Wang, T. L. Windus,
        J. Hammond, J. Autschbach, K. Bhaskaran-Nair, J. Brabec, K. Lopata,
       S. A. Fischer, S. Krishnamoorthy, W. Ma, M. Klemm, O. Villa, Y. Chen,
    V. Anisimov, F. Aquino, S. Hirata, M. T. Hackler, T. Risthaus, M. Malagoli,
       A. Marenich, A. Otero-de-la-Roza, J. Mullin, P. Nichols, R. Peverati,
     J. Pittner, Y. Zhao, P.-D. Fan, A. Fonari, M. Williamson, R. J. Harrison,
       J. R. Rehr, M. Dupuis, D. Silverstein, D. M. A. Smith, J. Nieplocha,
        V. Tipparaju, M. Krishnan, B. E. Van Kuiken, A. Vazquez-Mayagoitia,
        L. Jensen, M. Swart, Q. Wu, T. Van Voorhis, A. A. Auer, M. Nooijen,
      L. D. Crosby, E. Brown, G. Cisneros, G. I. Fann, H. Fruchtl, J. Garza,
        K. Hirao, R. A. Kendall, J. A. Nichols, K. Tsemekhman, K. Wolinski,
     J. Anchell, D. E. Bernholdt, P. Borowski, T. Clark, D. Clerc, H. Dachsel,
   M. J. O. Deegan, K. Dyall, D. Elwood, E. Glendening, M. Gutowski, A. C. Hess,
         J. Jaffe, B. G. Johnson, J. Ju, R. Kobayashi, R. Kutteh, Z. Lin,
   R. Littlefield, X. Long, B. Meng, T. Nakajima, S. Niu, L. Pollack, M. Rosing,
   K. Glaesemann, G. Sandrone, M. Stave, H. Taylor, G. Thomas, J. H. van Lenthe,
                               A. T. Wong, Z. Zhang.

 Total times  cpu:        7.4s     wall:       12.1s
