[1537857286.399599] [r8n4:11996:0]         sys.c:744  MXM  WARN  Conflicting CPU frequencies detected, using: 1698.50
[1537857286.409464] [r8n4:12002:0]         sys.c:744  MXM  WARN  Conflicting CPU frequencies detected, using: 1699.48
[1537857286.410428] [r8n4:12010:0]         sys.c:744  MXM  WARN  Conflicting CPU frequencies detected, using: 1699.48
[1537857286.410634] [r8n4:12001:0]         sys.c:744  MXM  WARN  Conflicting CPU frequencies detected, using: 1699.48
[1537857286.410704] [r8n4:12000:0]         sys.c:744  MXM  WARN  Conflicting CPU frequencies detected, using: 1699.48
[1537857286.410780] [r8n4:12003:0]         sys.c:744  MXM  WARN  Conflicting CPU frequencies detected, using: 1699.48
[1537857286.410851] [r8n4:12005:0]         sys.c:744  MXM  WARN  Conflicting CPU frequencies detected, using: 1699.48
[1537857286.411038] [r8n4:11997:0]         sys.c:744  MXM  WARN  Conflicting CPU frequencies detected, using: 1699.48
[1537857286.411155] [r8n4:12015:0]         sys.c:744  MXM  WARN  Conflicting CPU frequencies detected, using: 1699.48
[1537857286.411157] [r8n4:11999:0]         sys.c:744  MXM  WARN  Conflicting CPU frequencies detected, using: 1699.48
[1537857286.411160] [r8n4:12013:0]         sys.c:744  MXM  WARN  Conflicting CPU frequencies detected, using: 1699.48
[1537857286.411262] [r8n4:11998:0]         sys.c:744  MXM  WARN  Conflicting CPU frequencies detected, using: 1699.48
[1537857286.411370] [r8n4:12007:0]         sys.c:744  MXM  WARN  Conflicting CPU frequencies detected, using: 1699.48
[1537857286.411563] [r8n4:12011:0]         sys.c:744  MXM  WARN  Conflicting CPU frequencies detected, using: 1699.48
[1537857286.414647] [r8n4:12017:0]         sys.c:744  MXM  WARN  Conflicting CPU frequencies detected, using: 1798.76
[1537857286.420276] [r8n4:12019:0]         sys.c:744  MXM  WARN  Conflicting CPU frequencies detected, using: 1798.76
 argument  1 = /storage/home/bikashp/nwchem_run/rabeet/mgbl19/nwmgbl19/HCN.xyz.nw
                                         
                                         


              Northwest Computational Chemistry Package (NWChem) 6.6
              ------------------------------------------------------


                    Environmental Molecular Sciences Laboratory
                       Pacific Northwest National Laboratory
                                Richland, WA 99352

                              Copyright (c) 1994-2015
                       Pacific Northwest National Laboratory
                            Battelle Memorial Institute

             NWChem is an open-source computational chemistry package
                        distributed under the terms of the
                      Educational Community License (ECL) 2.0
             A copy of the license is included with this distribution
                              in the LICENSE.TXT file

                                  ACKNOWLEDGMENT
                                  --------------

            This software and its documentation were developed at the
            EMSL at Pacific Northwest National Laboratory, a multiprogram
            national laboratory, operated for the U.S. Department of Energy
            by Battelle under Contract Number DE-AC05-76RL01830. Support
            for this work was provided by the Department of Energy Office
            of Biological and Environmental Research, Office of Basic
            Energy Sciences, and the Office of Advanced Scientific Computing.


           Job information
           ---------------

    hostname        = r8n4.niserhpc.org
    program         = /home/bikashp/Code/nwchem-6.6_tpssloc/bin/LINUX64/nwchem
    date            = Tue Sep 25 12:04:49 2018

    compiled        = Tue_Sep_18_16:24:59_2018
    source          = /home/bikashp/Code/nwchem-6.6_tpssloc
    nwchem branch   = 6.6
    nwchem revision = 27746
    ga revision     = 10594
    input           = /storage/home/bikashp/nwchem_run/rabeet/mgbl19/nwmgbl19/HCN.xyz.nw
    prefix          = HCN.xyz.
    data base       = ./HCN.xyz.db
    status          = startup
    nproc           =       16
    time left       =     -1s



           Memory information
           ------------------

    heap     =   13107196 doubles =    100.0 Mbytes
    stack    =   13107201 doubles =    100.0 Mbytes
    global   =   26214400 doubles =    200.0 Mbytes (distinct from heap & stack)
    total    =   52428797 doubles =    400.0 Mbytes
    verify   = yes
    hardfail = no 


           Directory information
           ---------------------

  0 permanent = .
  0 scratch   = .




                                NWChem Input Module
                                -------------------



 Scaling coordinates for geometry "geometry" by  1.889725989
 (inverse scale =  0.529177249)



                             Geometry "geometry" -> ""
                             -------------------------

 Output coordinates in angstroms (scale by  1.889725989 to convert to a.u.)

  No.       Tag          Charge          X              Y              Z
 ---- ---------------- ---------- -------------- -------------- --------------
    1 C                    6.0000     0.00000000     0.00000000    -0.50036214
    2 N                    7.0000     0.00000000     0.00000000     0.65263786
    3 H                    1.0000     0.00000000     0.00000000    -1.56629214

      Atomic Mass 
      ----------- 

      C                 12.000000
      N                 14.003070
      H                  1.007825


 Effective nuclear repulsion energy (a.u.)      23.9242484336

            Nuclear Dipole moment (a.u.) 
            ----------------------------
        X                 Y               Z
 ---------------- ---------------- ----------------
     0.0000000000     0.0000000000     0.0000000000


            XYZ format geometry
            -------------------
     3
 geometry
 C                     0.00000000     0.00000000    -0.50036214
 N                     0.00000000     0.00000000     0.65263786
 H                     0.00000000     0.00000000    -1.56629214

 ==============================================================================
                                internuclear distances
 ------------------------------------------------------------------------------
       center one      |      center two      | atomic units |  angstroms
 ------------------------------------------------------------------------------
    2 N                |   1 C                |     2.17885  |     1.15300
    3 H                |   1 C                |     2.01432  |     1.06593
 ------------------------------------------------------------------------------
                         number of included internuclear distances:          2
 ==============================================================================



 ==============================================================================
                                 internuclear angles
 ------------------------------------------------------------------------------
        center 1       |       center 2       |       center 3       |  degrees
 ------------------------------------------------------------------------------
    2 N                |   1 C                |   3 H                |   180.00
 ------------------------------------------------------------------------------
                            number of included internuclear angles:          1
 ==============================================================================





 Summary of "ao basis" -> "" (cartesian)
 ------------------------------------------------------------------------------
       Tag                 Description            Shells   Functions and Types
 ---------------- ------------------------------  ------  ---------------------
 *                     6-311++G(3df,3pd)              on all atoms 




                           NWChem Geometry Optimization
                           ----------------------------



                                 NWChem DFT Module
                                 -----------------


                      Basis "ao basis" -> "ao basis" (cartesian)
                      -----
  C (Carbon)
  ----------
            Exponent  Coefficients 
       -------------- ---------------------------------------------------------
  1 S  4.56324000E+03  0.001967
  1 S  6.82024000E+02  0.015231
  1 S  1.54973000E+02  0.076127
  1 S  4.44553000E+01  0.260801
  1 S  1.30290000E+01  0.616462
  1 S  1.82773000E+00  0.221006

  2 S  2.09642000E+01  0.114660
  2 S  4.80331000E+00  0.919999
  2 S  1.45933000E+00 -0.003031

  3 P  2.09642000E+01  0.040249
  3 P  4.80331000E+00  0.237594
  3 P  1.45933000E+00  0.815854

  4 S  4.83456000E-01  1.000000

  5 P  4.83456000E-01  1.000000

  6 S  1.45585000E-01  1.000000

  7 P  1.45585000E-01  1.000000

  8 S  4.38000000E-02  1.000000

  9 P  4.38000000E-02  1.000000

 10 D  2.50400000E+00  1.000000

 11 D  6.26000000E-01  1.000000

 12 D  1.56500000E-01  1.000000

 13 F  8.00000000E-01  1.000000

  N (Nitrogen)
  ------------
            Exponent  Coefficients 
       -------------- ---------------------------------------------------------
  1 S  6.29348000E+03  0.001970
  1 S  9.49044000E+02  0.014961
  1 S  2.18776000E+02  0.073501
  1 S  6.36916000E+01  0.248937
  1 S  1.88282000E+01  0.602460
  1 S  2.72023000E+00  0.256202

  2 S  3.06331000E+01  0.111906
  2 S  7.02614000E+00  0.921666
  2 S  2.11205000E+00 -0.002569

  3 P  3.06331000E+01  0.038312
  3 P  7.02614000E+00  0.237403
  3 P  2.11205000E+00  0.817592

  4 S  6.84009000E-01  1.000000

  5 P  6.84009000E-01  1.000000

  6 S  2.00878000E-01  1.000000

  7 P  2.00878000E-01  1.000000

  8 S  6.39000000E-02  1.000000

  9 P  6.39000000E-02  1.000000

 10 D  3.65200000E+00  1.000000

 11 D  9.13000000E-01  1.000000

 12 D  2.28250000E-01  1.000000

 13 F  1.00000000E+00  1.000000

  H (Hydrogen)
  ------------
            Exponent  Coefficients 
       -------------- ---------------------------------------------------------
  1 S  3.38650000E+01  0.025494
  1 S  5.09479000E+00  0.190373
  1 S  1.15879000E+00  0.852161

  2 S  3.25840000E-01  1.000000

  3 S  1.02741000E-01  1.000000

  4 S  3.60000000E-02  1.000000

  5 P  3.00000000E+00  1.000000

  6 P  7.50000000E-01  1.000000

  7 P  1.87500000E-01  1.000000

  8 D  1.00000000E+00  1.000000



 Summary of "ao basis" -> "ao basis" (cartesian)
 ------------------------------------------------------------------------------
       Tag                 Description            Shells   Functions and Types
 ---------------- ------------------------------  ------  ---------------------
 C                     6-311++G(3df,3pd)            13       45   5s4p3d1f
 N                     6-311++G(3df,3pd)            13       45   5s4p3d1f
 H                     6-311++G(3df,3pd)             8       19   4s3p1d




 Summary of "ao basis" -> "ao basis" (cartesian)
 ------------------------------------------------------------------------------
       Tag                 Description            Shells   Functions and Types
 ---------------- ------------------------------  ------  ---------------------
 C                     6-311++G(3df,3pd)            13       45   5s4p3d1f
 N                     6-311++G(3df,3pd)            13       45   5s4p3d1f
 H                     6-311++G(3df,3pd)             8       19   4s3p1d


  Caching 1-el integrals 

            General Information
            -------------------
          SCF calculation type: DFT
          Wavefunction type:  closed shell.
          No. of atoms     :     3
          No. of electrons :    14
           Alpha electrons :     7
            Beta electrons :     7
          Charge           :     0
          Spin multiplicity:     1
          Use of symmetry is: off; symmetry adaption is: off
          Maximum number of iterations: ***
          AO basis - number of functions:   109
                     number of shells:    34
          Convergence on energy requested: 1.00D-06
          Convergence on density requested: 1.00D-05
          Convergence on gradient requested: 5.00D-04

              XC Information
              --------------
                  TPSS metaGGA Exchange Functional  1.000          
             TPSS03 metaGGA Correlation Functional  1.000          

             Grid Information
             ----------------
          Grid used for XC integration:  medium    
          Radial quadrature: Mura-Knowles        
          Angular quadrature: Lebedev. 
          Tag              B.-S. Rad. Rad. Pts. Rad. Cut. Ang. Pts.
          ---              ---------- --------- --------- ---------
          C                   0.70       49          10.0       434
          N                   0.65       49          11.0       434
          H                   0.35       45          11.0       434
          Grid pruning is: on 
          Number of quadrature shells:   143
          Spatial weights used:  Erf1

          Convergence Information
          -----------------------
          Convergence aids based upon iterative change in 
          total energy or number of iterations. 
          Levelshifting, if invoked, occurs when the 
          HOMO/LUMO gap drops below (HL_TOL): 1.00D-02
          DIIS, if invoked, will attempt to extrapolate 
          using up to (NFOCK): 10 stored Fock matrices.

                    Damping( 0%)  Levelshifting(0.5)       DIIS
                  --------------- ------------------- ---------------
          dE  on:    start            ASAP                start   
          dE off:    2 iters        *** iters           *** iters 


      Screening Tolerance Information
      -------------------------------
          Density screening/tol_rho: 1.00D-10
          AO Gaussian exp screening on grid/accAOfunc:  14
          CD Gaussian exp screening on grid/accCDfunc:  20
          XC Gaussian exp screening on grid/accXCfunc:  20
          Schwarz screening/accCoul: 1.00D-08


      Superposition of Atomic Density Guess
      -------------------------------------

 Sum of atomic energies:         -92.47690406

      Non-variational initial energy
      ------------------------------

 Total energy =     -93.092879
 1-e energy   =    -171.336821
 2-e energy   =      54.319693
 HOMO         =      -0.459528
 LUMO         =       0.026287

   Time after variat. SCF:      0.3
   Time prior to 1st pass:      0.3

 Integral file          = ./HCN.xyz.aoints.00
 Record size in doubles =    65536    No. of integs per rec  =    43688
 Max. records in memory =       36    Max. records in file   = 11665794
 No. of bits per label  =        8    No. of bits per value  =       64


 #quartets = 1.738D+05 #integrals = 4.759D+06 #direct =  0.0% #cached =100.0%


File balance: exchanges=     0  moved=     0  time=   0.0


 Grid_pts file          = ./HCN.xyz.gridpts.00
 Record size in doubles =  12289        No. of grid_pts per rec  =   3070
 Max. records in memory =      3        Max. recs in file   =  62212509


           Memory utilization after 1st SCF pass: 
           Heap Space remaining (MW):       10.71            10707780
          Stack Space remaining (MW):       13.11            13106516

   convergence    iter        energy       DeltaE   RMS-Dens  Diis-err    time
 ---------------- ----- ----------------- --------- --------- ---------  ------
 d= 0,ls=0.0,diis     1    -93.4034697720 -1.17D+02  2.19D-02  8.22D-01     0.7
 d= 0,ls=0.0,diis     2    -92.9296579893  4.74D-01  1.28D-02  4.11D+00     0.9
 d= 0,ls=0.0,diis     3    -93.4447133454 -5.15D-01  2.29D-03  1.38D-01     1.0
 d= 0,ls=0.0,diis     4    -93.4575111924 -1.28D-02  5.49D-04  2.83D-03     1.1
 d= 0,ls=0.0,diis     5    -93.4559858984  1.53D-03  3.22D-04  5.18D-04     1.3
  Resetting Diis
 d= 0,ls=0.0,diis     6    -93.4567179437 -7.32D-04  1.20D-04  2.55D-05     1.4
 d= 0,ls=0.0,diis     7    -93.4566198108  9.81D-05  1.78D-05  3.29D-07     1.6
 d= 0,ls=0.0,diis     8    -93.4566495271 -2.97D-05  6.48D-06  9.92D-08     1.7
 d= 0,ls=0.0,diis     9    -93.4566343867  1.51D-05  2.29D-06  1.80D-08     1.8
 d= 0,ls=0.0,diis    10    -93.4566379802 -3.59D-06  1.06D-06  3.24D-08     2.0
 d= 0,ls=0.0,diis    11    -93.4566376691  3.11D-07  2.57D-07  7.56D-10     2.1


         Total DFT energy =      -93.456637669148
      One electron energy =     -172.391158290508
           Coulomb energy =       67.549123823081
          Exchange energy =      -12.097238038833
       Correlation energy =       -0.441613596488
 Nuclear repulsion energy =       23.924248433599

 Numeric. integr. density =       14.000000443573

     Total iterative time =      1.8s



                       DFT Final Molecular Orbital Analysis
                       ------------------------------------

 Vector    1  Occ=2.000000D+00  E=-1.420799D+01
              MO Center=  5.4D-17, -1.6D-17,  6.5D-01, r^2= 2.0D-02
   Bfn.  Coefficient  Atom+Function         Bfn.  Coefficient  Atom+Function  
  ----- ------------  ---------------      ----- ------------  ---------------
    46      0.556661  2 N  s                 47      0.467509  2 N  s          

 Vector    2  Occ=2.000000D+00  E=-1.011655D+01
              MO Center= -1.3D-16,  8.4D-17, -5.0D-01, r^2= 2.8D-02
   Bfn.  Coefficient  Atom+Function         Bfn.  Coefficient  Atom+Function  
  ----- ------------  ---------------      ----- ------------  ---------------
     1      0.561810  1 C  s                  2      0.465761  1 C  s          

 Vector    3  Occ=2.000000D+00  E=-9.206759D-01
              MO Center=  1.1D-15,  1.3D-15,  1.8D-01, r^2= 5.6D-01
   Bfn.  Coefficient  Atom+Function         Bfn.  Coefficient  Atom+Function  
  ----- ------------  ---------------      ----- ------------  ---------------
    55      0.514193  2 N  s                 51      0.416320  2 N  s          
     6      0.226597  1 C  s                 47     -0.167519  2 N  s          
    54     -0.155721  2 N  pz         

 Vector    4  Occ=2.000000D+00  E=-6.231506D-01
              MO Center=  4.5D-16, -2.0D-15, -1.0D+00, r^2= 8.6D-01
   Bfn.  Coefficient  Atom+Function         Bfn.  Coefficient  Atom+Function  
  ----- ------------  ---------------      ----- ------------  ---------------
    10      0.645199  1 C  s                 55     -0.495402  2 N  s          
    92      0.239612  3 H  s                  6      0.229262  1 C  s          
    51     -0.180228  2 N  s                 91      0.172910  3 H  s          
     5     -0.161438  1 C  pz                 9     -0.160540  1 C  pz         

 Vector    5  Occ=2.000000D+00  E=-4.078091D-01
              MO Center=  1.4D-13, -6.4D-14,  8.0D-01, r^2= 8.9D-01
   Bfn.  Coefficient  Atom+Function         Bfn.  Coefficient  Atom+Function  
  ----- ------------  ---------------      ----- ------------  ---------------
    10      0.784747  1 C  s                 58      0.617785  2 N  pz         
    13      0.447031  1 C  pz                54      0.308828  2 N  pz         
    50      0.245913  2 N  pz                80     -0.240728  2 N  dzz        
    35      0.198044  1 C  dzz               51      0.192133  2 N  s          

 Vector    6  Occ=2.000000D+00  E=-4.065178D-01
              MO Center= -1.2D-13, -3.2D-14,  1.1D-01, r^2= 1.1D+00
   Bfn.  Coefficient  Atom+Function         Bfn.  Coefficient  Atom+Function  
  ----- ------------  ---------------      ----- ------------  ---------------
    56      0.378743  2 N  px                52      0.254109  2 N  px         
     7      0.239818  1 C  px                48      0.206010  2 N  px         
     3      0.180913  1 C  px                32     -0.169065  1 C  dxz        

 Vector    7  Occ=2.000000D+00  E=-4.065178D-01
              MO Center= -2.6D-14,  9.7D-14,  1.1D-01, r^2= 1.1D+00
   Bfn.  Coefficient  Atom+Function         Bfn.  Coefficient  Atom+Function  
  ----- ------------  ---------------      ----- ------------  ---------------
    57      0.378743  2 N  py                53      0.254109  2 N  py         
     8      0.239818  1 C  py                49      0.206010  2 N  py         
     4      0.180913  1 C  py                34     -0.169065  1 C  dyz        

 Vector    8  Occ=0.000000D+00  E=-1.025636D-01
              MO Center=  1.7D-15,  7.6D-16, -1.9D-01, r^2= 2.0D+00
   Bfn.  Coefficient  Atom+Function         Bfn.  Coefficient  Atom+Function  
  ----- ------------  ---------------      ----- ------------  ---------------
    12      0.505767  1 C  py                57     -0.427330  2 N  py         
     8      0.277370  1 C  py                53     -0.273676  2 N  py         
    49     -0.217708  2 N  py                61     -0.213735  2 N  py         
    16      0.197313  1 C  py                 4      0.190216  1 C  py         

 Vector    9  Occ=0.000000D+00  E=-1.025636D-01
              MO Center= -5.0D-15, -1.9D-15, -1.9D-01, r^2= 2.0D+00
   Bfn.  Coefficient  Atom+Function         Bfn.  Coefficient  Atom+Function  
  ----- ------------  ---------------      ----- ------------  ---------------
    11      0.505767  1 C  px                56     -0.427330  2 N  px         
     7      0.277370  1 C  px                52     -0.273676  2 N  px         
    48     -0.217708  2 N  px                60     -0.213735  2 N  px         
    15      0.197313  1 C  px                 3      0.190216  1 C  px         

 Vector   10  Occ=0.000000D+00  E=-2.474698D-02
              MO Center=  6.2D-15,  2.4D-15, -2.1D+00, r^2= 3.9D+00
   Bfn.  Coefficient  Atom+Function         Bfn.  Coefficient  Atom+Function  
  ----- ------------  ---------------      ----- ------------  ---------------
    14      2.561046  1 C  s                 94     -1.982413  3 H  s          
    10      1.359476  1 C  s                 93     -0.897091  3 H  s          
    59     -0.788590  2 N  s                 55     -0.557988  2 N  s          
    92     -0.329948  3 H  s                 58      0.261029  2 N  pz         
    62      0.219946  2 N  pz                17     -0.199703  1 C  pz         

 Vector   11  Occ=0.000000D+00  E= 1.367835D-03
              MO Center=  3.7D-14, -5.4D-15, -5.5D-01, r^2= 9.1D+00
   Bfn.  Coefficient  Atom+Function         Bfn.  Coefficient  Atom+Function  
  ----- ------------  ---------------      ----- ------------  ---------------
    59      2.056313  2 N  s                 94     -1.806538  3 H  s          
    17     -1.247860  1 C  pz                14     -0.801714  1 C  s          
    93      0.495861  3 H  s                 10     -0.452797  1 C  s          
    92      0.299270  3 H  s                 55      0.285843  2 N  s          
    62     -0.178724  2 N  pz         

 Vector   12  Occ=0.000000D+00  E= 5.766569D-02
              MO Center=  5.4D-16,  6.6D-15, -7.4D-01, r^2= 9.2D+00
   Bfn.  Coefficient  Atom+Function         Bfn.  Coefficient  Atom+Function  
  ----- ------------  ---------------      ----- ------------  ---------------
    16      1.324074  1 C  py                12     -0.421756  1 C  py         
    61     -0.252461  2 N  py                57      0.154639  2 N  py         

 Vector   13  Occ=0.000000D+00  E= 5.766569D-02
              MO Center= -4.1D-14,  4.8D-15, -7.4D-01, r^2= 9.2D+00
   Bfn.  Coefficient  Atom+Function         Bfn.  Coefficient  Atom+Function  
  ----- ------------  ---------------      ----- ------------  ---------------
    15      1.324074  1 C  px                11     -0.421756  1 C  px         
    60     -0.252461  2 N  px                56      0.154639  2 N  px         

 Vector   14  Occ=0.000000D+00  E= 8.161324D-02
              MO Center=  7.9D-15, -3.2D-15,  4.0D-01, r^2= 1.2D+01
   Bfn.  Coefficient  Atom+Function         Bfn.  Coefficient  Atom+Function  
  ----- ------------  ---------------      ----- ------------  ---------------
    59      5.663619  2 N  s                 14     -4.236548  1 C  s          
    93     -3.127351  3 H  s                 13     -2.446455  1 C  pz         
    17     -2.209896  1 C  pz                55      1.710511  2 N  s          
    62     -1.530301  2 N  pz                94      1.042838  3 H  s          
    58     -0.792417  2 N  pz                92     -0.705054  3 H  s          

 Vector   15  Occ=0.000000D+00  E= 1.014303D-01
              MO Center=  8.1D-16, -1.8D-15, -2.2D+00, r^2= 1.2D+01
   Bfn.  Coefficient  Atom+Function         Bfn.  Coefficient  Atom+Function  
  ----- ------------  ---------------      ----- ------------  ---------------
    14      9.451140  1 C  s                 94     -7.864699  3 H  s          
    17     -3.754151  1 C  pz                10      2.598289  1 C  s          
    55     -1.922958  2 N  s                 93     -1.658205  3 H  s          
    13      0.944990  1 C  pz                58      0.735169  2 N  pz         
    30     -0.622194  1 C  dxx               33     -0.622194  1 C  dyy        

 Vector   16  Occ=0.000000D+00  E= 1.614592D-01
              MO Center= -3.9D-14,  1.9D-14,  5.4D-01, r^2= 8.6D+00
   Bfn.  Coefficient  Atom+Function         Bfn.  Coefficient  Atom+Function  
  ----- ------------  ---------------      ----- ------------  ---------------
    60      2.056335  2 N  px                15     -1.355414  1 C  px         
    61     -1.058575  2 N  py                32     -0.782632  1 C  dxz        
    16      0.697750  1 C  py                34      0.402889  1 C  dyz        
    77     -0.327541  2 N  dxz              101     -0.293440  3 H  px         
    11     -0.177950  1 C  px                79      0.168614  2 N  dyz        

 Vector   17  Occ=0.000000D+00  E= 1.614592D-01
              MO Center= -1.9D-14, -3.9D-14,  5.4D-01, r^2= 8.6D+00
   Bfn.  Coefficient  Atom+Function         Bfn.  Coefficient  Atom+Function  
  ----- ------------  ---------------      ----- ------------  ---------------
    61      2.056335  2 N  py                16     -1.355414  1 C  py         
    60      1.058575  2 N  px                34     -0.782632  1 C  dyz        
    15     -0.697750  1 C  px                32     -0.402889  1 C  dxz        
    79     -0.327541  2 N  dyz              102     -0.293440  3 H  py         
    12     -0.177950  1 C  py                77     -0.168614  2 N  dxz        

 Vector   18  Occ=0.000000D+00  E= 1.731519D-01
              MO Center=  4.4D-15, -2.0D-15,  7.8D-01, r^2= 1.0D+01
   Bfn.  Coefficient  Atom+Function         Bfn.  Coefficient  Atom+Function  
  ----- ------------  ---------------      ----- ------------  ---------------
    17      4.783602  1 C  pz                94      4.709568  3 H  s          
    59     -3.746934  2 N  s                 14     -2.554081  1 C  s          
    62     -2.086432  2 N  pz                10     -1.932559  1 C  s          
    55      1.419453  2 N  s                 13     -1.087081  1 C  pz         
    93      0.898959  3 H  s                 80      0.573162  2 N  dzz        

 Vector   19  Occ=0.000000D+00  E= 1.962380D-01
              MO Center=  5.8D-14,  1.7D-14, -4.9D-01, r^2= 1.0D+01
   Bfn.  Coefficient  Atom+Function         Bfn.  Coefficient  Atom+Function  
  ----- ------------  ---------------      ----- ------------  ---------------
    14     12.980282  1 C  s                 59     -9.627981  2 N  s          
    10      8.156575  1 C  s                 93     -6.147245  3 H  s          
    94     -4.877050  3 H  s                 62      3.776038  2 N  pz         
    55     -3.600711  2 N  s                 35      2.813498  1 C  dzz        
    17     -2.315582  1 C  pz                58      1.452732  2 N  pz         

 Vector   20  Occ=0.000000D+00  E= 2.388102D-01
              MO Center= -4.1D-16,  2.1D-15, -3.7D-01, r^2= 3.0D+00
   Bfn.  Coefficient  Atom+Function         Bfn.  Coefficient  Atom+Function  
  ----- ------------  ---------------      ----- ------------  ---------------
    31      1.535118  1 C  dxy               76      0.236305  2 N  dxy        

 Vector   21  Occ=0.000000D+00  E= 2.388109D-01
              MO Center= -1.2D-15, -1.5D-16, -3.7D-01, r^2= 3.0D+00
   Bfn.  Coefficient  Atom+Function         Bfn.  Coefficient  Atom+Function  
  ----- ------------  ---------------      ----- ------------  ---------------
    30      0.767558  1 C  dxx               33     -0.767558  1 C  dyy        

 Vector   22  Occ=0.000000D+00  E= 3.074375D-01
              MO Center=  3.1D-14, -2.0D-15, -2.9D-01, r^2= 1.0D+01
   Bfn.  Coefficient  Atom+Function         Bfn.  Coefficient  Atom+Function  
  ----- ------------  ---------------      ----- ------------  ---------------
    93     10.973571  3 H  s                 59     -8.819414  2 N  s          
    17      5.941377  1 C  pz                10     -4.288154  1 C  s          
    13      4.147799  1 C  pz                94      3.413085  3 H  s          
    35     -2.102005  1 C  dzz              103      1.812368  3 H  pz         
    92      1.587476  3 H  s                 14     -1.457733  1 C  s          

 Vector   23  Occ=0.000000D+00  E= 3.215383D-01
              MO Center= -2.2D-15, -1.0D-14, -1.1D+00, r^2= 3.8D+00
   Bfn.  Coefficient  Atom+Function         Bfn.  Coefficient  Atom+Function  
  ----- ------------  ---------------      ----- ------------  ---------------
   102      0.971846  3 H  py                34     -0.830992  1 C  dyz        
    16     -0.789930  1 C  py                61      0.605598  2 N  py         
    12     -0.574684  1 C  py                57      0.526695  2 N  py         
     8     -0.275712  1 C  py               101      0.199214  3 H  px         
    32     -0.170341  1 C  dxz               15     -0.161924  1 C  px         

 Vector   24  Occ=0.000000D+00  E= 3.215383D-01
              MO Center= -3.4D-14,  5.9D-15, -1.1D+00, r^2= 3.8D+00
   Bfn.  Coefficient  Atom+Function         Bfn.  Coefficient  Atom+Function  
  ----- ------------  ---------------      ----- ------------  ---------------
   101      0.971846  3 H  px                32     -0.830992  1 C  dxz        
    15     -0.789930  1 C  px                60      0.605598  2 N  px         
    11     -0.574684  1 C  px                56      0.526695  2 N  px         
     7     -0.275712  1 C  px               102     -0.199214  3 H  py         
    34      0.170341  1 C  dyz               16      0.161924  1 C  py         

 Vector   25  Occ=0.000000D+00  E= 4.211188D-01
              MO Center= -3.9D-14,  2.3D-14, -1.6D+00, r^2= 6.6D+00
   Bfn.  Coefficient  Atom+Function         Bfn.  Coefficient  Atom+Function  
  ----- ------------  ---------------      ----- ------------  ---------------
    55     -6.404862  2 N  s                 13      6.265005  1 C  pz         
    10      5.877906  1 C  s                 93      4.716742  3 H  s          
    14      4.153807  1 C  s                 94     -3.806309  3 H  s          
    58      3.444671  2 N  pz                30     -2.872225  1 C  dxx        
    33     -2.872225  1 C  dyy               35     -1.651514  1 C  dzz        

 Vector   26  Occ=0.000000D+00  E= 4.534646D-01
              MO Center=  2.0D-14, -1.8D-15,  3.1D-02, r^2= 4.4D+00
   Bfn.  Coefficient  Atom+Function         Bfn.  Coefficient  Atom+Function  
  ----- ------------  ---------------      ----- ------------  ---------------
    32      2.856827  1 C  dxz               11      2.805010  1 C  px         
    56     -1.616717  2 N  px                77      1.283111  2 N  dxz        
    60     -0.917270  2 N  px                 7     -0.676127  1 C  px         
   101      0.364098  3 H  px                 3     -0.209294  1 C  px         
    15     -0.202613  1 C  px         

 Vector   27  Occ=0.000000D+00  E= 4.534646D-01
              MO Center= -4.6D-15,  2.4D-14,  3.1D-02, r^2= 4.4D+00
   Bfn.  Coefficient  Atom+Function         Bfn.  Coefficient  Atom+Function  
  ----- ------------  ---------------      ----- ------------  ---------------
    34      2.856827  1 C  dyz               12      2.805010  1 C  py         
    57     -1.616717  2 N  py                79      1.283111  2 N  dyz        
    61     -0.917270  2 N  py                 8     -0.676127  1 C  py         
   102      0.364098  3 H  py                 4     -0.209294  1 C  py         
    16     -0.202613  1 C  py         

 Vector   28  Occ=0.000000D+00  E= 4.732591D-01
              MO Center= -2.5D-15, -3.0D-14,  5.8D-01, r^2= 6.1D+00
   Bfn.  Coefficient  Atom+Function         Bfn.  Coefficient  Atom+Function  
  ----- ------------  ---------------      ----- ------------  ---------------
    10     17.042875  1 C  s                 55    -13.885914  2 N  s          
    13     11.019879  1 C  pz                59     -9.613219  2 N  s          
    14      9.398602  1 C  s                 58      5.242615  2 N  pz         
    35      4.874263  1 C  dzz               62      4.208140  2 N  pz         
    94     -3.753298  3 H  s                 80     -2.481086  2 N  dzz        

 Vector   29  Occ=0.000000D+00  E= 5.530121D-01
              MO Center= -2.7D-14, -2.9D-15, -7.3D-01, r^2= 5.2D+00
   Bfn.  Coefficient  Atom+Function         Bfn.  Coefficient  Atom+Function  
  ----- ------------  ---------------      ----- ------------  ---------------
    10     13.800589  1 C  s                 93     -7.371916  3 H  s          
    55     -6.504334  2 N  s                 14      5.426995  1 C  s          
    59     -5.145671  2 N  s                103     -2.963220  3 H  pz         
    58      2.608861  2 N  pz                35      2.273434  1 C  dzz        
    92     -1.756072  3 H  s                 13      1.566260  1 C  pz         


 center of mass
 --------------
 x =   0.00000000 y =   0.00000000 z =   0.10886305

 moments of inertia (a.u.)
 ------------------
          40.537254952327           0.000000000000           0.000000000000
           0.000000000000          40.537254952327           0.000000000000
           0.000000000000           0.000000000000           0.000000000000

     Multipole analysis of the density
     ---------------------------------

     L   x y z        total         alpha         beta         nuclear
     -   - - -        -----         -----         ----         -------
     0   0 0 0     -0.000000     -7.000000     -7.000000     14.000000

     1   1 0 0     -0.000000     -0.000000     -0.000000      0.000000
     1   0 1 0      0.000000      0.000000      0.000000      0.000000
     1   0 0 1     -1.196880     -0.598440     -0.598440      0.000000

     2   2 0 0     -9.030417     -4.515208     -4.515208      0.000000
     2   1 1 0      0.000000      0.000000      0.000000      0.000000
     2   1 0 1     -0.000000     -0.000000     -0.000000      0.000000
     2   0 2 0     -9.030417     -4.515208     -4.515208      0.000000
     2   0 1 1     -0.000000     -0.000000     -0.000000      0.000000
     2   0 0 2     -7.351707    -16.062086    -16.062086     24.772466


 Parallel integral file used     118 records with       0 large values


            General Information
            -------------------
          SCF calculation type: DFT
          Wavefunction type:  closed shell.
          No. of atoms     :     3
          No. of electrons :    14
           Alpha electrons :     7
            Beta electrons :     7
          Charge           :     0
          Spin multiplicity:     1
          Use of symmetry is: off; symmetry adaption is: off
          Maximum number of iterations: ***
          AO basis - number of functions:   109
                     number of shells:    34
          Convergence on energy requested: 1.00D-06
          Convergence on density requested: 1.00D-05
          Convergence on gradient requested: 5.00D-04

              XC Information
              --------------
                  TPSS metaGGA Exchange Functional  1.000          
             TPSS03 metaGGA Correlation Functional  1.000          

             Grid Information
             ----------------
          Grid used for XC integration:  medium    
          Radial quadrature: Mura-Knowles        
          Angular quadrature: Lebedev. 
          Tag              B.-S. Rad. Rad. Pts. Rad. Cut. Ang. Pts.
          ---              ---------- --------- --------- ---------
          C                   0.70       49          10.0       434
          N                   0.65       49          11.0       434
          H                   0.35       45          11.0       434
          Grid pruning is: on 
          Number of quadrature shells:   143
          Spatial weights used:  Erf1

          Convergence Information
          -----------------------
          Convergence aids based upon iterative change in 
          total energy or number of iterations. 
          Levelshifting, if invoked, occurs when the 
          HOMO/LUMO gap drops below (HL_TOL): 1.00D-02
          DIIS, if invoked, will attempt to extrapolate 
          using up to (NFOCK): 10 stored Fock matrices.

                    Damping( 0%)  Levelshifting(0.5)       DIIS
                  --------------- ------------------- ---------------
          dE  on:    start            ASAP                start   
          dE off:    2 iters        *** iters           *** iters 


      Screening Tolerance Information
      -------------------------------
          Density screening/tol_rho: 1.00D-10
          AO Gaussian exp screening on grid/accAOfunc:  14
          CD Gaussian exp screening on grid/accCDfunc:  20
          XC Gaussian exp screening on grid/accXCfunc:  20
          Schwarz screening/accCoul: 1.00D-08



                            NWChem DFT Gradient Module
                            --------------------------



  charge          =   0.00
  wavefunction    = closed shell



                         DFT ENERGY GRADIENTS

    atom               coordinates                        gradient
                 x          y          z           x          y          z
   1 C       0.000000   0.000000  -0.945547   -0.000000  -0.000000  -0.019816
   2 N       0.000000   0.000000   1.233307    0.000000   0.000000   0.017392
   3 H       0.000000   0.000000  -2.959863    0.000000  -0.000000   0.002424

                 ----------------------------------------
                 |  Time  |  1-e(secs)   |  2-e(secs)   |
                 ----------------------------------------
                 |  CPU   |       0.00   |       0.70   |
                 ----------------------------------------
                 |  WALL  |       0.00   |       0.70   |
                 ----------------------------------------
                               NWChem STEPPER Module
                               ---------------------


   Step sought for minimum. 
   Update Hessian used. 
   Nuclear Hessian initialized with UNIT matrix. 
   Dependent rotation vector no.                    3
   found in ECKART; linear geometry  assumed. 
   Number of modes removed with force (in the spectral representation)
   less than:   0.000000 is:    2
   PARTIT has partitioned the input hessian 
   and gradient into two subspaces;  An 
   "external" hessian and gradient composed 
   of                     5  independent translations 
   and rotations, and an "internal" hessian 
   and gradient with a dimension of                     2
               e-diff         g-norm     g-max   
 value      -93.4566376691  0.026477  0.019816
 thres        0.0001000000  0.010000  0.000800
  trust radius =     0.10
   Calculating the Newton-Raphson step. 
  The length (norm) of the STEP is   0.026477

  The lowest few components in the bases 
  generated by the spectral decomposition 
  of the internal hessian (non-zero force). 

  Component  Hessian     Grad      Step   Scaled-Step
  ---------  --------  --------  -------- -----------
       1     0.10D+01  0.11D-01  -.11D-01  -.11D-01
       2     0.10D+01  -.24D-01  0.24D-01  0.24D-01

  Clean-up the step; truncate at:   0.000001
  In cartesian coordinates; norm of this step is:   0.026477
         Walk statistics for step:   1
     Previous actual total energy:   0.000000000000D+00
      Current actual total energy:  -0.934566376691D+02
         Actual energy difference:  -0.934566376691D+02 threshold:         0.100000D-03
    Second order energy predicted:   0.000000000000D+00
             Ratio of differences:   0.000000000000D+00
               Fixed trust radius:   0.100000000000D+00
   Number of negative eigenvalues:   0
   Max absolute value of Gradient:   0.198160401378D-01 threshold:         0.800000D-03
                    Gradient norm:   0.264770498104D-01 threshold:         0.100000D-01
                RMS Gradient norm:   0.152865318354D-01
  Largest component of step v-tor:   0.242700000000D-01
  New 2nd order energy prediction:  -0.350517083249D-03



  ------------------- New geometry -------------------


                         Geometry "g-1-step" -> "g-1-step"
                         ---------------------------------

 Output coordinates in angstroms (scale by  1.889725989 to convert to a.u.)

  No.       Tag          Charge          X              Y              Z
 ---- ---------------- ---------- -------------- -------------- --------------
    1 C                    6.0000     0.00000000     0.00000000    -0.48987597
    2 N                    7.0000     0.00000000     0.00000000     0.64343441
    3 H                    1.0000     0.00000000     0.00000000    -1.56757487

      Atomic Mass 
      ----------- 

      C                 12.000000
      N                 14.003070
      H                  1.007825


 Effective nuclear repulsion energy (a.u.)      24.2325963215

            Nuclear Dipole moment (a.u.) 
            ----------------------------
        X                 Y               Z
 ---------------- ---------------- ----------------
     0.0000000000     0.0000000000    -0.0052720000

 ==============================================================================
                                internuclear distances
 ------------------------------------------------------------------------------
       center one      |      center two      | atomic units |  angstroms
 ------------------------------------------------------------------------------
    2 N                |   1 C                |     2.14165  |     1.13331
    3 H                |   1 C                |     2.03656  |     1.07770
 ------------------------------------------------------------------------------
                         number of included internuclear distances:          2
 ==============================================================================



 ==============================================================================
                                 internuclear angles
 ------------------------------------------------------------------------------
        center 1       |       center 2       |       center 3       |  degrees
 ------------------------------------------------------------------------------
    2 N                |   1 C                |   3 H                |   180.00
 ------------------------------------------------------------------------------
                            number of included internuclear angles:          1
 ==============================================================================




                                 NWChem DFT Module
                                 -----------------




 Summary of "ao basis" -> "ao basis" (cartesian)
 ------------------------------------------------------------------------------
       Tag                 Description            Shells   Functions and Types
 ---------------- ------------------------------  ------  ---------------------
 C                     6-311++G(3df,3pd)            13       45   5s4p3d1f
 N                     6-311++G(3df,3pd)            13       45   5s4p3d1f
 H                     6-311++G(3df,3pd)             8       19   4s3p1d


  Caching 1-el integrals 

            General Information
            -------------------
          SCF calculation type: DFT
          Wavefunction type:  closed shell.
          No. of atoms     :     3
          No. of electrons :    14
           Alpha electrons :     7
            Beta electrons :     7
          Charge           :     0
          Spin multiplicity:     1
          Use of symmetry is: off; symmetry adaption is: off
          Maximum number of iterations: ***
          AO basis - number of functions:   109
                     number of shells:    34
          Convergence on energy requested: 1.00D-06
          Convergence on density requested: 1.00D-05
          Convergence on gradient requested: 5.00D-04

              XC Information
              --------------
                  TPSS metaGGA Exchange Functional  1.000          
             TPSS03 metaGGA Correlation Functional  1.000          

             Grid Information
             ----------------
          Grid used for XC integration:  medium    
          Radial quadrature: Mura-Knowles        
          Angular quadrature: Lebedev. 
          Tag              B.-S. Rad. Rad. Pts. Rad. Cut. Ang. Pts.
          ---              ---------- --------- --------- ---------
          C                   0.70       49          10.0       434
          N                   0.65       49          11.0       434
          H                   0.35       45          11.0       434
          Grid pruning is: on 
          Number of quadrature shells:   143
          Spatial weights used:  Erf1

          Convergence Information
          -----------------------
          Convergence aids based upon iterative change in 
          total energy or number of iterations. 
          Levelshifting, if invoked, occurs when the 
          HOMO/LUMO gap drops below (HL_TOL): 1.00D-02
          DIIS, if invoked, will attempt to extrapolate 
          using up to (NFOCK): 10 stored Fock matrices.

                    Damping( 0%)  Levelshifting(0.5)       DIIS
                  --------------- ------------------- ---------------
          dE  on:    start            ASAP                start   
          dE off:    2 iters        *** iters           *** iters 


      Screening Tolerance Information
      -------------------------------
          Density screening/tol_rho: 1.00D-10
          AO Gaussian exp screening on grid/accAOfunc:  14
          CD Gaussian exp screening on grid/accCDfunc:  20
          XC Gaussian exp screening on grid/accXCfunc:  20
          Schwarz screening/accCoul: 1.00D-08


 Loading old vectors from job with title :



   Time after variat. SCF:      3.1
   Time prior to 1st pass:      3.1

 Integral file          = ./HCN.xyz.aoints.00
 Record size in doubles =    65536    No. of integs per rec  =    43688
 Max. records in memory =       36    Max. records in file   = 11665919
 No. of bits per label  =        8    No. of bits per value  =       64


 #quartets = 1.748D+05 #integrals = 4.819D+06 #direct =  0.0% #cached =100.0%


File balance: exchanges=     0  moved=     0  time=   0.0


 Grid_pts file          = ./HCN.xyz.gridpts.00
 Record size in doubles =  12289        No. of grid_pts per rec  =   3070
 Max. records in memory =      3        Max. recs in file   =  62213177


           Memory utilization after 1st SCF pass: 
           Heap Space remaining (MW):       10.71            10707780
          Stack Space remaining (MW):       13.11            13106516

   convergence    iter        energy       DeltaE   RMS-Dens  Diis-err    time
 ---------------- ----- ----------------- --------- --------- ---------  ------
 d= 0,ls=0.0,diis     1    -93.4540019153 -1.18D+02  3.66D-03  8.47D-03     3.6
 d= 0,ls=0.0,diis     2    -93.4558623059 -1.86D-03  8.99D-04  2.28D-02     3.8
 d= 0,ls=0.0,diis     3    -93.4550403543  8.22D-04  4.86D-04  4.97D-03     4.0
 d= 0,ls=0.0,diis     4    -93.4553703940 -3.30D-04  1.53D-04  1.70D-04     4.1
 d= 0,ls=0.0,diis     5    -93.4557517790 -3.81D-04  1.11D-05  4.04D-07     4.2
 d= 0,ls=0.0,diis     6    -93.4557243855  2.74D-05  2.94D-06  2.09D-08     4.4
 d= 0,ls=0.0,diis     7    -93.4557264766 -2.09D-06  8.94D-07  9.36D-10     4.5
 d= 0,ls=0.0,diis     8    -93.4557263287  1.48D-07  5.89D-08  2.14D-11     4.7


         Total DFT energy =      -93.455726328653
      One electron energy =     -173.007212801408
           Coulomb energy =       67.875950753117
          Exchange energy =      -12.114529288600
       Correlation energy =       -0.442531313237
 Nuclear repulsion energy =       24.232596321474

 Numeric. integr. density =       14.000000716533

     Total iterative time =      1.5s



                       DFT Final Molecular Orbital Analysis
                       ------------------------------------

 Vector    1  Occ=2.000000D+00  E=-1.420155D+01
              MO Center= -2.9D-16,  2.1D-16,  6.4D-01, r^2= 2.0D-02
   Bfn.  Coefficient  Atom+Function         Bfn.  Coefficient  Atom+Function  
  ----- ------------  ---------------      ----- ------------  ---------------
    46      0.556622  2 N  s                 47      0.467507  2 N  s          

 Vector    2  Occ=2.000000D+00  E=-1.011085D+01
              MO Center=  1.9D-16, -1.8D-16, -4.9D-01, r^2= 2.8D-02
   Bfn.  Coefficient  Atom+Function         Bfn.  Coefficient  Atom+Function  
  ----- ------------  ---------------      ----- ------------  ---------------
     1      0.561739  1 C  s                  2      0.465759  1 C  s          

 Vector    3  Occ=2.000000D+00  E=-9.267996D-01
              MO Center= -6.0D-16,  1.3D-15,  1.8D-01, r^2= 5.5D-01
   Bfn.  Coefficient  Atom+Function         Bfn.  Coefficient  Atom+Function  
  ----- ------------  ---------------      ----- ------------  ---------------
    55      0.528134  2 N  s                 51      0.419472  2 N  s          
     6      0.220051  1 C  s                 47     -0.168148  2 N  s          
    54     -0.162390  2 N  pz         

 Vector    4  Occ=2.000000D+00  E=-6.180309D-01
              MO Center= -2.9D-16,  4.0D-15, -1.0D+00, r^2= 8.5D-01
   Bfn.  Coefficient  Atom+Function         Bfn.  Coefficient  Atom+Function  
  ----- ------------  ---------------      ----- ------------  ---------------
    10      0.676385  1 C  s                 55     -0.508595  2 N  s          
    92      0.231174  3 H  s                  6      0.228524  1 C  s          
    51     -0.175972  2 N  s                  9     -0.170067  1 C  pz         
    91      0.170464  3 H  s                  5     -0.161927  1 C  pz         

 Vector    5  Occ=2.000000D+00  E=-4.101317D-01
              MO Center= -3.8D-14,  5.2D-14,  1.1D-01, r^2= 1.1D+00
   Bfn.  Coefficient  Atom+Function         Bfn.  Coefficient  Atom+Function  
  ----- ------------  ---------------      ----- ------------  ---------------
    57      0.325659  2 N  py                56     -0.234023  2 N  px         
    53      0.214954  2 N  py                 8      0.200867  1 C  py         
    49      0.174134  2 N  py                 4      0.153795  1 C  py         
    52     -0.154469  2 N  px                34     -0.150777  1 C  dyz        

 Vector    6  Occ=2.000000D+00  E=-4.101317D-01
              MO Center= -1.3D-14, -1.1D-14,  1.1D-01, r^2= 1.1D+00
   Bfn.  Coefficient  Atom+Function         Bfn.  Coefficient  Atom+Function  
  ----- ------------  ---------------      ----- ------------  ---------------
    56      0.325659  2 N  px                57      0.234023  2 N  py         
    52      0.214954  2 N  px                 7      0.200867  1 C  px         
    48      0.174134  2 N  px                 3      0.153795  1 C  px         
    53      0.154469  2 N  py                32     -0.150777  1 C  dxz        

 Vector    7  Occ=2.000000D+00  E=-4.056756D-01
              MO Center=  4.1D-14, -4.1D-14,  8.1D-01, r^2= 8.7D-01
   Bfn.  Coefficient  Atom+Function         Bfn.  Coefficient  Atom+Function  
  ----- ------------  ---------------      ----- ------------  ---------------
    10      0.830658  1 C  s                 58      0.621950  2 N  pz         
    13      0.456667  1 C  pz                54      0.312336  2 N  pz         
    50      0.247470  2 N  pz                80     -0.242112  2 N  dzz        
    35      0.193466  1 C  dzz               51      0.188672  2 N  s          

 Vector    8  Occ=0.000000D+00  E=-9.572400D-02
              MO Center= -2.3D-15,  1.9D-15, -2.0D-01, r^2= 2.0D+00
   Bfn.  Coefficient  Atom+Function         Bfn.  Coefficient  Atom+Function  
  ----- ------------  ---------------      ----- ------------  ---------------
    12      0.499955  1 C  py                57     -0.418342  2 N  py         
     8      0.266405  1 C  py                53     -0.265639  2 N  py         
    61     -0.224023  2 N  py                16      0.212184  1 C  py         
    49     -0.211352  2 N  py                 4      0.182680  1 C  py         

 Vector    9  Occ=0.000000D+00  E=-9.572400D-02
              MO Center= -5.7D-15, -1.2D-15, -2.0D-01, r^2= 2.0D+00
   Bfn.  Coefficient  Atom+Function         Bfn.  Coefficient  Atom+Function  
  ----- ------------  ---------------      ----- ------------  ---------------
    11      0.499955  1 C  px                56     -0.418342  2 N  px         
     7      0.266405  1 C  px                52     -0.265639  2 N  px         
    60     -0.224023  2 N  px                15      0.212184  1 C  px         
    48     -0.211352  2 N  px                 3      0.182680  1 C  px         

 Vector   10  Occ=0.000000D+00  E=-2.654494D-02
              MO Center=  1.3D-15,  3.8D-15, -2.1D+00, r^2= 3.8D+00
   Bfn.  Coefficient  Atom+Function         Bfn.  Coefficient  Atom+Function  
  ----- ------------  ---------------      ----- ------------  ---------------
    14      2.483225  1 C  s                 94     -1.920654  3 H  s          
    10      1.330605  1 C  s                 93     -0.898158  3 H  s          
    59     -0.763369  2 N  s                 55     -0.534201  2 N  s          
    92     -0.331582  3 H  s                 58      0.242114  2 N  pz         
    62      0.206162  2 N  pz                17     -0.201771  1 C  pz         

 Vector   11  Occ=0.000000D+00  E= 2.258446D-03
              MO Center=  2.8D-14,  2.7D-14, -5.7D-01, r^2= 9.2D+00
   Bfn.  Coefficient  Atom+Function         Bfn.  Coefficient  Atom+Function  
  ----- ------------  ---------------      ----- ------------  ---------------
    59      2.066486  2 N  s                 94     -1.819872  3 H  s          
    17     -1.249900  1 C  pz                14     -0.807986  1 C  s          
    93      0.517872  3 H  s                 10     -0.413727  1 C  s          
    92      0.300296  3 H  s                 55      0.250396  2 N  s          
    62     -0.163644  2 N  pz         

 Vector   12  Occ=0.000000D+00  E= 5.775001D-02
              MO Center=  4.8D-15, -1.2D-14, -7.1D-01, r^2= 9.2D+00
   Bfn.  Coefficient  Atom+Function         Bfn.  Coefficient  Atom+Function  
  ----- ------------  ---------------      ----- ------------  ---------------
    16      1.189783  1 C  py                15     -0.589337  1 C  px         
    12     -0.388388  1 C  py                61     -0.224341  2 N  py         
    11      0.192381  1 C  px                57      0.153019  2 N  py         

 Vector   13  Occ=0.000000D+00  E= 5.775001D-02
              MO Center= -2.8D-14, -1.4D-14, -7.1D-01, r^2= 9.2D+00
   Bfn.  Coefficient  Atom+Function         Bfn.  Coefficient  Atom+Function  
  ----- ------------  ---------------      ----- ------------  ---------------
    15      1.189783  1 C  px                16      0.589337  1 C  py         
    11     -0.388388  1 C  px                60     -0.224341  2 N  px         
    12     -0.192381  1 C  py                56      0.153019  2 N  px         

 Vector   14  Occ=0.000000D+00  E= 8.072414D-02
              MO Center=  7.5D-15, -1.3D-15,  2.9D-01, r^2= 1.3D+01
   Bfn.  Coefficient  Atom+Function         Bfn.  Coefficient  Atom+Function  
  ----- ------------  ---------------      ----- ------------  ---------------
    59      5.741878  2 N  s                 14     -4.631660  1 C  s          
    93     -3.004291  3 H  s                 13     -2.473681  1 C  pz         
    17     -2.063185  1 C  pz                55      1.840214  2 N  s          
    62     -1.537777  2 N  pz                94      1.334118  3 H  s          
    58     -0.829373  2 N  pz                10     -0.805950  1 C  s          

 Vector   15  Occ=0.000000D+00  E= 1.014182D-01
              MO Center= -2.5D-15,  1.0D-15, -2.1D+00, r^2= 1.3D+01
   Bfn.  Coefficient  Atom+Function         Bfn.  Coefficient  Atom+Function  
  ----- ------------  ---------------      ----- ------------  ---------------
    14      9.298335  1 C  s                 94     -7.765728  3 H  s          
    17     -3.828948  1 C  pz                10      2.705287  1 C  s          
    55     -1.987262  2 N  s                 93     -1.744952  3 H  s          
    13      0.940410  1 C  pz                58      0.731976  2 N  pz         
    30     -0.622201  1 C  dxx               33     -0.622201  1 C  dyy        

 Vector   16  Occ=0.000000D+00  E= 1.622824D-01
              MO Center=  1.2D-14, -3.2D-14,  5.3D-01, r^2= 8.7D+00
   Bfn.  Coefficient  Atom+Function         Bfn.  Coefficient  Atom+Function  
  ----- ------------  ---------------      ----- ------------  ---------------
    61      2.128732  2 N  py                16     -1.411700  1 C  py         
    60     -0.988568  2 N  px                34     -0.833344  1 C  dyz        
    15      0.655584  1 C  px                32      0.386999  1 C  dxz        
    79     -0.348459  2 N  dyz              102     -0.298744  3 H  py         
    12     -0.207164  1 C  py                53     -0.161151  2 N  py         

 Vector   17  Occ=0.000000D+00  E= 1.622824D-01
              MO Center= -6.4D-14, -2.8D-14,  5.3D-01, r^2= 8.7D+00
   Bfn.  Coefficient  Atom+Function         Bfn.  Coefficient  Atom+Function  
  ----- ------------  ---------------      ----- ------------  ---------------
    60      2.128732  2 N  px                15     -1.411700  1 C  px         
    61      0.988568  2 N  py                32     -0.833344  1 C  dxz        
    16     -0.655584  1 C  py                34     -0.386999  1 C  dyz        
    77     -0.348459  2 N  dxz              101     -0.298744  3 H  px         
    11     -0.207164  1 C  px                52     -0.161151  2 N  px         

 Vector   18  Occ=0.000000D+00  E= 1.751950D-01
              MO Center= -1.6D-15,  8.6D-16,  7.9D-01, r^2= 1.0D+01
   Bfn.  Coefficient  Atom+Function         Bfn.  Coefficient  Atom+Function  
  ----- ------------  ---------------      ----- ------------  ---------------
    17      4.827888  1 C  pz                94      4.697394  3 H  s          
    59     -3.726803  2 N  s                 14     -2.544645  1 C  s          
    62     -2.163997  2 N  pz                10     -1.955420  1 C  s          
    55      1.428935  2 N  s                 13     -1.087140  1 C  pz         
    93      0.889325  3 H  s                 80      0.577143  2 N  dzz        

 Vector   19  Occ=0.000000D+00  E= 1.965640D-01
              MO Center=  4.2D-14,  5.8D-14, -5.0D-01, r^2= 1.0D+01
   Bfn.  Coefficient  Atom+Function         Bfn.  Coefficient  Atom+Function  
  ----- ------------  ---------------      ----- ------------  ---------------
    14     13.028134  1 C  s                 59     -9.775182  2 N  s          
    10      8.292604  1 C  s                 93     -6.102139  3 H  s          
    94     -4.866130  3 H  s                 62      3.830059  2 N  pz         
    55     -3.762476  2 N  s                 35      2.860493  1 C  dzz        
    17     -2.382727  1 C  pz                58      1.439043  2 N  pz         

 Vector   20  Occ=0.000000D+00  E= 2.398502D-01
              MO Center=  6.5D-16, -1.2D-15, -3.6D-01, r^2= 3.0D+00
   Bfn.  Coefficient  Atom+Function         Bfn.  Coefficient  Atom+Function  
  ----- ------------  ---------------      ----- ------------  ---------------
    31      1.538583  1 C  dxy               76      0.227395  2 N  dxy        

 Vector   21  Occ=0.000000D+00  E= 2.398511D-01
              MO Center= -2.1D-16, -6.1D-17, -3.6D-01, r^2= 3.0D+00
   Bfn.  Coefficient  Atom+Function         Bfn.  Coefficient  Atom+Function  
  ----- ------------  ---------------      ----- ------------  ---------------
    30      0.769290  1 C  dxx               33     -0.769290  1 C  dyy        

 Vector   22  Occ=0.000000D+00  E= 3.083714D-01
              MO Center= -6.7D-15, -1.8D-14, -3.1D-01, r^2= 1.0D+01
   Bfn.  Coefficient  Atom+Function         Bfn.  Coefficient  Atom+Function  
  ----- ------------  ---------------      ----- ------------  ---------------
    93     10.854803  3 H  s                 59     -8.902365  2 N  s          
    17      5.792543  1 C  pz                13      4.248078  1 C  pz         
    10     -3.904700  1 C  s                 94      3.125747  3 H  s          
    35     -2.104544  1 C  dzz              103      1.824954  3 H  pz         
    92      1.516224  3 H  s                 58      1.187764  2 N  pz         

 Vector   23  Occ=0.000000D+00  E= 3.219814D-01
              MO Center=  8.6D-15,  1.4D-15, -1.1D+00, r^2= 3.7D+00
   Bfn.  Coefficient  Atom+Function         Bfn.  Coefficient  Atom+Function  
  ----- ------------  ---------------      ----- ------------  ---------------
   101      1.013322  3 H  px                15     -0.799091  1 C  px         
    32     -0.752050  1 C  dxz               60      0.593616  2 N  px         
    11     -0.560689  1 C  px                56      0.508954  2 N  px         
     7     -0.283805  1 C  px                77      0.192152  2 N  dxz        

 Vector   24  Occ=0.000000D+00  E= 3.219814D-01
              MO Center= -2.2D-15,  1.9D-14, -1.1D+00, r^2= 3.7D+00
   Bfn.  Coefficient  Atom+Function         Bfn.  Coefficient  Atom+Function  
  ----- ------------  ---------------      ----- ------------  ---------------
   102      1.013322  3 H  py                16     -0.799091  1 C  py         
    34     -0.752050  1 C  dyz               61      0.593616  2 N  py         
    12     -0.560689  1 C  py                57      0.508954  2 N  py         
     8     -0.283805  1 C  py                79      0.192152  2 N  dyz        

 Vector   25  Occ=0.000000D+00  E= 4.203803D-01
              MO Center=  1.8D-15,  4.2D-14, -1.6D+00, r^2= 6.5D+00
   Bfn.  Coefficient  Atom+Function         Bfn.  Coefficient  Atom+Function  
  ----- ------------  ---------------      ----- ------------  ---------------
    55     -7.209972  2 N  s                 10      6.947526  1 C  s          
    13      6.694744  1 C  pz                93      4.524484  3 H  s          
    14      4.373331  1 C  s                 94     -3.896225  3 H  s          
    58      3.710241  2 N  pz                30     -2.919708  1 C  dxx        
    33     -2.919708  1 C  dyy               35     -1.515301  1 C  dzz        

 Vector   26  Occ=0.000000D+00  E= 4.521111D-01
              MO Center=  6.8D-15, -1.1D-13,  6.6D-02, r^2= 4.4D+00
   Bfn.  Coefficient  Atom+Function         Bfn.  Coefficient  Atom+Function  
  ----- ------------  ---------------      ----- ------------  ---------------
    34      3.009869  1 C  dyz               12      2.913044  1 C  py         
    57     -1.743075  2 N  py                79      1.351153  2 N  dyz        
    61     -0.977502  2 N  py                 8     -0.645566  1 C  py         
   102      0.375561  3 H  py                 4     -0.205736  1 C  py         
    16     -0.167281  1 C  py         

 Vector   27  Occ=0.000000D+00  E= 4.521111D-01
              MO Center=  3.8D-15, -6.3D-16,  6.6D-02, r^2= 4.4D+00
   Bfn.  Coefficient  Atom+Function         Bfn.  Coefficient  Atom+Function  
  ----- ------------  ---------------      ----- ------------  ---------------
    32      3.009869  1 C  dxz               11      2.913044  1 C  px         
    56     -1.743075  2 N  px                77      1.351153  2 N  dxz        
    60     -0.977502  2 N  px                 7     -0.645566  1 C  px         
   101      0.375561  3 H  px                 3     -0.205736  1 C  px         
    15     -0.167281  1 C  px         

 Vector   28  Occ=0.000000D+00  E= 4.748688D-01
              MO Center=  5.0D-15,  6.0D-14,  5.4D-01, r^2= 6.2D+00
   Bfn.  Coefficient  Atom+Function         Bfn.  Coefficient  Atom+Function  
  ----- ------------  ---------------      ----- ------------  ---------------
    10     18.268186  1 C  s                 55    -14.509727  2 N  s          
    13     11.004808  1 C  pz                59     -9.957181  2 N  s          
    14      9.692281  1 C  s                 58      5.229417  2 N  pz         
    35      5.110559  1 C  dzz               62      4.342441  2 N  pz         
    94     -3.786263  3 H  s                 80     -2.431096  2 N  dzz        

 Vector   29  Occ=0.000000D+00  E= 5.616149D-01
              MO Center=  8.6D-15,  4.8D-15, -6.5D-01, r^2= 5.2D+00
   Bfn.  Coefficient  Atom+Function         Bfn.  Coefficient  Atom+Function  
  ----- ------------  ---------------      ----- ------------  ---------------
    10     12.659844  1 C  s                 93     -7.075453  3 H  s          
    55     -5.561525  2 N  s                 14      4.860304  1 C  s          
    59     -4.768201  2 N  s                103     -2.989277  3 H  pz         
    58      2.244636  2 N  pz                35      1.815188  1 C  dzz        
    92     -1.643313  3 H  s                 94     -0.955255  3 H  s          


 center of mass
 --------------
 x =   0.00000000 y =   0.00000000 z =   0.10855975

 moments of inertia (a.u.)
 ------------------
          39.512041875476           0.000000000000           0.000000000000
           0.000000000000          39.512041875476           0.000000000000
           0.000000000000           0.000000000000           0.000000000000

     Multipole analysis of the density
     ---------------------------------

     L   x y z        total         alpha         beta         nuclear
     -   - - -        -----         -----         ----         -------
     0   0 0 0     -0.000000     -7.000000     -7.000000     14.000000

     1   1 0 0      0.000000      0.000000      0.000000      0.000000
     1   0 1 0     -0.000000     -0.000000     -0.000000      0.000000
     1   0 0 1     -1.205171     -0.599950     -0.599950     -0.005272

     2   2 0 0     -8.983530     -4.491765     -4.491765      0.000000
     2   1 1 0     -0.000000     -0.000000     -0.000000      0.000000
     2   1 0 1      0.000000      0.000000      0.000000      0.000000
     2   0 2 0     -8.983530     -4.491765     -4.491765      0.000000
     2   0 1 1     -0.000000     -0.000000     -0.000000      0.000000
     2   0 0 2     -7.335644    -15.800900    -15.800900     24.266155


 Parallel integral file used     118 records with       0 large values


            General Information
            -------------------
          SCF calculation type: DFT
          Wavefunction type:  closed shell.
          No. of atoms     :     3
          No. of electrons :    14
           Alpha electrons :     7
            Beta electrons :     7
          Charge           :     0
          Spin multiplicity:     1
          Use of symmetry is: off; symmetry adaption is: off
          Maximum number of iterations: ***
          AO basis - number of functions:   109
                     number of shells:    34
          Convergence on energy requested: 1.00D-06
          Convergence on density requested: 1.00D-05
          Convergence on gradient requested: 5.00D-04

              XC Information
              --------------
                  TPSS metaGGA Exchange Functional  1.000          
             TPSS03 metaGGA Correlation Functional  1.000          

             Grid Information
             ----------------
          Grid used for XC integration:  medium    
          Radial quadrature: Mura-Knowles        
          Angular quadrature: Lebedev. 
          Tag              B.-S. Rad. Rad. Pts. Rad. Cut. Ang. Pts.
          ---              ---------- --------- --------- ---------
          C                   0.70       49          10.0       434
          N                   0.65       49          11.0       434
          H                   0.35       45          11.0       434
          Grid pruning is: on 
          Number of quadrature shells:   143
          Spatial weights used:  Erf1

          Convergence Information
          -----------------------
          Convergence aids based upon iterative change in 
          total energy or number of iterations. 
          Levelshifting, if invoked, occurs when the 
          HOMO/LUMO gap drops below (HL_TOL): 1.00D-02
          DIIS, if invoked, will attempt to extrapolate 
          using up to (NFOCK): 10 stored Fock matrices.

                    Damping( 0%)  Levelshifting(0.5)       DIIS
                  --------------- ------------------- ---------------
          dE  on:    start            ASAP                start   
          dE off:    2 iters        *** iters           *** iters 


      Screening Tolerance Information
      -------------------------------
          Density screening/tol_rho: 1.00D-10
          AO Gaussian exp screening on grid/accAOfunc:  14
          CD Gaussian exp screening on grid/accCDfunc:  20
          XC Gaussian exp screening on grid/accXCfunc:  20
          Schwarz screening/accCoul: 1.00D-08



                            NWChem DFT Gradient Module
                            --------------------------



  charge          =   0.00
  wavefunction    = closed shell



                         DFT ENERGY GRADIENTS

    atom               coordinates                        gradient
                 x          y          z           x          y          z
   1 C       0.000000   0.000000  -0.925731    0.000000   0.000000   0.037648
   2 N       0.000000   0.000000   1.215915   -0.000000  -0.000000  -0.031208
   3 H       0.000000   0.000000  -2.962287    0.000000   0.000000  -0.006440

                 ----------------------------------------
                 |  Time  |  1-e(secs)   |  2-e(secs)   |
                 ----------------------------------------
                 |  CPU   |       0.00   |       0.70   |
                 ----------------------------------------
                 |  WALL  |       0.00   |       0.70   |
                 ----------------------------------------
                               NWChem STEPPER Module
                               ---------------------


   Step sought for minimum. 
  Energy ratio, actual to predicted =   0.384617
   Update Hessian used. 
   Dependent rotation vector no.                    3
   found in ECKART; linear geometry  assumed. 
   Number of modes removed with force (in the spectral representation)
   less than:   0.000000 is:    2
   PARTIT has partitioned the input hessian 
   and gradient into two subspaces;  An 
   "external" hessian and gradient composed 
   of                     5  independent translations 
   and rotations, and an "internal" hessian 
   and gradient with a dimension of                     2
               e-diff         g-norm     g-max   
 value        0.0009113405  0.049323  0.037648
 thres        0.0001000000  0.010000  0.000800
  trust radius =     0.10
   Calculating the Newton-Raphson step. 
  The length (norm) of the STEP is   0.017216

  The lowest few components in the bases 
  generated by the spectral decomposition 
  of the internal hessian (non-zero force). 

  Component  Hessian     Grad      Step   Scaled-Step
  ---------  --------  --------  -------- -----------
       1     0.10D+01  0.19D-05  -.19D-05  -.19D-05
       2     0.29D+01  0.49D-01  -.17D-01  -.17D-01

  Clean-up the step; truncate at:   0.000001
  In cartesian coordinates; norm of this step is:   0.017216
         Walk statistics for step:   2
     Previous actual total energy:  -0.934566376691D+02
      Current actual total energy:  -0.934557263287D+02
         Actual energy difference:   0.911340495122D-03 threshold:         0.100000D-03
    Second order energy predicted:  -0.350517083249D-03
             Ratio of differences:   0.384617039542D+00
               Fixed trust radius:   0.100000000000D+00
   Number of negative eigenvalues:   0
   Max absolute value of Gradient:   0.376479733270D-01 threshold:         0.800000D-03
                    Gradient norm:   0.493230523329D-01 threshold:         0.100000D-01
                RMS Gradient norm:   0.284766775416D-01
  Largest component of step v-tor:   0.172160000000D-01
  New 2nd order energy prediction:  -0.424561132436D-03



  ------------------- New geometry -------------------


                         Geometry "g-2-step" -> "g-2-step"
                         ---------------------------------

 Output coordinates in angstroms (scale by  1.889725989 to convert to a.u.)

  No.       Tag          Charge          X              Y              Z
 ---- ---------------- ---------- -------------- -------------- --------------
    1 C                    6.0000     0.00000000     0.00000000    -0.49682988
    2 N                    7.0000     0.00000000     0.00000000     0.64919821
    3 H                    1.0000     0.00000000     0.00000000    -1.56638475

      Atomic Mass 
      ----------- 

      C                 12.000000
      N                 14.003070
      H                  1.007825


 Effective nuclear repulsion energy (a.u.)      24.0339427023

            Nuclear Dipole moment (a.u.) 
            ----------------------------
        X                 Y               Z
 ---------------- ---------------- ----------------
     0.0000000000     0.0000000000    -0.0056250000

 ==============================================================================
                                internuclear distances
 ------------------------------------------------------------------------------
       center one      |      center two      | atomic units |  angstroms
 ------------------------------------------------------------------------------
    2 N                |   1 C                |     2.16568  |     1.14603
    3 H                |   1 C                |     2.02117  |     1.06955
 ------------------------------------------------------------------------------
                         number of included internuclear distances:          2
 ==============================================================================



 ==============================================================================
                                 internuclear angles
 ------------------------------------------------------------------------------
        center 1       |       center 2       |       center 3       |  degrees
 ------------------------------------------------------------------------------
    2 N                |   1 C                |   3 H                |   180.00
 ------------------------------------------------------------------------------
                            number of included internuclear angles:          1
 ==============================================================================




                                 NWChem DFT Module
                                 -----------------




 Summary of "ao basis" -> "ao basis" (cartesian)
 ------------------------------------------------------------------------------
       Tag                 Description            Shells   Functions and Types
 ---------------- ------------------------------  ------  ---------------------
 C                     6-311++G(3df,3pd)            13       45   5s4p3d1f
 N                     6-311++G(3df,3pd)            13       45   5s4p3d1f
 H                     6-311++G(3df,3pd)             8       19   4s3p1d


  Caching 1-el integrals 

            General Information
            -------------------
          SCF calculation type: DFT
          Wavefunction type:  closed shell.
          No. of atoms     :     3
          No. of electrons :    14
           Alpha electrons :     7
            Beta electrons :     7
          Charge           :     0
          Spin multiplicity:     1
          Use of symmetry is: off; symmetry adaption is: off
          Maximum number of iterations: ***
          AO basis - number of functions:   109
                     number of shells:    34
          Convergence on energy requested: 1.00D-06
          Convergence on density requested: 1.00D-05
          Convergence on gradient requested: 5.00D-04

              XC Information
              --------------
                  TPSS metaGGA Exchange Functional  1.000          
             TPSS03 metaGGA Correlation Functional  1.000          

             Grid Information
             ----------------
          Grid used for XC integration:  medium    
          Radial quadrature: Mura-Knowles        
          Angular quadrature: Lebedev. 
          Tag              B.-S. Rad. Rad. Pts. Rad. Cut. Ang. Pts.
          ---              ---------- --------- --------- ---------
          C                   0.70       49          10.0       434
          N                   0.65       49          11.0       434
          H                   0.35       45          11.0       434
          Grid pruning is: on 
          Number of quadrature shells:   143
          Spatial weights used:  Erf1

          Convergence Information
          -----------------------
          Convergence aids based upon iterative change in 
          total energy or number of iterations. 
          Levelshifting, if invoked, occurs when the 
          HOMO/LUMO gap drops below (HL_TOL): 1.00D-02
          DIIS, if invoked, will attempt to extrapolate 
          using up to (NFOCK): 10 stored Fock matrices.

                    Damping( 0%)  Levelshifting(0.5)       DIIS
                  --------------- ------------------- ---------------
          dE  on:    start            ASAP                start   
          dE off:    2 iters        *** iters           *** iters 


      Screening Tolerance Information
      -------------------------------
          Density screening/tol_rho: 1.00D-10
          AO Gaussian exp screening on grid/accAOfunc:  14
          CD Gaussian exp screening on grid/accCDfunc:  20
          XC Gaussian exp screening on grid/accXCfunc:  20
          Schwarz screening/accCoul: 1.00D-08


 Loading old vectors from job with title :



   Time after variat. SCF:      5.7
   Time prior to 1st pass:      5.7

 Integral file          = ./HCN.xyz.aoints.00
 Record size in doubles =    65536    No. of integs per rec  =    43688
 Max. records in memory =       36    Max. records in file   = 11665915
 No. of bits per label  =        8    No. of bits per value  =       64


 #quartets = 1.748D+05 #integrals = 4.821D+06 #direct =  0.0% #cached =100.0%


File balance: exchanges=     0  moved=     0  time=   0.0


 Grid_pts file          = ./HCN.xyz.gridpts.00
 Record size in doubles =  12289        No. of grid_pts per rec  =   3070
 Max. records in memory =      3        Max. recs in file   =  62213157


           Memory utilization after 1st SCF pass: 
           Heap Space remaining (MW):       10.71            10707780
          Stack Space remaining (MW):       13.11            13106516

   convergence    iter        energy       DeltaE   RMS-Dens  Diis-err    time
 ---------------- ----- ----------------- --------- --------- ---------  ------
 d= 0,ls=0.0,diis     1    -93.4568867330 -1.17D+02  2.44D-03  3.74D-03     6.1
[...]
              MO Center=  1.5D-14,  8.3D-16,  7.9D-01, r^2= 1.0D+01
   Bfn.  Coefficient  Atom+Function         Bfn.  Coefficient  Atom+Function  
  ----- ------------  ---------------      ----- ------------  ---------------
    17      4.797481  1 C  pz                94      4.700681  3 H  s          
    59     -3.751026  2 N  s                 14     -2.538111  1 C  s          
    62     -2.110603  2 N  pz                10     -1.933735  1 C  s          
    55      1.417890  2 N  s                 13     -1.082958  1 C  pz         
    93      0.895018  3 H  s                 80      0.574131  2 N  dzz        

 Vector   19  Occ=0.000000D+00  E= 1.964059D-01
              MO Center= -3.1D-15, -3.3D-14, -4.9D-01, r^2= 1.0D+01
   Bfn.  Coefficient  Atom+Function         Bfn.  Coefficient  Atom+Function  
  ----- ------------  ---------------      ----- ------------  ---------------
    14     13.013852  1 C  s                 59     -9.678693  2 N  s          
    10      8.214172  1 C  s                 93     -6.142722  3 H  s          
    94     -4.887447  3 H  s                 62      3.798650  2 N  pz         
    55     -3.659899  2 N  s                 35      2.832092  1 C  dzz        
    17     -2.348650  1 C  pz                58      1.447591  2 N  pz         

 Vector   20  Occ=0.000000D+00  E= 2.391953D-01
              MO Center=  1.6D-15, -7.6D-15, -3.7D-01, r^2= 3.0D+00
   Bfn.  Coefficient  Atom+Function         Bfn.  Coefficient  Atom+Function  
  ----- ------------  ---------------      ----- ------------  ---------------
    31      1.536264  1 C  dxy               76      0.233167  2 N  dxy        

 Vector   21  Occ=0.000000D+00  E= 2.391961D-01
              MO Center=  1.2D-16, -1.2D-15, -3.7D-01, r^2= 3.0D+00
   Bfn.  Coefficient  Atom+Function         Bfn.  Coefficient  Atom+Function  
  ----- ------------  ---------------      ----- ------------  ---------------
    30      0.768131  1 C  dxx               33     -0.768131  1 C  dyy        

 Vector   22  Occ=0.000000D+00  E= 3.078494D-01
              MO Center=  3.5D-14,  6.3D-15, -3.0D-01, r^2= 1.0D+01
   Bfn.  Coefficient  Atom+Function         Bfn.  Coefficient  Atom+Function  
  ----- ------------  ---------------      ----- ------------  ---------------
    93     10.938668  3 H  s                 59     -8.851815  2 N  s          
    17      5.890201  1 C  pz                13      4.185593  1 C  pz         
    10     -4.162744  1 C  s                 94      3.319005  3 H  s          
    35     -2.100672  1 C  dzz              103      1.818011  3 H  pz         
    92      1.567730  3 H  s                 14     -1.323399  1 C  s          

 Vector   23  Occ=0.000000D+00  E= 3.218740D-01
              MO Center= -1.2D-15, -1.0D-14, -1.1D+00, r^2= 3.8D+00
   Bfn.  Coefficient  Atom+Function         Bfn.  Coefficient  Atom+Function  
  ----- ------------  ---------------      ----- ------------  ---------------
   102      0.999713  3 H  py                34     -0.815760  1 C  dyz        
    16     -0.803272  1 C  py                61      0.609069  2 N  py         
    12     -0.578956  1 C  py                57      0.529055  2 N  py         
     8     -0.282638  1 C  py                79      0.174656  2 N  dyz        

 Vector   24  Occ=0.000000D+00  E= 3.218740D-01
              MO Center= -3.1D-14,  3.2D-15, -1.1D+00, r^2= 3.8D+00
   Bfn.  Coefficient  Atom+Function         Bfn.  Coefficient  Atom+Function  
  ----- ------------  ---------------      ----- ------------  ---------------
   101      0.999713  3 H  px                32     -0.815760  1 C  dxz        
    15     -0.803272  1 C  px                60      0.609069  2 N  px         
    11     -0.578956  1 C  px                56      0.529055  2 N  px         
     7     -0.282638  1 C  px                77      0.174656  2 N  dxz        

 Vector   25  Occ=0.000000D+00  E= 4.209798D-01
              MO Center= -2.1D-14,  1.2D-15, -1.6D+00, r^2= 6.6D+00
   Bfn.  Coefficient  Atom+Function         Bfn.  Coefficient  Atom+Function  
  ----- ------------  ---------------      ----- ------------  ---------------
    55     -6.710168  2 N  s                 13      6.442197  1 C  pz         
    10      6.270315  1 C  s                 93      4.668266  3 H  s          
    14      4.242411  1 C  s                 94     -3.840971  3 H  s          
    58      3.549659  2 N  pz                30     -2.890006  1 C  dxx        
    33     -2.890006  1 C  dyy               35     -1.600722  1 C  dzz        

 Vector   26  Occ=0.000000D+00  E= 4.529845D-01
              MO Center=  3.9D-15,  4.5D-14,  4.4D-02, r^2= 4.4D+00
   Bfn.  Coefficient  Atom+Function         Bfn.  Coefficient  Atom+Function  
  ----- ------------  ---------------      ----- ------------  ---------------
    34      2.916053  1 C  dyz               12      2.845908  1 C  py         
    57     -1.663989  2 N  py                79      1.309506  2 N  dyz        
    61     -0.940037  2 N  py                 8     -0.665729  1 C  py         
   102      0.369540  3 H  py                 4     -0.208160  1 C  py         
    16     -0.189890  1 C  py         

 Vector   27  Occ=0.000000D+00  E= 4.529845D-01
              MO Center=  2.6D-14,  8.1D-15,  4.4D-02, r^2= 4.4D+00
   Bfn.  Coefficient  Atom+Function         Bfn.  Coefficient  Atom+Function  
  ----- ------------  ---------------      ----- ------------  ---------------
    32      2.916053  1 C  dxz               11      2.845908  1 C  px         
    56     -1.663989  2 N  px                77      1.309506  2 N  dxz        
    60     -0.940037  2 N  px                 7     -0.665729  1 C  px         
   101      0.369540  3 H  px                 3     -0.208160  1 C  px         
    15     -0.189890  1 C  px         

 Vector   28  Occ=0.000000D+00  E= 4.739004D-01
              MO Center= -8.3D-15, -2.4D-14,  5.7D-01, r^2= 6.1D+00
   Bfn.  Coefficient  Atom+Function         Bfn.  Coefficient  Atom+Function  
  ----- ------------  ---------------      ----- ------------  ---------------
    10     17.510126  1 C  s                 55    -14.123738  2 N  s          
    13     11.015145  1 C  pz                59     -9.745863  2 N  s          
    14      9.519585  1 C  s                 58      5.240582  2 N  pz         
    35      4.969797  1 C  dzz               62      4.261067  2 N  pz         
    94     -3.771835  3 H  s                 80     -2.463348  2 N  dzz        

 Vector   29  Occ=0.000000D+00  E= 5.563065D-01
              MO Center=  6.9D-15, -2.2D-15, -7.0D-01, r^2= 5.2D+00
   Bfn.  Coefficient  Atom+Function         Bfn.  Coefficient  Atom+Function  
  ----- ------------  ---------------      ----- ------------  ---------------
    10     13.412792  1 C  s                 93     -7.273717  3 H  s          
    55     -6.173947  2 N  s                 14      5.227764  1 C  s          
    59     -5.012690  2 N  s                103     -2.976133  3 H  pz         
    58      2.476649  2 N  pz                35      2.107832  1 C  dzz        
    92     -1.724558  3 H  s                 13      1.305444  1 C  pz         


 center of mass
 --------------
 x =   0.00000000 y =   0.00000000 z =   0.10822474

 moments of inertia (a.u.)
 ------------------
          40.145895891204           0.000000000000           0.000000000000
           0.000000000000          40.145895891204           0.000000000000
           0.000000000000           0.000000000000           0.000000000000

     Multipole analysis of the density
     ---------------------------------

     L   x y z        total         alpha         beta         nuclear
     -   - - -        -----         -----         ----         -------
     0   0 0 0     -0.000000     -7.000000     -7.000000     14.000000

     1   1 0 0     -0.000000     -0.000000     -0.000000      0.000000
     1   0 1 0     -0.000000     -0.000000     -0.000000      0.000000
     1   0 0 1     -1.199408     -0.595471     -0.595471     -0.008466

     2   2 0 0     -9.012224     -4.506112     -4.506112      0.000000
     2   1 1 0     -0.000000     -0.000000     -0.000000      0.000000
     2   1 0 1     -0.000000     -0.000000     -0.000000      0.000000
     2   0 2 0     -9.012224     -4.506112     -4.506112      0.000000
     2   0 1 1     -0.000000     -0.000000     -0.000000      0.000000
     2   0 0 2     -7.347290    -15.960690    -15.960690     24.574090


 Parallel integral file used     118 records with       0 large values


            General Information
            -------------------
          SCF calculation type: DFT
          Wavefunction type:  closed shell.
          No. of atoms     :     3
          No. of electrons :    14
           Alpha electrons :     7
            Beta electrons :     7
          Charge           :     0
          Spin multiplicity:     1
          Use of symmetry is: off; symmetry adaption is: off
          Maximum number of iterations: ***
          AO basis - number of functions:   109
                     number of shells:    34
          Convergence on energy requested: 1.00D-06
          Convergence on density requested: 1.00D-05
          Convergence on gradient requested: 5.00D-04

              XC Information
              --------------
                  TPSS metaGGA Exchange Functional  1.000          
             TPSS03 metaGGA Correlation Functional  1.000          

             Grid Information
             ----------------
          Grid used for XC integration:  medium    
          Radial quadrature: Mura-Knowles        
          Angular quadrature: Lebedev. 
          Tag              B.-S. Rad. Rad. Pts. Rad. Cut. Ang. Pts.
          ---              ---------- --------- --------- ---------
          C                   0.70       49          10.0       434
          N                   0.65       49          11.0       434
          H                   0.35       45          11.0       434
          Grid pruning is: on 
          Number of quadrature shells:   143
          Spatial weights used:  Erf1

          Convergence Information
          -----------------------
          Convergence aids based upon iterative change in 
          total energy or number of iterations. 
          Levelshifting, if invoked, occurs when the 
          HOMO/LUMO gap drops below (HL_TOL): 1.00D-02
          DIIS, if invoked, will attempt to extrapolate 
          using up to (NFOCK): 10 stored Fock matrices.

                    Damping( 0%)  Levelshifting(0.5)       DIIS
                  --------------- ------------------- ---------------
          dE  on:    start            ASAP                start   
          dE off:    2 iters        *** iters           *** iters 


      Screening Tolerance Information
      -------------------------------
          Density screening/tol_rho: 1.00D-10
          AO Gaussian exp screening on grid/accAOfunc:  14
          CD Gaussian exp screening on grid/accCDfunc:  20
          XC Gaussian exp screening on grid/accXCfunc:  20
          Schwarz screening/accCoul: 1.00D-08



                            NWChem DFT Gradient Module
                            --------------------------



  charge          =   0.00
  wavefunction    = closed shell



                         DFT ENERGY GRADIENTS

    atom               coordinates                        gradient
                 x          y          z           x          y          z
   1 C       0.000000   0.000000  -0.938828    0.000000   0.000000   0.000057
   2 N       0.000000   0.000000   1.226297   -0.000000  -0.000000   0.000190
   3 H       0.000000   0.000000  -2.959573    0.000000   0.000000  -0.000247

                 ----------------------------------------
                 |  Time  |  1-e(secs)   |  2-e(secs)   |
                 ----------------------------------------
                 |  CPU   |       0.00   |       0.70   |
                 ----------------------------------------
                 |  WALL  |       0.00   |       0.70   |
                 ----------------------------------------
                               NWChem STEPPER Module
                               ---------------------


   Step sought for minimum. 
   Actual energy difference is :    8.2825101088701558E-006
   2nd order predicted energy difference  was :   -3.2957252337660112E-007
   One of these is below the energy  tolerance:    1.0000000000000000E-004
   Backstepping possibilities are NO 
   longer considered appropriate. 
   Update Hessian used. 
   Dependent rotation vector no.                    3
   found in ECKART; linear geometry  assumed. 
   Number of modes removed with force (in the spectral representation)
   less than:   0.000000 is:    2
   PARTIT has partitioned the input hessian 
   and gradient into two subspaces;  An 
   "external" hessian and gradient composed 
   of                     5  independent translations 
   and rotations, and an "internal" hessian 
   and gradient with a dimension of                     2
               e-diff         g-norm     g-max   
 value        0.0000082825  0.000317  0.000247
 thres        0.0001000000  0.010000  0.000800
   ENERGY =   -93.456537007318261     
   The hessian exhibits the "proper" 
   structure, and the gradient and energy 
   convergence criterion has been met.  
   This geometry walk is HISTORY.
   Calculating the Newton-Raphson step. 
  The length (norm) of the STEP is   0.000528

  The lowest few components in the bases 
  generated by the spectral decomposition 
  of the internal hessian (non-zero force). 

  Component  Hessian     Grad      Step   Scaled-Step
  ---------  --------  --------  -------- -----------
       1     0.60D+00  0.32D-03  -.53D-03  -.53D-03
       2     0.33D+01  -.20D-04  0.59D-05  0.59D-05

  Clean-up the step; truncate at:   0.000001
  In cartesian coordinates; norm of this step is:   0.000529



  ---------------- Converged geometry ----------------


                         Geometry "g-4-step" -> "g-4-step"
                         ---------------------------------

 Output coordinates in angstroms (scale by  1.889725989 to convert to a.u.)

  No.       Tag          Charge          X              Y              Z
 ---- ---------------- ---------- -------------- -------------- --------------
    1 C                    6.0000     0.00000000     0.00000000    -0.49680660
    2 N                    7.0000     0.00000000     0.00000000     0.64892832
    3 H                    1.0000     0.00000000     0.00000000    -1.56613868

      Atomic Mass 
      ----------- 

      C                 12.000000
      N                 14.003070
      H                  1.007825


 Effective nuclear repulsion energy (a.u.)      24.0399128929

            Nuclear Dipole moment (a.u.) 
            ----------------------------
        X                 Y               Z
 ---------------- ---------------- ----------------
     0.0000000000     0.0000000000    -0.0084660000

 ==============================================================================
                                internuclear distances
 ------------------------------------------------------------------------------
       center one      |      center two      | atomic units |  angstroms
 ------------------------------------------------------------------------------
    2 N                |   1 C                |     2.16513  |     1.14573
    3 H                |   1 C                |     2.02074  |     1.06933
 ------------------------------------------------------------------------------
                         number of included internuclear distances:          2
 ==============================================================================



 ==============================================================================
                                 internuclear angles
 ------------------------------------------------------------------------------
        center 1       |       center 2       |       center 3       |  degrees
 ------------------------------------------------------------------------------
    2 N                |   1 C                |   3 H                |   180.00
 ------------------------------------------------------------------------------
                            number of included internuclear angles:          1
 ==============================================================================




 Task  times  cpu:       10.4s     wall:       13.0s


                                NWChem Input Module
                                -------------------


 Summary of allocated global arrays
-----------------------------------
  No active global arrays



                         GA Statistics for process    0
                         ------------------------------

       create   destroy   get      put      acc     scatter   gather  read&inc
calls:  591      591     1.34e+05 4085     1175        0        0      284     
number of processes/call 1.15e+00 2.19e+00 4.19e+00 0.00e+00 0.00e+00
bytes total:             1.01e+08 1.48e+07 4.34e+07 0.00e+00 0.00e+00 2.27e+03
bytes remote:            7.90e+07 7.76e+06 3.60e+07 0.00e+00 0.00e+00 0.00e+00
Max memory consumed for GA by this process: 583200 bytes

MA_summarize_allocated_blocks: starting scan ...
MA_summarize_allocated_blocks: scan completed: 0 heap blocks, 0 stack blocks
MA usage statistics:

	allocation statistics:
					      heap	     stack
					      ----	     -----
	current number of blocks	         0	         0
	maximum number of blocks	        23	        51
	current total bytes		         0	         0
	maximum total bytes		  19195216	  42350568
	maximum total K-bytes		     19196	     42351
	maximum total M-bytes		        20	        43


                                     CITATION
                                     --------
                Please cite the following reference when publishing
                           results obtained with NWChem:

                 M. Valiev, E.J. Bylaska, N. Govind, K. Kowalski,
              T.P. Straatsma, H.J.J. van Dam, D. Wang, J. Nieplocha,
                        E. Apra, T.L. Windus, W.A. de Jong
                 "NWChem: a comprehensive and scalable open-source
                  solution for large scale molecular simulations"
                      Comput. Phys. Commun. 181, 1477 (2010)
                           doi:10.1016/j.cpc.2010.04.018

                                      AUTHORS
                                      -------
          E. Apra, E. J. Bylaska, W. A. de Jong, N. Govind, K. Kowalski,
       T. P. Straatsma, M. Valiev, H. J. J. van Dam, D. Wang, T. L. Windus,
        J. Hammond, J. Autschbach, K. Bhaskaran-Nair, J. Brabec, K. Lopata,
       S. A. Fischer, S. Krishnamoorthy, W. Ma, M. Klemm, O. Villa, Y. Chen,
    V. Anisimov, F. Aquino, S. Hirata, M. T. Hackler, T. Risthaus, M. Malagoli,
       A. Marenich, A. Otero-de-la-Roza, J. Mullin, P. Nichols, R. Peverati,
     J. Pittner, Y. Zhao, P.-D. Fan, A. Fonari, M. Williamson, R. J. Harrison,
       J. R. Rehr, M. Dupuis, D. Silverstein, D. M. A. Smith, J. Nieplocha,
        V. Tipparaju, M. Krishnan, B. E. Van Kuiken, A. Vazquez-Mayagoitia,
        L. Jensen, M. Swart, Q. Wu, T. Van Voorhis, A. A. Auer, M. Nooijen,
      L. D. Crosby, E. Brown, G. Cisneros, G. I. Fann, H. Fruchtl, J. Garza,
        K. Hirao, R. A. Kendall, J. A. Nichols, K. Tsemekhman, K. Wolinski,
     J. Anchell, D. E. Bernholdt, P. Borowski, T. Clark, D. Clerc, H. Dachsel,
   M. J. O. Deegan, K. Dyall, D. Elwood, E. Glendening, M. Gutowski, A. C. Hess,
         J. Jaffe, B. G. Johnson, J. Ju, R. Kobayashi, R. Kutteh, Z. Lin,
   R. Littlefield, X. Long, B. Meng, T. Nakajima, S. Niu, L. Pollack, M. Rosing,
   K. Glaesemann, G. Sandrone, M. Stave, H. Taylor, G. Thomas, J. H. van Lenthe,
                               A. T. Wong, Z. Zhang.

 Total times  cpu:       10.4s     wall:       13.2s
