[1537857303.682251] [r8n4:12165:0]         sys.c:744  MXM  WARN  Conflicting CPU frequencies detected, using: 1597.87
[1537857303.692149] [r8n4:12166:0]         sys.c:744  MXM  WARN  Conflicting CPU frequencies detected, using: 1698.50
[1537857303.693167] [r8n4:12167:0]         sys.c:744  MXM  WARN  Conflicting CPU frequencies detected, using: 1698.50
[1537857303.693719] [r8n4:12169:0]         sys.c:744  MXM  WARN  Conflicting CPU frequencies detected, using: 1698.50
[1537857303.693765] [r8n4:12168:0]         sys.c:744  MXM  WARN  Conflicting CPU frequencies detected, using: 1698.50
[1537857303.693819] [r8n4:12173:0]         sys.c:744  MXM  WARN  Conflicting CPU frequencies detected, using: 1698.50
[1537857303.693915] [r8n4:12170:0]         sys.c:744  MXM  WARN  Conflicting CPU frequencies detected, using: 1698.50
[1537857303.693944] [r8n4:12171:0]         sys.c:744  MXM  WARN  Conflicting CPU frequencies detected, using: 1698.50
[1537857303.700783] [r8n4:12175:0]         sys.c:744  MXM  WARN  Conflicting CPU frequencies detected, using: 1796.34
[1537857303.701312] [r8n4:12177:0]         sys.c:744  MXM  WARN  Conflicting CPU frequencies detected, using: 1796.34
[1537857303.732604] [r8n4:12179:0]         sys.c:744  MXM  WARN  Conflicting CPU frequencies detected, using: 2096.68
[1537857303.732604] [r8n4:12189:0]         sys.c:744  MXM  WARN  Conflicting CPU frequencies detected, using: 2096.68
[1537857303.732604] [r8n4:12187:0]         sys.c:744  MXM  WARN  Conflicting CPU frequencies detected, using: 2096.68
[1537857303.733071] [r8n4:12181:0]         sys.c:744  MXM  WARN  Conflicting CPU frequencies detected, using: 2096.68
[1537857303.733248] [r8n4:12185:0]         sys.c:744  MXM  WARN  Conflicting CPU frequencies detected, using: 2096.68
[1537857303.733272] [r8n4:12183:0]         sys.c:744  MXM  WARN  Conflicting CPU frequencies detected, using: 2096.68
 argument  1 = /storage/home/bikashp/nwchem_run/rabeet/mgbl19/nwmgbl19/HF.xyz.nw
                                         
                                         


              Northwest Computational Chemistry Package (NWChem) 6.6
              ------------------------------------------------------


                    Environmental Molecular Sciences Laboratory
                       Pacific Northwest National Laboratory
                                Richland, WA 99352

                              Copyright (c) 1994-2015
                       Pacific Northwest National Laboratory
                            Battelle Memorial Institute

             NWChem is an open-source computational chemistry package
                        distributed under the terms of the
                      Educational Community License (ECL) 2.0
             A copy of the license is included with this distribution
                              in the LICENSE.TXT file

                                  ACKNOWLEDGMENT
                                  --------------

            This software and its documentation were developed at the
            EMSL at Pacific Northwest National Laboratory, a multiprogram
            national laboratory, operated for the U.S. Department of Energy
            by Battelle under Contract Number DE-AC05-76RL01830. Support
            for this work was provided by the Department of Energy Office
            of Biological and Environmental Research, Office of Basic
            Energy Sciences, and the Office of Advanced Scientific Computing.


           Job information
           ---------------

    hostname        = r8n4.niserhpc.org
    program         = /home/bikashp/Code/nwchem-6.6_tpssloc/bin/LINUX64/nwchem
    date            = Tue Sep 25 12:05:07 2018

    compiled        = Tue_Sep_18_16:24:59_2018
    source          = /home/bikashp/Code/nwchem-6.6_tpssloc
    nwchem branch   = 6.6
    nwchem revision = 27746
    ga revision     = 10594
    input           = /storage/home/bikashp/nwchem_run/rabeet/mgbl19/nwmgbl19/HF.xyz.nw
    prefix          = HF.xyz.
    data base       = ./HF.xyz.db
    status          = startup
    nproc           =       16
    time left       =     -1s



           Memory information
           ------------------

    heap     =   13107196 doubles =    100.0 Mbytes
    stack    =   13107201 doubles =    100.0 Mbytes
    global   =   26214400 doubles =    200.0 Mbytes (distinct from heap & stack)
    total    =   52428797 doubles =    400.0 Mbytes
    verify   = yes
    hardfail = no 


           Directory information
           ---------------------

  0 permanent = .
  0 scratch   = .




                                NWChem Input Module
                                -------------------



 Scaling coordinates for geometry "geometry" by  1.889725989
 (inverse scale =  0.529177249)



                             Geometry "geometry" -> ""
                             -------------------------

 Output coordinates in angstroms (scale by  1.889725989 to convert to a.u.)

  No.       Tag          Charge          X              Y              Z
 ---- ---------------- ---------- -------------- -------------- --------------
    1 F                    9.0000     0.00000000     0.00000000    -0.09153800
    2 H                    1.0000     0.00000000     0.00000000     0.82384200

      Atomic Mass 
      ----------- 

      F                 18.998400
      H                  1.007825


 Effective nuclear repulsion energy (a.u.)       5.2028613701

            Nuclear Dipole moment (a.u.) 
            ----------------------------
        X                 Y               Z
 ---------------- ---------------- ----------------
     0.0000000000     0.0000000000     0.0000000000


            XYZ format geometry
            -------------------
     2
 geometry
 F                     0.00000000     0.00000000    -0.09153800
 H                     0.00000000     0.00000000     0.82384200

 ==============================================================================
                                internuclear distances
 ------------------------------------------------------------------------------
       center one      |      center two      | atomic units |  angstroms
 ------------------------------------------------------------------------------
    2 H                |   1 F                |     1.72982  |     0.91538
 ------------------------------------------------------------------------------
                         number of included internuclear distances:          1
 ==============================================================================





 Summary of "ao basis" -> "" (cartesian)
 ------------------------------------------------------------------------------
       Tag                 Description            Shells   Functions and Types
 ---------------- ------------------------------  ------  ---------------------
 *                     6-311++G(3df,3pd)              on all atoms 




                           NWChem Geometry Optimization
                           ----------------------------



                                 NWChem DFT Module
                                 -----------------


                      Basis "ao basis" -> "ao basis" (cartesian)
                      -----
  F (Fluorine)
  ------------
            Exponent  Coefficients 
       -------------- ---------------------------------------------------------
  1 S  1.14271000E+04  0.001801
  1 S  1.72235000E+03  0.013742
  1 S  3.95746000E+02  0.068133
  1 S  1.15139000E+02  0.233325
  1 S  3.36026000E+01  0.589086
  1 S  4.91901000E+00  0.299505

  2 S  5.54441000E+01  0.114536
  2 S  1.26323000E+01  0.920512
  2 S  3.71756000E+00 -0.003378

  3 P  5.54441000E+01  0.035461
  3 P  1.26323000E+01  0.237451
  3 P  3.71756000E+00  0.820458

  4 S  1.16545000E+00  1.000000

  5 P  1.16545000E+00  1.000000

  6 S  3.21892000E-01  1.000000

  7 P  3.21892000E-01  1.000000

  8 S  1.07600000E-01  1.000000

  9 P  1.07600000E-01  1.000000

 10 D  7.00000000E+00  1.000000

 11 D  1.75000000E+00  1.000000

 12 D  4.37500000E-01  1.000000

 13 F  1.85000000E+00  1.000000

  H (Hydrogen)
  ------------
            Exponent  Coefficients 
       -------------- ---------------------------------------------------------
  1 S  3.38650000E+01  0.025494
  1 S  5.09479000E+00  0.190373
  1 S  1.15879000E+00  0.852161

  2 S  3.25840000E-01  1.000000

  3 S  1.02741000E-01  1.000000

  4 S  3.60000000E-02  1.000000

  5 P  3.00000000E+00  1.000000

  6 P  7.50000000E-01  1.000000

  7 P  1.87500000E-01  1.000000

  8 D  1.00000000E+00  1.000000



 Summary of "ao basis" -> "ao basis" (cartesian)
 ------------------------------------------------------------------------------
       Tag                 Description            Shells   Functions and Types
 ---------------- ------------------------------  ------  ---------------------
 F                     6-311++G(3df,3pd)            13       45   5s4p3d1f
 H                     6-311++G(3df,3pd)             8       19   4s3p1d




 Summary of "ao basis" -> "ao basis" (cartesian)
 ------------------------------------------------------------------------------
       Tag                 Description            Shells   Functions and Types
 ---------------- ------------------------------  ------  ---------------------
 F                     6-311++G(3df,3pd)            13       45   5s4p3d1f
 H                     6-311++G(3df,3pd)             8       19   4s3p1d


  Caching 1-el integrals 

            General Information
            -------------------
          SCF calculation type: DFT
          Wavefunction type:  closed shell.
          No. of atoms     :     2
          No. of electrons :    10
           Alpha electrons :     5
            Beta electrons :     5
          Charge           :     0
          Spin multiplicity:     1
          Use of symmetry is: off; symmetry adaption is: off
          Maximum number of iterations: ***
          AO basis - number of functions:    64
                     number of shells:    21
          Convergence on energy requested: 1.00D-06
          Convergence on density requested: 1.00D-05
          Convergence on gradient requested: 5.00D-04

              XC Information
              --------------
                  TPSS metaGGA Exchange Functional  1.000          
             TPSS03 metaGGA Correlation Functional  1.000          

             Grid Information
             ----------------
          Grid used for XC integration:  medium    
          Radial quadrature: Mura-Knowles        
          Angular quadrature: Lebedev. 
          Tag              B.-S. Rad. Rad. Pts. Rad. Cut. Ang. Pts.
          ---              ---------- --------- --------- ---------
          F                   0.50       49           8.0       434
          H                   0.35       45           8.0       434
          Grid pruning is: on 
          Number of quadrature shells:    94
          Spatial weights used:  Erf1

          Convergence Information
          -----------------------
          Convergence aids based upon iterative change in 
          total energy or number of iterations. 
          Levelshifting, if invoked, occurs when the 
          HOMO/LUMO gap drops below (HL_TOL): 1.00D-02
          DIIS, if invoked, will attempt to extrapolate 
          using up to (NFOCK): 10 stored Fock matrices.

                    Damping( 0%)  Levelshifting(0.5)       DIIS
                  --------------- ------------------- ---------------
          dE  on:    start            ASAP                start   
          dE off:    2 iters        *** iters           *** iters 


      Screening Tolerance Information
      -------------------------------
          Density screening/tol_rho: 1.00D-10
          AO Gaussian exp screening on grid/accAOfunc:  14
          CD Gaussian exp screening on grid/accCDfunc:  20
          XC Gaussian exp screening on grid/accXCfunc:  20
          Schwarz screening/accCoul: 1.00D-08


      Superposition of Atomic Density Guess
      -------------------------------------

 Sum of atomic energies:         -99.90769150

      Non-variational initial energy
      ------------------------------

 Total energy =     -99.892192
 1-e energy   =    -149.588336
 2-e energy   =      44.493283
 HOMO         =      -0.654131
 LUMO         =       0.025623

   Time after variat. SCF:      0.3
   Time prior to 1st pass:      0.3

 #quartets = 2.680D+04 #integrals = 5.635D+05 #direct =  0.0% #cached =100.0%


 Integral file          = ./HF.xyz.aoints.00
 Record size in doubles =    65536    No. of integs per rec  =    43688
 Max. records in memory =        6    Max. records in file   = 11666303
 No. of bits per label  =        8    No. of bits per value  =       64


File balance: exchanges=     0  moved=     0  time=   0.0


 Grid_pts file          = ./HF.xyz.gridpts.00
 Record size in doubles =  12289        No. of grid_pts per rec  =   3070
 Max. records in memory =      2        Max. recs in file   =  62215224


           Memory utilization after 1st SCF pass: 
           Heap Space remaining (MW):       12.69            12686796
          Stack Space remaining (MW):       13.11            13106756

   convergence    iter        energy       DeltaE   RMS-Dens  Diis-err    time
 ---------------- ----- ----------------- --------- --------- ---------  ------
 d= 0,ls=0.0,diis     1   -100.4604432606 -1.06D+02  1.46D-02  7.93D-01     0.6
 d= 0,ls=0.0,diis     2   -100.3672439102  9.32D-02  6.22D-03  1.45D+00     0.6
 d= 0,ls=0.0,diis     3   -100.4906292641 -1.23D-01  8.78D-04  3.85D-02     0.7
 d= 0,ls=0.0,diis     4   -100.4872832235  3.35D-03  2.44D-04  9.12D-04     0.7
 d= 0,ls=0.0,diis     5   -100.4873172096 -3.40D-05  4.56D-05  3.33D-05     0.7
  Resetting Diis
 d= 0,ls=0.0,diis     6   -100.4872256491  9.16D-05  8.58D-06  5.05D-06     0.8
 d= 0,ls=0.0,diis     7   -100.4872792099 -5.36D-05  1.37D-06  1.26D-08     0.8
 d= 0,ls=0.0,diis     8   -100.4872802855 -1.08D-06  3.14D-07  9.90D-10     0.9
 d= 0,ls=0.0,diis     9   -100.4872804147 -1.29D-07  8.88D-08  6.18D-11     0.9


         Total DFT energy =     -100.487280414659
      One electron energy =     -150.137097127909
           Coulomb energy =       55.224175684182
          Exchange energy =      -10.431805991511
       Correlation energy =       -0.345414349560
 Nuclear repulsion energy =        5.202861370138

 Numeric. integr. density =       10.000001769657

     Total iterative time =      0.6s



                       DFT Final Molecular Orbital Analysis
                       ------------------------------------

 Vector    1  Occ=2.000000D+00  E=-2.448492D+01
              MO Center=  6.0D-17,  8.1D-17, -9.1D-02, r^2= 1.2D-02
   Bfn.  Coefficient  Atom+Function         Bfn.  Coefficient  Atom+Function  
  ----- ------------  ---------------      ----- ------------  ---------------
     1      0.547286  1 F  s                  2      0.472728  1 F  s          

 Vector    2  Occ=2.000000D+00  E=-1.191301D+00
              MO Center= -2.1D-15, -1.7D-15,  5.6D-02, r^2= 3.8D-01
   Bfn.  Coefficient  Atom+Function         Bfn.  Coefficient  Atom+Function  
  ----- ------------  ---------------      ----- ------------  ---------------
    10      0.737059  1 F  s                  6      0.597013  1 F  s          
     2     -0.220691  1 F  s          

 Vector    3  Occ=2.000000D+00  E=-5.702247D-01
              MO Center=  8.2D-16,  1.1D-15, -3.1D-02, r^2= 5.9D-01
   Bfn.  Coefficient  Atom+Function         Bfn.  Coefficient  Atom+Function  
  ----- ------------  ---------------      ----- ------------  ---------------
    10      0.394329  1 F  s                  9     -0.354300  1 F  pz         
    13     -0.330911  1 F  pz                 5     -0.275554  1 F  pz         
    46     -0.168796  2 H  s                  6      0.150023  1 F  s          

 Vector    4  Occ=2.000000D+00  E=-4.349650D-01
              MO Center= -8.1D-17, -1.2D-15, -6.2D-02, r^2= 5.0D-01
   Bfn.  Coefficient  Atom+Function         Bfn.  Coefficient  Atom+Function  
  ----- ------------  ---------------      ----- ------------  ---------------
     7      0.372147  1 F  px                11      0.372042  1 F  px         
     3      0.275663  1 F  px                 8     -0.213145  1 F  py         
    12     -0.213085  1 F  py                 4     -0.157884  1 F  py         

 Vector    5  Occ=2.000000D+00  E=-4.349650D-01
              MO Center=  6.2D-16,  1.9D-15, -6.2D-02, r^2= 5.0D-01
   Bfn.  Coefficient  Atom+Function         Bfn.  Coefficient  Atom+Function  
  ----- ------------  ---------------      ----- ------------  ---------------
     8      0.372147  1 F  py                12      0.372042  1 F  py         
     4      0.275663  1 F  py                 7      0.213145  1 F  px         
    11      0.213085  1 F  px                 3      0.157884  1 F  px         

 Vector    6  Occ=0.000000D+00  E=-4.233726D-02
              MO Center= -4.2D-15, -2.2D-15,  1.1D+00, r^2= 3.7D+00
   Bfn.  Coefficient  Atom+Function         Bfn.  Coefficient  Atom+Function  
  ----- ------------  ---------------      ----- ------------  ---------------
    48      0.687698  2 H  s                 49      0.653415  2 H  s          
    14     -0.473681  1 F  s                 10     -0.318680  1 F  s          
    47      0.262075  2 H  s                  6     -0.182007  1 F  s          
    13     -0.177492  1 F  pz                 9     -0.163803  1 F  pz         

 Vector    7  Occ=0.000000D+00  E= 8.802025D-02
              MO Center=  2.7D-14, -8.1D-15,  7.6D-01, r^2= 7.8D+00
   Bfn.  Coefficient  Atom+Function         Bfn.  Coefficient  Atom+Function  
  ----- ------------  ---------------      ----- ------------  ---------------
    48      3.733979  2 H  s                 14     -2.062265  1 F  s          
    49     -1.720436  2 H  s                 17     -0.893020  1 F  pz         
    13     -0.294511  1 F  pz                58     -0.288517  2 H  pz         
    47      0.227007  2 H  s                 10     -0.183282  1 F  s          
     9     -0.172223  1 F  pz         

 Vector    8  Occ=0.000000D+00  E= 1.815568D-01
              MO Center=  1.3D-13, -9.7D-14, -9.1D-02, r^2= 5.2D+00
   Bfn.  Coefficient  Atom+Function         Bfn.  Coefficient  Atom+Function  
  ----- ------------  ---------------      ----- ------------  ---------------
    14      3.298898  1 F  s                 48     -1.611990  2 H  s          
    49     -0.701645  2 H  s                 13      0.525942  1 F  pz         
    58      0.483136  2 H  pz                 6     -0.352892  1 F  s          
    47     -0.311499  2 H  s                 30     -0.260320  1 F  dxx        
    33     -0.260320  1 F  dyy        

 Vector    9  Occ=0.000000D+00  E= 1.826736D-01
              MO Center= -1.5D-13, -8.0D-15,  1.5D-02, r^2= 3.7D+00
   Bfn.  Coefficient  Atom+Function         Bfn.  Coefficient  Atom+Function  
  ----- ------------  ---------------      ----- ------------  ---------------
    15      1.145558  1 F  px                11     -0.464928  1 F  px         
     7     -0.151722  1 F  px         

 Vector   10  Occ=0.000000D+00  E= 1.826736D-01
              MO Center= -6.5D-15,  1.1D-13,  1.5D-02, r^2= 3.7D+00
   Bfn.  Coefficient  Atom+Function         Bfn.  Coefficient  Atom+Function  
  ----- ------------  ---------------      ----- ------------  ---------------
    16      1.145558  1 F  py                12     -0.464928  1 F  py         
     8     -0.151722  1 F  py         

 Vector   11  Occ=0.000000D+00  E= 2.695633D-01
              MO Center=  4.9D-15,  3.0D-16, -1.9D-01, r^2= 4.7D+00
   Bfn.  Coefficient  Atom+Function         Bfn.  Coefficient  Atom+Function  
  ----- ------------  ---------------      ----- ------------  ---------------
    14      6.530814  1 F  s                 48     -6.315164  2 H  s          
    17      3.496327  1 F  pz                47     -1.082052  2 H  s          
    58      0.783753  2 H  pz                10      0.185800  1 F  s          

 Vector   12  Occ=0.000000D+00  E= 3.434855D-01
              MO Center=  3.3D-15,  7.6D-15,  5.0D-01, r^2= 3.0D+00
   Bfn.  Coefficient  Atom+Function         Bfn.  Coefficient  Atom+Function  
  ----- ------------  ---------------      ----- ------------  ---------------
    57      1.388844  2 H  py                16     -0.958668  1 F  py         
    56      0.617148  2 H  px                15     -0.425994  1 F  px         
    12     -0.201526  1 F  py         

 Vector   13  Occ=0.000000D+00  E= 3.434855D-01
              MO Center=  2.4D-15, -9.7D-16,  5.0D-01, r^2= 3.0D+00
   Bfn.  Coefficient  Atom+Function         Bfn.  Coefficient  Atom+Function  
  ----- ------------  ---------------      ----- ------------  ---------------
    56      1.388844  2 H  px                15     -0.958668  1 F  px         
    57     -0.617148  2 H  py                16      0.425994  1 F  py         
    11     -0.201526  1 F  px         

 Vector   14  Occ=0.000000D+00  E= 3.737873D-01
              MO Center= -7.0D-15, -5.9D-15,  9.7D-01, r^2= 4.9D+00
   Bfn.  Coefficient  Atom+Function         Bfn.  Coefficient  Atom+Function  
  ----- ------------  ---------------      ----- ------------  ---------------
    48      8.483931  2 H  s                 14     -5.267753  1 F  s          
    17     -2.315743  1 F  pz                58     -1.756616  2 H  pz         
    49     -1.504761  2 H  s                 47     -1.113339  2 H  s          
    35     -0.380167  1 F  dzz               10     -0.304105  1 F  s          
     9      0.180607  1 F  pz                30     -0.169632  1 F  dxx        

 Vector   15  Occ=0.000000D+00  E= 6.765516D-01
              MO Center= -3.6D-15,  3.1D-15,  1.3D+00, r^2= 3.0D+00
   Bfn.  Coefficient  Atom+Function         Bfn.  Coefficient  Atom+Function  
  ----- ------------  ---------------      ----- ------------  ---------------
    48    -10.829689  2 H  s                 14     10.486405  1 F  s          
    58      5.237369  2 H  pz                47     -4.705315  2 H  s          
    17      3.471772  1 F  pz                10      3.340737  1 F  s          
    13      2.425703  1 F  pz                35      0.753749  1 F  dzz        
    55      0.381462  2 H  pz                49      0.363492  2 H  s          


 center of mass
 --------------
 x =   0.00000000 y =   0.00000000 z =  -0.08584120

 moments of inertia (a.u.)
 ------------------
           2.863765916334           0.000000000000           0.000000000000
           0.000000000000           2.863765916334           0.000000000000
           0.000000000000           0.000000000000           0.000000000000

     Multipole analysis of the density
     ---------------------------------

     L   x y z        total         alpha         beta         nuclear
     -   - - -        -----         -----         ----         -------
     0   0 0 0     -0.000000     -5.000000     -5.000000     10.000000

     1   1 0 0      0.000000      0.000000      0.000000      0.000000
     1   0 1 0     -0.000000     -0.000000     -0.000000      0.000000
     1   0 0 1      0.716787      0.358393      0.358393      0.000000

     2   2 0 0     -4.377961     -2.188981     -2.188981      0.000000
     2   1 1 0     -0.000000     -0.000000     -0.000000      0.000000
     2   1 0 1     -0.000000     -0.000000     -0.000000      0.000000
     2   0 2 0     -4.377961     -2.188981     -2.188981      0.000000
     2   0 1 1      0.000000      0.000000      0.000000      0.000000
     2   0 0 2     -2.802648     -2.747845     -2.747845      2.693041


 Parallel integral file used      18 records with       0 large values


            General Information
            -------------------
          SCF calculation type: DFT
          Wavefunction type:  closed shell.
          No. of atoms     :     2
          No. of electrons :    10
           Alpha electrons :     5
            Beta electrons :     5
          Charge           :     0
          Spin multiplicity:     1
          Use of symmetry is: off; symmetry adaption is: off
          Maximum number of iterations: ***
          AO basis - number of functions:    64
                     number of shells:    21
          Convergence on energy requested: 1.00D-06
          Convergence on density requested: 1.00D-05
          Convergence on gradient requested: 5.00D-04

              XC Information
              --------------
                  TPSS metaGGA Exchange Functional  1.000          
             TPSS03 metaGGA Correlation Functional  1.000          

             Grid Information
             ----------------
          Grid used for XC integration:  medium    
          Radial quadrature: Mura-Knowles        
          Angular quadrature: Lebedev. 
          Tag              B.-S. Rad. Rad. Pts. Rad. Cut. Ang. Pts.
          ---              ---------- --------- --------- ---------
          F                   0.50       49           8.0       434
          H                   0.35       45           8.0       434
          Grid pruning is: on 
          Number of quadrature shells:    94
          Spatial weights used:  Erf1

          Convergence Information
          -----------------------
          Convergence aids based upon iterative change in 
          total energy or number of iterations. 
          Levelshifting, if invoked, occurs when the 
          HOMO/LUMO gap drops below (HL_TOL): 1.00D-02
          DIIS, if invoked, will attempt to extrapolate 
          using up to (NFOCK): 10 stored Fock matrices.

                    Damping( 0%)  Levelshifting(0.5)       DIIS
                  --------------- ------------------- ---------------
          dE  on:    start            ASAP                start   
          dE off:    2 iters        *** iters           *** iters 


      Screening Tolerance Information
      -------------------------------
          Density screening/tol_rho: 1.00D-10
          AO Gaussian exp screening on grid/accAOfunc:  14
          CD Gaussian exp screening on grid/accCDfunc:  20
          XC Gaussian exp screening on grid/accXCfunc:  20
          Schwarz screening/accCoul: 1.00D-08



                            NWChem DFT Gradient Module
                            --------------------------



  charge          =   0.00
  wavefunction    = closed shell



                         DFT ENERGY GRADIENTS

    atom               coordinates                        gradient
                 x          y          z           x          y          z
   1 F       0.000000   0.000000  -0.172982    0.000000  -0.000000   0.000796
   2 H       0.000000   0.000000   1.556836   -0.000000   0.000000  -0.000796

                 ----------------------------------------
                 |  Time  |  1-e(secs)   |  2-e(secs)   |
                 ----------------------------------------
                 |  CPU   |       0.00   |       0.08   |
                 ----------------------------------------
                 |  WALL  |       0.00   |       0.08   |
                 ----------------------------------------
                               NWChem STEPPER Module
                               ---------------------


   Step sought for minimum. 
   Update Hessian used. 
   Nuclear Hessian initialized with UNIT matrix. 
   Dependent rotation vector no.                    3
   found in ECKART; linear geometry  assumed. 
   Number of modes removed with force (in the spectral representation)
   less than:   0.000000 is:    0
   PARTIT has partitioned the input hessian 
   and gradient into two subspaces;  An 
   "external" hessian and gradient composed 
   of                     5  independent translations 
   and rotations, and an "internal" hessian 
   and gradient with a dimension of                     1
               e-diff         g-norm     g-max   
 value     -100.4872804147  0.001125  0.000796
 thres        0.0001000000  0.010000  0.000800
  trust radius =     0.10
   Calculating the Newton-Raphson step. 
  The length (norm) of the STEP is   0.001125

  The lowest few components in the bases 
  generated by the spectral decomposition 
  of the internal hessian (non-zero force). 

  Component  Hessian     Grad      Step   Scaled-Step
  ---------  --------  --------  -------- -----------
       1     0.10D+01  0.11D-02  -.11D-02  -.11D-02

  Clean-up the step; truncate at:   0.000001
  In cartesian coordinates; norm of this step is:   0.001126
         Walk statistics for step:   1
     Previous actual total energy:   0.000000000000D+00
      Current actual total energy:  -0.100487280415D+03
         Actual energy difference:  -0.100487280415D+03 threshold:         0.100000D-03
    Second order energy predicted:   0.000000000000D+00
             Ratio of differences:   0.000000000000D+00
               Fixed trust radius:   0.100000000000D+00
   Number of negative eigenvalues:   0
   Max absolute value of Gradient:   0.795532194937D-03 threshold:         0.800000D-03
                    Gradient norm:   0.112505241938D-02 threshold:         0.100000D-01
                RMS Gradient norm:   0.795532194934D-03
  Largest component of step v-tor:   0.112500000000D-02
  New 2nd order energy prediction:  -0.632871471803D-06



  ------------------- New geometry -------------------


                         Geometry "g-1-step" -> "g-1-step"
                         ---------------------------------

 Output coordinates in angstroms (scale by  1.889725989 to convert to a.u.)

  No.       Tag          Charge          X              Y              Z
 ---- ---------------- ---------- -------------- -------------- --------------
    1 F                    9.0000     0.00000000     0.00000000    -0.09195923
    2 H                    1.0000     0.00000000     0.00000000     0.82426323

      Atomic Mass 
      ----------- 

      F                 18.998400
      H                  1.007825


 Effective nuclear repulsion energy (a.u.)       5.1980774320

            Nuclear Dipole moment (a.u.) 
            ----------------------------
        X                 Y               Z
 ---------------- ---------------- ----------------
     0.0000000000     0.0000000000    -0.0063680000

 ==============================================================================
                                internuclear distances
 ------------------------------------------------------------------------------
       center one      |      center two      | atomic units |  angstroms
 ------------------------------------------------------------------------------
    2 H                |   1 F                |     1.73141  |     0.91622
 ------------------------------------------------------------------------------
                         number of included internuclear distances:          1
 ==============================================================================




                                 NWChem DFT Module
                                 -----------------




 Summary of "ao basis" -> "ao basis" (cartesian)
 ------------------------------------------------------------------------------
       Tag                 Description            Shells   Functions and Types
 ---------------- ------------------------------  ------  ---------------------
 F                     6-311++G(3df,3pd)            13       45   5s4p3d1f
 H                     6-311++G(3df,3pd)             8       19   4s3p1d


  Caching 1-el integrals 

            General Information
            -------------------
          SCF calculation type: DFT
          Wavefunction type:  closed shell.
          No. of atoms     :     2
          No. of electrons :    10
           Alpha electrons :     5
            Beta electrons :     5
          Charge           :     0
          Spin multiplicity:     1
          Use of symmetry is: off; symmetry adaption is: off
          Maximum number of iterations: ***
          AO basis - number of functions:    64
                     number of shells:    21
          Convergence on energy requested: 1.00D-06
          Convergence on density requested: 1.00D-05
          Convergence on gradient requested: 5.00D-04

              XC Information
              --------------
                  TPSS metaGGA Exchange Functional  1.000          
             TPSS03 metaGGA Correlation Functional  1.000          

             Grid Information
             ----------------
          Grid used for XC integration:  medium    
          Radial quadrature: Mura-Knowles        
          Angular quadrature: Lebedev. 
          Tag              B.-S. Rad. Rad. Pts. Rad. Cut. Ang. Pts.
          ---              ---------- --------- --------- ---------
          F                   0.50       49           8.0       434
          H                   0.35       45           8.0       434
          Grid pruning is: on 
          Number of quadrature shells:    94
          Spatial weights used:  Erf1

          Convergence Information
          -----------------------
          Convergence aids based upon iterative change in 
          total energy or number of iterations. 
          Levelshifting, if invoked, occurs when the 
          HOMO/LUMO gap drops below (HL_TOL): 1.00D-02
          DIIS, if invoked, will attempt to extrapolate 
          using up to (NFOCK): 10 stored Fock matrices.

                    Damping( 0%)  Levelshifting(0.5)       DIIS
                  --------------- ------------------- ---------------
          dE  on:    start            ASAP                start   
          dE off:    2 iters        *** iters           *** iters 


      Screening Tolerance Information
      -------------------------------
          Density screening/tol_rho: 1.00D-10
          AO Gaussian exp screening on grid/accAOfunc:  14
          CD Gaussian exp screening on grid/accCDfunc:  20
          XC Gaussian exp screening on grid/accXCfunc:  20
          Schwarz screening/accCoul: 1.00D-08


 Loading old vectors from job with title :



   Time after variat. SCF:      1.1
   Time prior to 1st pass:      1.1

 #quartets = 2.680D+04 #integrals = 5.635D+05 #direct =  0.0% #cached =100.0%


 Integral file          = ./HF.xyz.aoints.00
 Record size in doubles =    65536    No. of integs per rec  =    43688
 Max. records in memory =        6    Max. records in file   = 11665423
 No. of bits per label  =        8    No. of bits per value  =       64


File balance: exchanges=     0  moved=     0  time=   0.0


 Grid_pts file          = ./HF.xyz.gridpts.00
 Record size in doubles =  12289        No. of grid_pts per rec  =   3070
 Max. records in memory =      2        Max. recs in file   =  62210533


           Memory utilization after 1st SCF pass: 
           Heap Space remaining (MW):       12.69            12686796
          Stack Space remaining (MW):       13.11            13106756

   convergence    iter        energy       DeltaE   RMS-Dens  Diis-err    time
 ---------------- ----- ----------------- --------- --------- ---------  ------
 d= 0,ls=0.0,diis     1   -100.4873394259 -1.06D+02  1.40D-05  3.49D-06     1.4
 d= 0,ls=0.0,diis     2   -100.4872692822  7.01D-05  8.87D-06  1.99D-06     1.5
 d= 0,ls=0.0,diis     3   -100.4873186456 -4.94D-05  4.24D-06  6.12D-07     1.5
 d= 0,ls=0.0,diis     4   -100.4872996524  1.90D-05  6.73D-07  1.79D-08     1.6
 d= 0,ls=0.0,diis     5   -100.4873012966 -1.64D-06  1.41D-07  3.39D-10     1.6
 d= 0,ls=0.0,diis     6   -100.4873011912  1.05D-07  1.79D-08  4.88D-12     1.6


         Total DFT energy =     -100.487301191209
      One electron energy =     -150.128999056659
           Coulomb energy =       55.220402115263
          Exchange energy =      -10.431387146407
       Correlation energy =       -0.345394535431
 Nuclear repulsion energy =        5.198077432025

 Numeric. integr. density =       10.000001800721

     Total iterative time =      0.5s



                       DFT Final Molecular Orbital Analysis
                       ------------------------------------

 Vector    1  Occ=2.000000D+00  E=-2.448494D+01
              MO Center= -8.7D-17, -2.1D-17, -9.2D-02, r^2= 1.2D-02
   Bfn.  Coefficient  Atom+Function         Bfn.  Coefficient  Atom+Function  
  ----- ------------  ---------------      ----- ------------  ---------------
     1      0.547286  1 F  s                  2      0.472728  1 F  s          

 Vector    2  Occ=2.000000D+00  E=-1.191039D+00
              MO Center=  1.6D-15, -1.0D-16,  5.5D-02, r^2= 3.8D-01
   Bfn.  Coefficient  Atom+Function         Bfn.  Coefficient  Atom+Function  
  ----- ------------  ---------------      ----- ------------  ---------------
    10      0.737206  1 F  s                  6      0.597076  1 F  s          
     2     -0.220715  1 F  s          

 Vector    3  Occ=2.000000D+00  E=-5.700525D-01
              MO Center= -1.2D-15, -3.3D-16, -3.1D-02, r^2= 5.9D-01
   Bfn.  Coefficient  Atom+Function         Bfn.  Coefficient  Atom+Function  
  ----- ------------  ---------------      ----- ------------  ---------------
    10      0.394003  1 F  s                  9     -0.354287  1 F  pz         
    13     -0.330976  1 F  pz                 5     -0.275529  1 F  pz         
    46     -0.168679  2 H  s          

 Vector    4  Occ=2.000000D+00  E=-4.348901D-01
              MO Center=  1.3D-15,  3.4D-16, -6.2D-02, r^2= 5.0D-01
   Bfn.  Coefficient  Atom+Function         Bfn.  Coefficient  Atom+Function  
  ----- ------------  ---------------      ----- ------------  ---------------
     8      0.400797  1 F  py                12      0.400719  1 F  py         
     4      0.296889  1 F  py                 7      0.152593  1 F  px         
    11      0.152564  1 F  px         

 Vector    5  Occ=2.000000D+00  E=-4.348901D-01
              MO Center= -1.1D-15,  3.3D-16, -6.2D-02, r^2= 5.0D-01
   Bfn.  Coefficient  Atom+Function         Bfn.  Coefficient  Atom+Function  
  ----- ------------  ---------------      ----- ------------  ---------------
     7      0.400797  1 F  px                11      0.400719  1 F  px         
     3      0.296889  1 F  px                 8     -0.152593  1 F  py         
    12     -0.152564  1 F  py         

 Vector    6  Occ=0.000000D+00  E=-4.255495D-02
              MO Center=  3.9D-15, -3.5D-18,  1.1D+00, r^2= 3.7D+00
   Bfn.  Coefficient  Atom+Function         Bfn.  Coefficient  Atom+Function  
  ----- ------------  ---------------      ----- ------------  ---------------
    48      0.689323  2 H  s                 49      0.651408  2 H  s          
    14     -0.473946  1 F  s                 10     -0.318732  1 F  s          
    47      0.262810  2 H  s                  6     -0.182141  1 F  s          
    13     -0.177965  1 F  pz                 9     -0.164256  1 F  pz         

 Vector    7  Occ=0.000000D+00  E= 8.784142D-02
              MO Center=  1.5D-15,  2.9D-17,  7.6D-01, r^2= 7.8D+00
   Bfn.  Coefficient  Atom+Function         Bfn.  Coefficient  Atom+Function  
  ----- ------------  ---------------      ----- ------------  ---------------
    48      3.720803  2 H  s                 14     -2.050813  1 F  s          
    49     -1.720560  2 H  s                 17     -0.889861  1 F  pz         
    13     -0.293641  1 F  pz                58     -0.286807  2 H  pz         
    47      0.225985  2 H  s                 10     -0.182043  1 F  s          
     9     -0.172149  1 F  pz         

 Vector    8  Occ=0.000000D+00  E= 1.815234D-01
              MO Center= -1.6D-14, -4.4D-13, -9.2D-02, r^2= 5.2D+00
   Bfn.  Coefficient  Atom+Function         Bfn.  Coefficient  Atom+Function  
  ----- ------------  ---------------      ----- ------------  ---------------
    14      3.296649  1 F  s                 48     -1.611242  2 H  s          
    49     -0.700384  2 H  s                 13      0.524492  1 F  pz         
    58      0.481477  2 H  pz                 6     -0.353060  1 F  s          
    47     -0.308283  2 H  s                 30     -0.260485  1 F  dxx        
    33     -0.260485  1 F  dyy        

 Vector    9  Occ=0.000000D+00  E= 1.826563D-01
              MO Center=  9.7D-15,  2.7D-17,  1.5D-02, r^2= 3.7D+00
   Bfn.  Coefficient  Atom+Function         Bfn.  Coefficient  Atom+Function  
  ----- ------------  ---------------      ----- ------------  ---------------
    15      1.146447  1 F  px                11     -0.465601  1 F  px         
     7     -0.151941  1 F  px         

 Vector   10  Occ=0.000000D+00  E= 1.826563D-01
              MO Center=  8.9D-15,  4.5D-13,  1.5D-02, r^2= 3.7D+00
   Bfn.  Coefficient  Atom+Function         Bfn.  Coefficient  Atom+Function  
  ----- ------------  ---------------      ----- ------------  ---------------
    16      1.146447  1 F  py                12     -0.465601  1 F  py         
     8     -0.151941  1 F  py         

 Vector   11  Occ=0.000000D+00  E= 2.695364D-01
              MO Center= -4.7D-15, -4.3D-15, -1.9D-01, r^2= 4.7D+00
   Bfn.  Coefficient  Atom+Function         Bfn.  Coefficient  Atom+Function  
  ----- ------------  ---------------      ----- ------------  ---------------
    14      6.519860  1 F  s                 48     -6.305469  2 H  s          
    17      3.494169  1 F  pz                47     -1.079024  2 H  s          
    58      0.783222  2 H  pz                10      0.183937  1 F  s          

 Vector   12  Occ=0.000000D+00  E= 3.433474D-01
              MO Center=  4.3D-15, -3.7D-15,  5.0D-01, r^2= 3.0D+00
   Bfn.  Coefficient  Atom+Function         Bfn.  Coefficient  Atom+Function  
  ----- ------------  ---------------      ----- ------------  ---------------
    56      1.183969  2 H  px                57     -0.951162  2 H  py         
    15     -0.817893  1 F  px                16      0.657069  1 F  py         
    11     -0.171051  1 F  px         

 Vector   13  Occ=0.000000D+00  E= 3.433474D-01
              MO Center=  1.4D-14,  1.8D-14,  5.0D-01, r^2= 3.0D+00
   Bfn.  Coefficient  Atom+Function         Bfn.  Coefficient  Atom+Function  
  ----- ------------  ---------------      ----- ------------  ---------------
    57      1.183969  2 H  py                56      0.951162  2 H  px         
    16     -0.817893  1 F  py                15     -0.657069  1 F  px         
    12     -0.171051  1 F  py         

 Vector   14  Occ=0.000000D+00  E= 3.735944D-01
              MO Center= -2.1D-14, -1.5D-14,  9.7D-01, r^2= 4.9D+00
   Bfn.  Coefficient  Atom+Function         Bfn.  Coefficient  Atom+Function  
  ----- ------------  ---------------      ----- ------------  ---------------
    48      8.464909  2 H  s                 14     -5.247375  1 F  s          
    17     -2.310230  1 F  pz                58     -1.750314  2 H  pz         
    49     -1.505265  2 H  s                 47     -1.119821  2 H  s          
    35     -0.378677  1 F  dzz               10     -0.301220  1 F  s          
     9      0.180438  1 F  pz                30     -0.169027  1 F  dxx        

 Vector   15  Occ=0.000000D+00  E= 6.762136D-01
              MO Center= -2.9D-16,  1.3D-16,  1.3D+00, r^2= 3.0D+00
   Bfn.  Coefficient  Atom+Function         Bfn.  Coefficient  Atom+Function  
  ----- ------------  ---------------      ----- ------------  ---------------
    48    -10.816302  2 H  s                 14     10.470849  1 F  s          
    58      5.232879  2 H  pz                47     -4.688712  2 H  s          
    17      3.470482  1 F  pz                10      3.328380  1 F  s          
    13      2.420156  1 F  pz                35      0.752535  1 F  dzz        
    55      0.380189  2 H  pz                49      0.363814  2 H  s          


 center of mass
 --------------
 x =   0.00000000 y =   0.00000000 z =  -0.08655700

 moments of inertia (a.u.)
 ------------------
           2.869039551974           0.000000000000           0.000000000000
           0.000000000000           2.869039551974           0.000000000000
           0.000000000000           0.000000000000           0.000000000000

     Multipole analysis of the density
     ---------------------------------

     L   x y z        total         alpha         beta         nuclear
     -   - - -        -----         -----         ----         -------
     0   0 0 0     -0.000000     -5.000000     -5.000000     10.000000

     1   1 0 0     -0.000000     -0.000000     -0.000000      0.000000
     1   0 1 0     -0.000000     -0.000000     -0.000000      0.000000
     1   0 0 1      0.717315      0.361841      0.361841     -0.006368

     2   2 0 0     -4.378678     -2.189339     -2.189339      0.000000
     2   1 1 0     -0.000000     -0.000000     -0.000000      0.000000
     2   1 0 1      0.000000      0.000000      0.000000      0.000000
     2   0 2 0     -4.378678     -2.189339     -2.189339      0.000000
     2   0 1 1     -0.000000     -0.000000     -0.000000      0.000000
     2   0 0 2     -2.801822     -2.749913     -2.749913      2.698005


 Parallel integral file used      19 records with       0 large values


            General Information
            -------------------
          SCF calculation type: DFT
          Wavefunction type:  closed shell.
          No. of atoms     :     2
          No. of electrons :    10
           Alpha electrons :     5
            Beta electrons :     5
          Charge           :     0
          Spin multiplicity:     1
          Use of symmetry is: off; symmetry adaption is: off
          Maximum number of iterations: ***
          AO basis - number of functions:    64
                     number of shells:    21
          Convergence on energy requested: 1.00D-06
          Convergence on density requested: 1.00D-05
          Convergence on gradient requested: 5.00D-04

              XC Information
              --------------
                  TPSS metaGGA Exchange Functional  1.000          
             TPSS03 metaGGA Correlation Functional  1.000          

             Grid Information
             ----------------
          Grid used for XC integration:  medium    
          Radial quadrature: Mura-Knowles        
          Angular quadrature: Lebedev. 
          Tag              B.-S. Rad. Rad. Pts. Rad. Cut. Ang. Pts.
          ---              ---------- --------- --------- ---------
          F                   0.50       49           8.0       434
          H                   0.35       45           8.0       434
          Grid pruning is: on 
          Number of quadrature shells:    94
          Spatial weights used:  Erf1

          Convergence Information
          -----------------------
          Convergence aids based upon iterative change in 
          total energy or number of iterations. 
          Levelshifting, if invoked, occurs when the 
          HOMO/LUMO gap drops below (HL_TOL): 1.00D-02
          DIIS, if invoked, will attempt to extrapolate 
          using up to (NFOCK): 10 stored Fock matrices.

                    Damping( 0%)  Levelshifting(0.5)       DIIS
                  --------------- ------------------- ---------------
          dE  on:    start            ASAP                start   
          dE off:    2 iters        *** iters           *** iters 


      Screening Tolerance Information
      -------------------------------
          Density screening/tol_rho: 1.00D-10
          AO Gaussian exp screening on grid/accAOfunc:  14
          CD Gaussian exp screening on grid/accCDfunc:  20
          XC Gaussian exp screening on grid/accXCfunc:  20
          Schwarz screening/accCoul: 1.00D-08



                            NWChem DFT Gradient Module
                            --------------------------



  charge          =   0.00
  wavefunction    = closed shell



                         DFT ENERGY GRADIENTS

    atom               coordinates                        gradient
                 x          y          z           x          y          z
   1 F       0.000000   0.000000  -0.173778   -0.000000  -0.000000  -0.000169
   2 H       0.000000   0.000000   1.557632    0.000000   0.000000   0.000169

                 ----------------------------------------
                 |  Time  |  1-e(secs)   |  2-e(secs)   |
                 ----------------------------------------
                 |  CPU   |       0.00   |       0.08   |
                 ----------------------------------------
                 |  WALL  |       0.00   |       0.08   |
                 ----------------------------------------
                               NWChem STEPPER Module
                               ---------------------


   Step sought for minimum. 
   Actual energy difference is :   -2.0776549973788860E-005
   2nd order predicted energy difference  was :   -6.3287147180287878E-007
   One of these is below the energy  tolerance:    1.0000000000000000E-004
   Backstepping possibilities are NO 
   longer considered appropriate. 
   Update Hessian used. 
   Dependent rotation vector no.                    3
   found in ECKART; linear geometry  assumed. 
   Number of modes removed with force (in the spectral representation)
   less than:   0.000000 is:    0
   PARTIT has partitioned the input hessian 
   and gradient into two subspaces;  An 
   "external" hessian and gradient composed 
   of                     5  independent translations 
   and rotations, and an "internal" hessian 
   and gradient with a dimension of                     1
               e-diff         g-norm     g-max   
 value       -0.0000207765  0.000239  0.000169
 thres        0.0001000000  0.010000  0.000800
   ENERGY =   -100.48730119120896     
   The hessian exhibits the "proper" 
   structure, and the gradient and energy 
   convergence criterion has been met.  
   This geometry walk is HISTORY.
   Calculating the Newton-Raphson step. 
  The length (norm) of the STEP is   0.000197

  The lowest few components in the bases 
  generated by the spectral decomposition 
  of the internal hessian (non-zero force). 

  Component  Hessian     Grad      Step   Scaled-Step
  ---------  --------  --------  -------- -----------
       1     0.12D+01  -.24D-03  0.20D-03  0.20D-03

  Clean-up the step; truncate at:   0.000001
  In cartesian coordinates; norm of this step is:   0.000198



  ---------------- Converged geometry ----------------


                         Geometry "g-2-step" -> "g-2-step"
                         ---------------------------------

 Output coordinates in angstroms (scale by  1.889725989 to convert to a.u.)

  No.       Tag          Charge          X              Y              Z
 ---- ---------------- ---------- -------------- -------------- --------------
    1 F                    9.0000     0.00000000     0.00000000    -0.09195923
    2 H                    1.0000     0.00000000     0.00000000     0.82426323

      Atomic Mass 
      ----------- 

      F                 18.998400
      H                  1.007825


 Effective nuclear repulsion energy (a.u.)       5.1980774320

            Nuclear Dipole moment (a.u.) 
            ----------------------------
        X                 Y               Z
 ---------------- ---------------- ----------------
     0.0000000000     0.0000000000    -0.0063680000

 ==============================================================================
                                internuclear distances
 ------------------------------------------------------------------------------
       center one      |      center two      | atomic units |  angstroms
 ------------------------------------------------------------------------------
    2 H                |   1 F                |     1.73141  |     0.91622
 ------------------------------------------------------------------------------
                         number of included internuclear distances:          1
 ==============================================================================




 Task  times  cpu:        1.6s     wall:        3.0s


                                NWChem Input Module
                                -------------------


 Summary of allocated global arrays
-----------------------------------
  No active global arrays



                         GA Statistics for process    0
                         ------------------------------

       create   destroy   get      put      acc     scatter   gather  read&inc
calls:  295      295     1.15e+04 1534      287        0        0      187     
number of processes/call 1.19e+00 1.48e+00 4.01e+00 0.00e+00 0.00e+00
bytes total:             1.56e+07 4.09e+06 6.59e+06 0.00e+00 0.00e+00 1.50e+03
bytes remote:            7.20e+06 9.48e+05 3.82e+06 0.00e+00 0.00e+00 0.00e+00
Max memory consumed for GA by this process: 583200 bytes

MA_summarize_allocated_blocks: starting scan ...
MA_summarize_allocated_blocks: scan completed: 0 heap blocks, 0 stack blocks
MA usage statistics:

	allocation statistics:
					      heap	     stack
					      ----	     -----
	current number of blocks	         0	         0
	maximum number of blocks	        23	        51
	current total bytes		         0	         0
	maximum total bytes		   3362616	  42161832
	maximum total K-bytes		      3363	     42162
	maximum total M-bytes		         4	        43


                                     CITATION
                                     --------
                Please cite the following reference when publishing
                           results obtained with NWChem:

                 M. Valiev, E.J. Bylaska, N. Govind, K. Kowalski,
              T.P. Straatsma, H.J.J. van Dam, D. Wang, J. Nieplocha,
                        E. Apra, T.L. Windus, W.A. de Jong
                 "NWChem: a comprehensive and scalable open-source
                  solution for large scale molecular simulations"
                      Comput. Phys. Commun. 181, 1477 (2010)
                           doi:10.1016/j.cpc.2010.04.018

                                      AUTHORS
                                      -------
          E. Apra, E. J. Bylaska, W. A. de Jong, N. Govind, K. Kowalski,
       T. P. Straatsma, M. Valiev, H. J. J. van Dam, D. Wang, T. L. Windus,
        J. Hammond, J. Autschbach, K. Bhaskaran-Nair, J. Brabec, K. Lopata,
       S. A. Fischer, S. Krishnamoorthy, W. Ma, M. Klemm, O. Villa, Y. Chen,
    V. Anisimov, F. Aquino, S. Hirata, M. T. Hackler, T. Risthaus, M. Malagoli,
       A. Marenich, A. Otero-de-la-Roza, J. Mullin, P. Nichols, R. Peverati,
     J. Pittner, Y. Zhao, P.-D. Fan, A. Fonari, M. Williamson, R. J. Harrison,
       J. R. Rehr, M. Dupuis, D. Silverstein, D. M. A. Smith, J. Nieplocha,
        V. Tipparaju, M. Krishnan, B. E. Van Kuiken, A. Vazquez-Mayagoitia,
        L. Jensen, M. Swart, Q. Wu, T. Van Voorhis, A. A. Auer, M. Nooijen,
      L. D. Crosby, E. Brown, G. Cisneros, G. I. Fann, H. Fruchtl, J. Garza,
        K. Hirao, R. A. Kendall, J. A. Nichols, K. Tsemekhman, K. Wolinski,
     J. Anchell, D. E. Bernholdt, P. Borowski, T. Clark, D. Clerc, H. Dachsel,
   M. J. O. Deegan, K. Dyall, D. Elwood, E. Glendening, M. Gutowski, A. C. Hess,
         J. Jaffe, B. G. Johnson, J. Ju, R. Kobayashi, R. Kutteh, Z. Lin,
   R. Littlefield, X. Long, B. Meng, T. Nakajima, S. Niu, L. Pollack, M. Rosing,
   K. Glaesemann, G. Sandrone, M. Stave, H. Taylor, G. Thomas, J. H. van Lenthe,
                               A. T. Wong, Z. Zhang.

 Total times  cpu:        1.7s     wall:        3.2s
