[1537857333.561590] [r8n4:12510:0]         sys.c:744  MXM  WARN  Conflicting CPU frequencies detected, using: 2232.89
[1537857333.570645] [r8n4:12521:0]         sys.c:744  MXM  WARN  Conflicting CPU frequencies detected, using: 2232.89
[1537857333.571932] [r8n4:12515:0]         sys.c:744  MXM  WARN  Conflicting CPU frequencies detected, using: 2232.89
[1537857333.571968] [r8n4:12511:0]         sys.c:744  MXM  WARN  Conflicting CPU frequencies detected, using: 2232.89
[1537857333.572369] [r8n4:12513:0]         sys.c:744  MXM  WARN  Conflicting CPU frequencies detected, using: 2232.89
[1537857333.572496] [r8n4:12519:0]         sys.c:744  MXM  WARN  Conflicting CPU frequencies detected, using: 2232.89
[1537857333.572515] [r8n4:12512:0]         sys.c:744  MXM  WARN  Conflicting CPU frequencies detected, using: 2232.89
[1537857333.572517] [r8n4:12516:0]         sys.c:744  MXM  WARN  Conflicting CPU frequencies detected, using: 2232.89
[1537857333.572526] [r8n4:12517:0]         sys.c:744  MXM  WARN  Conflicting CPU frequencies detected, using: 2232.89
[1537857333.572724] [r8n4:12523:0]         sys.c:744  MXM  WARN  Conflicting CPU frequencies detected, using: 2232.89
[1537857333.572818] [r8n4:12525:0]         sys.c:744  MXM  WARN  Conflicting CPU frequencies detected, using: 2232.89
[1537857333.573094] [r8n4:12514:0]         sys.c:744  MXM  WARN  Conflicting CPU frequencies detected, using: 2232.89
[1537857333.575486] [r8n4:12528:0]         sys.c:744  MXM  WARN  Conflicting CPU frequencies detected, using: 2232.89
[1537857333.592660] [r8n4:12537:0]         sys.c:744  MXM  WARN  Conflicting CPU frequencies detected, using: 1899.03
[1537857333.592663] [r8n4:12530:0]         sys.c:744  MXM  WARN  Conflicting CPU frequencies detected, using: 1899.03
[1537857333.603048] [r8n4:12538:0]         sys.c:744  MXM  WARN  Conflicting CPU frequencies detected, using: 1990.49
 argument  1 = /storage/home/bikashp/nwchem_run/rabeet/mgbl19/nwmgbl19/N2.xyz.nw
                                         
                                         


              Northwest Computational Chemistry Package (NWChem) 6.6
              ------------------------------------------------------


                    Environmental Molecular Sciences Laboratory
                       Pacific Northwest National Laboratory
                                Richland, WA 99352

                              Copyright (c) 1994-2015
                       Pacific Northwest National Laboratory
                            Battelle Memorial Institute

             NWChem is an open-source computational chemistry package
                        distributed under the terms of the
                      Educational Community License (ECL) 2.0
             A copy of the license is included with this distribution
                              in the LICENSE.TXT file

                                  ACKNOWLEDGMENT
                                  --------------

            This software and its documentation were developed at the
            EMSL at Pacific Northwest National Laboratory, a multiprogram
            national laboratory, operated for the U.S. Department of Energy
            by Battelle under Contract Number DE-AC05-76RL01830. Support
            for this work was provided by the Department of Energy Office
            of Biological and Environmental Research, Office of Basic
            Energy Sciences, and the Office of Advanced Scientific Computing.


           Job information
           ---------------

    hostname        = r8n4.niserhpc.org
    program         = /home/bikashp/Code/nwchem-6.6_tpssloc/bin/LINUX64/nwchem
    date            = Tue Sep 25 12:05:36 2018

    compiled        = Tue_Sep_18_16:24:59_2018
    source          = /home/bikashp/Code/nwchem-6.6_tpssloc
    nwchem branch   = 6.6
    nwchem revision = 27746
    ga revision     = 10594
    input           = /storage/home/bikashp/nwchem_run/rabeet/mgbl19/nwmgbl19/N2.xyz.nw
    prefix          = N2.xyz.
    data base       = ./N2.xyz.db
    status          = startup
    nproc           =       16
    time left       =     -1s



           Memory information
           ------------------

    heap     =   13107196 doubles =    100.0 Mbytes
    stack    =   13107201 doubles =    100.0 Mbytes
    global   =   26214400 doubles =    200.0 Mbytes (distinct from heap & stack)
    total    =   52428797 doubles =    400.0 Mbytes
    verify   = yes
    hardfail = no 


           Directory information
           ---------------------

  0 permanent = .
  0 scratch   = .




                                NWChem Input Module
                                -------------------



 Scaling coordinates for geometry "geometry" by  1.889725989
 (inverse scale =  0.529177249)



                             Geometry "geometry" -> ""
                             -------------------------

 Output coordinates in angstroms (scale by  1.889725989 to convert to a.u.)

  No.       Tag          Charge          X              Y              Z
 ---- ---------------- ---------- -------------- -------------- --------------
    1 N                    7.0000     0.00000000     0.00000000    -0.54855500
    2 N                    7.0000     0.00000000     0.00000000     0.54855500

      Atomic Mass 
      ----------- 

      N                 14.003070


 Effective nuclear repulsion energy (a.u.)      23.6345354622

            Nuclear Dipole moment (a.u.) 
            ----------------------------
        X                 Y               Z
 ---------------- ---------------- ----------------
     0.0000000000     0.0000000000     0.0000000000


            XYZ format geometry
            -------------------
     2
 geometry
 N                     0.00000000     0.00000000    -0.54855500
 N                     0.00000000     0.00000000     0.54855500

 ==============================================================================
                                internuclear distances
 ------------------------------------------------------------------------------
       center one      |      center two      | atomic units |  angstroms
 ------------------------------------------------------------------------------
    2 N                |   1 N                |     2.07324  |     1.09711
 ------------------------------------------------------------------------------
                         number of included internuclear distances:          1
 ==============================================================================





 Summary of "ao basis" -> "" (cartesian)
 ------------------------------------------------------------------------------
       Tag                 Description            Shells   Functions and Types
 ---------------- ------------------------------  ------  ---------------------
 *                     6-311++G(3df,3pd)              on all atoms 




                           NWChem Geometry Optimization
                           ----------------------------



                                 NWChem DFT Module
                                 -----------------


                      Basis "ao basis" -> "ao basis" (cartesian)
                      -----
  N (Nitrogen)
  ------------
            Exponent  Coefficients 
       -------------- ---------------------------------------------------------
  1 S  6.29348000E+03  0.001970
  1 S  9.49044000E+02  0.014961
  1 S  2.18776000E+02  0.073501
  1 S  6.36916000E+01  0.248937
  1 S  1.88282000E+01  0.602460
  1 S  2.72023000E+00  0.256202

  2 S  3.06331000E+01  0.111906
  2 S  7.02614000E+00  0.921666
  2 S  2.11205000E+00 -0.002569

  3 P  3.06331000E+01  0.038312
  3 P  7.02614000E+00  0.237403
  3 P  2.11205000E+00  0.817592

  4 S  6.84009000E-01  1.000000

  5 P  6.84009000E-01  1.000000

  6 S  2.00878000E-01  1.000000

  7 P  2.00878000E-01  1.000000

  8 S  6.39000000E-02  1.000000

  9 P  6.39000000E-02  1.000000

 10 D  3.65200000E+00  1.000000

 11 D  9.13000000E-01  1.000000

 12 D  2.28250000E-01  1.000000

 13 F  1.00000000E+00  1.000000



 Summary of "ao basis" -> "ao basis" (cartesian)
 ------------------------------------------------------------------------------
       Tag                 Description            Shells   Functions and Types
 ---------------- ------------------------------  ------  ---------------------
 N                     6-311++G(3df,3pd)            13       45   5s4p3d1f




 Summary of "ao basis" -> "ao basis" (cartesian)
 ------------------------------------------------------------------------------
       Tag                 Description            Shells   Functions and Types
 ---------------- ------------------------------  ------  ---------------------
 N                     6-311++G(3df,3pd)            13       45   5s4p3d1f


  Caching 1-el integrals 

            General Information
            -------------------
          SCF calculation type: DFT
          Wavefunction type:  closed shell.
          No. of atoms     :     2
          No. of electrons :    14
           Alpha electrons :     7
            Beta electrons :     7
          Charge           :     0
          Spin multiplicity:     1
          Use of symmetry is: off; symmetry adaption is: off
          Maximum number of iterations: ***
          AO basis - number of functions:    90
                     number of shells:    26
          Convergence on energy requested: 1.00D-06
          Convergence on density requested: 1.00D-05
          Convergence on gradient requested: 5.00D-04

              XC Information
              --------------
                  TPSS metaGGA Exchange Functional  1.000          
             TPSS03 metaGGA Correlation Functional  1.000          

             Grid Information
             ----------------
          Grid used for XC integration:  medium    
          Radial quadrature: Mura-Knowles        
          Angular quadrature: Lebedev. 
          Tag              B.-S. Rad. Rad. Pts. Rad. Cut. Ang. Pts.
          ---              ---------- --------- --------- ---------
          N                   0.65       49           8.0       434
          Grid pruning is: on 
          Number of quadrature shells:    98
          Spatial weights used:  Erf1

          Convergence Information
          -----------------------
          Convergence aids based upon iterative change in 
          total energy or number of iterations. 
          Levelshifting, if invoked, occurs when the 
          HOMO/LUMO gap drops below (HL_TOL): 1.00D-02
          DIIS, if invoked, will attempt to extrapolate 
          using up to (NFOCK): 10 stored Fock matrices.

                    Damping( 0%)  Levelshifting(0.5)       DIIS
                  --------------- ------------------- ---------------
          dE  on:    start            ASAP                start   
          dE off:    2 iters        *** iters           *** iters 


      Screening Tolerance Information
      -------------------------------
          Density screening/tol_rho: 1.00D-10
          AO Gaussian exp screening on grid/accAOfunc:  14
          CD Gaussian exp screening on grid/accCDfunc:  20
          XC Gaussian exp screening on grid/accXCfunc:  20
          Schwarz screening/accCoul: 1.00D-08


      Superposition of Atomic Density Guess
      -------------------------------------

 Sum of atomic energies:        -108.61593604

      Non-variational initial energy
      ------------------------------

 Total energy =    -109.117914
 1-e energy   =    -193.854344
 2-e energy   =      61.101895
 HOMO         =      -0.433396
 LUMO         =       0.012222

   Time after variat. SCF:      0.3
   Time prior to 1st pass:      0.3

 Integral file          = ./N2.xyz.aoints.00
 Record size in doubles =    65536    No. of integs per rec  =    43688
 Max. records in memory =       18    Max. records in file   = 11666386
 No. of bits per label  =        8    No. of bits per value  =       64


 #quartets = 6.176D+04 #integrals = 2.255D+06 #direct =  0.0% #cached =100.0%


File balance: exchanges=     0  moved=     0  time=   0.0


 Grid_pts file          = ./N2.xyz.gridpts.00
 Record size in doubles =  12289        No. of grid_pts per rec  =   3070
 Max. records in memory =      2        Max. recs in file   =  62215670


           Memory utilization after 1st SCF pass: 
           Heap Space remaining (MW):       11.90            11900100
          Stack Space remaining (MW):       13.11            13106644

   convergence    iter        energy       DeltaE   RMS-Dens  Diis-err    time
 ---------------- ----- ----------------- --------- --------- ---------  ------
 d= 0,ls=0.0,diis     1   -109.5644476738 -1.33D+02  1.34D-02  5.25D-01     0.7
 d= 0,ls=0.0,diis     2   -109.5742449909 -9.80D-03  2.33D-03  9.00D-03     0.8
 d= 0,ls=0.0,diis     3   -109.5693189829  4.93D-03  5.45D-04  4.80D-03     0.8
 d= 0,ls=0.0,diis     4   -109.5719518537 -2.63D-03  1.06D-04  1.47D-05     0.9
 d= 0,ls=0.0,diis     5   -109.5716741374  2.78D-04  3.65D-05  4.66D-06     1.0
  Resetting Diis
 d= 0,ls=0.0,diis     6   -109.5717293777 -5.52D-05  3.32D-06  4.37D-08     1.0
 d= 0,ls=0.0,diis     7   -109.5717342181 -4.84D-06  6.33D-07  1.10D-10     1.1
 d= 0,ls=0.0,diis     8   -109.5717346023 -3.84D-07  8.51D-08  4.22D-11     1.2


         Total DFT energy =     -109.571734602270
      One electron energy =     -194.066124187543
           Coulomb energy =       74.502464440919
          Exchange energy =      -13.187044844638
       Correlation energy =       -0.455565473255
 Nuclear repulsion energy =       23.634535462246

 Numeric. integr. density =       13.999999824395

     Total iterative time =      0.9s



                       DFT Final Molecular Orbital Analysis
                       ------------------------------------

 Vector    1  Occ=2.000000D+00  E=-1.428138D+01
              MO Center= -3.8D-17, -1.6D-17, -5.9D-04, r^2= 3.2D-01
   Bfn.  Coefficient  Atom+Function         Bfn.  Coefficient  Atom+Function  
  ----- ------------  ---------------      ----- ------------  ---------------
     1      0.393736  1 N  s                 46      0.393312  2 N  s          
     2      0.330643  1 N  s                 47      0.330286  2 N  s          

 Vector    2  Occ=2.000000D+00  E=-1.428006D+01
              MO Center= -3.4D-17, -9.1D-17,  5.9D-04, r^2= 3.2D-01
   Bfn.  Coefficient  Atom+Function         Bfn.  Coefficient  Atom+Function  
  ----- ------------  ---------------      ----- ------------  ---------------
     1      0.393396  1 N  s                 46     -0.393821  2 N  s          
     2      0.330460  1 N  s                 47     -0.330816  2 N  s          

 Vector    3  Occ=2.000000D+00  E=-1.115869D+00
              MO Center= -2.3D-15,  7.7D-16, -2.9D-07, r^2= 4.5D-01
   Bfn.  Coefficient  Atom+Function         Bfn.  Coefficient  Atom+Function  
  ----- ------------  ---------------      ----- ------------  ---------------
     6      0.347325  1 N  s                 51      0.347324  2 N  s          
    10      0.304923  1 N  s                 55      0.304924  2 N  s          

 Vector    4  Occ=2.000000D+00  E=-5.754071D-01
              MO Center=  1.6D-15, -5.9D-17, -4.0D-06, r^2= 1.3D+00
   Bfn.  Coefficient  Atom+Function         Bfn.  Coefficient  Atom+Function  
  ----- ------------  ---------------      ----- ------------  ---------------
    14      0.454093  1 N  s                 59     -0.454093  2 N  s          
     6      0.314005  1 N  s                 51     -0.314004  2 N  s          
    10      0.312218  1 N  s                 55     -0.312216  2 N  s          
    13     -0.269910  1 N  pz                58     -0.269909  2 N  pz         

 Vector    5  Occ=2.000000D+00  E=-5.059812D-01
              MO Center=  1.3D-15,  1.1D-16, -9.1D-07, r^2= 9.0D-01
   Bfn.  Coefficient  Atom+Function         Bfn.  Coefficient  Atom+Function  
  ----- ------------  ---------------      ----- ------------  ---------------
     7      0.198821  1 N  px                52      0.198821  2 N  px         
    11      0.175777  1 N  px                56      0.175776  2 N  px         
     3      0.165105  1 N  px                48      0.165105  2 N  px         
     8      0.163179  1 N  py                53      0.163179  2 N  py         

 Vector    6  Occ=2.000000D+00  E=-5.059812D-01
              MO Center=  9.0D-15, -1.4D-14, -9.1D-07, r^2= 9.0D-01
   Bfn.  Coefficient  Atom+Function         Bfn.  Coefficient  Atom+Function  
  ----- ------------  ---------------      ----- ------------  ---------------
     8      0.198821  1 N  py                53      0.198821  2 N  py         
    12      0.175777  1 N  py                57      0.175776  2 N  py         
     4      0.165105  1 N  py                49      0.165105  2 N  py         
     7     -0.163179  1 N  px                52     -0.163179  2 N  px         

 Vector    7  Occ=2.000000D+00  E=-4.518736D-01
              MO Center= -4.4D-15,  1.0D-14,  4.1D-06, r^2= 1.3D+00
   Bfn.  Coefficient  Atom+Function         Bfn.  Coefficient  Atom+Function  
  ----- ------------  ---------------      ----- ------------  ---------------
    10      0.426371  1 N  s                 55      0.426372  2 N  s          
     9     -0.261996  1 N  pz                54      0.261997  2 N  pz         
    13     -0.236319  1 N  pz                58      0.236321  2 N  pz         
     5     -0.225861  1 N  pz                50      0.225862  2 N  pz         

 Vector    8  Occ=0.000000D+00  E=-1.379144D-01
              MO Center=  1.1D-15,  5.4D-16,  8.4D-07, r^2= 1.4D+00
   Bfn.  Coefficient  Atom+Function         Bfn.  Coefficient  Atom+Function  
  ----- ------------  ---------------      ----- ------------  ---------------
    11      0.488255  1 N  px                56     -0.488256  2 N  px         
     7      0.290574  1 N  px                52     -0.290574  2 N  px         
     3      0.235906  1 N  px                48     -0.235906  2 N  px         

 Vector    9  Occ=0.000000D+00  E=-1.379144D-01
              MO Center=  1.9D-15, -5.4D-15,  8.4D-07, r^2= 1.4D+00
   Bfn.  Coefficient  Atom+Function         Bfn.  Coefficient  Atom+Function  
  ----- ------------  ---------------      ----- ------------  ---------------
    12      0.488255  1 N  py                57     -0.488256  2 N  py         
     8      0.290574  1 N  py                53     -0.290574  2 N  py         
     4      0.235906  1 N  py                49     -0.235906  2 N  py         

 Vector   10  Occ=0.000000D+00  E= 4.205855D-02
              MO Center= -3.0D-14,  1.6D-14, -5.3D-06, r^2= 6.0D+00
   Bfn.  Coefficient  Atom+Function         Bfn.  Coefficient  Atom+Function  
  ----- ------------  ---------------      ----- ------------  ---------------
    14      1.013825  1 N  s                 59      1.013847  2 N  s          
     6     -0.256075  1 N  s                 51     -0.256075  2 N  s          
    35     -0.240631  1 N  dzz               80     -0.240634  2 N  dzz        
    30     -0.182801  1 N  dxx               33     -0.182801  1 N  dyy        
    75     -0.182801  2 N  dxx               78     -0.182801  2 N  dyy        

 Vector   11  Occ=0.000000D+00  E= 7.402464D-02
              MO Center= -4.0D-15, -5.6D-15,  7.7D-07, r^2= 9.0D+00
   Bfn.  Coefficient  Atom+Function         Bfn.  Coefficient  Atom+Function  
  ----- ------------  ---------------      ----- ------------  ---------------
    14      9.491123  1 N  s                 59     -9.491119  2 N  s          
    10     -5.775935  1 N  s                 55      5.775934  2 N  s          
    13     -3.448198  1 N  pz                58     -3.448199  2 N  pz         
    17      3.333436  1 N  pz                62      3.333433  2 N  pz         
    35     -0.928074  1 N  dzz               80      0.928072  2 N  dzz        

 Vector   12  Occ=0.000000D+00  E= 8.327645D-02
              MO Center=  4.7D-15,  2.9D-15, -1.9D-06, r^2= 6.6D+00
   Bfn.  Coefficient  Atom+Function         Bfn.  Coefficient  Atom+Function  
  ----- ------------  ---------------      ----- ------------  ---------------
    16      0.529635  1 N  py                61      0.529632  2 N  py         
    15      0.319347  1 N  px                60      0.319345  2 N  px         
    12     -0.168487  1 N  py                57     -0.168487  2 N  py         

 Vector   13  Occ=0.000000D+00  E= 8.327645D-02
              MO Center=  2.7D-14, -1.6D-14, -1.9D-06, r^2= 6.6D+00
   Bfn.  Coefficient  Atom+Function         Bfn.  Coefficient  Atom+Function  
  ----- ------------  ---------------      ----- ------------  ---------------
    15      0.529635  1 N  px                60      0.529632  2 N  px         
    16     -0.319347  1 N  py                61     -0.319345  2 N  py         
    11     -0.168487  1 N  px                56     -0.168487  2 N  px         

 Vector   14  Occ=0.000000D+00  E= 1.243769D-01
              MO Center=  4.0D-16, -4.1D-15,  4.1D-06, r^2= 7.9D+00
   Bfn.  Coefficient  Atom+Function         Bfn.  Coefficient  Atom+Function  
  ----- ------------  ---------------      ----- ------------  ---------------
    17      1.540812  1 N  pz                62     -1.540816  2 N  pz         
    10     -0.166752  1 N  s                 55     -0.166773  2 N  s          

 Vector   15  Occ=0.000000D+00  E= 1.634134D-01
              MO Center=  6.2D-16,  3.6D-16,  1.9D-06, r^2= 8.5D+00
   Bfn.  Coefficient  Atom+Function         Bfn.  Coefficient  Atom+Function  
  ----- ------------  ---------------      ----- ------------  ---------------
    15      2.099523  1 N  px                60     -2.099524  2 N  px         
    16     -0.731788  1 N  py                61      0.731788  2 N  py         
    11     -0.388604  1 N  px                56      0.388604  2 N  px         

 Vector   16  Occ=0.000000D+00  E= 1.634134D-01
              MO Center=  8.1D-15,  2.4D-14,  1.9D-06, r^2= 8.5D+00
   Bfn.  Coefficient  Atom+Function         Bfn.  Coefficient  Atom+Function  
  ----- ------------  ---------------      ----- ------------  ---------------
    16      2.099523  1 N  py                61     -2.099524  2 N  py         
    15      0.731788  1 N  px                60     -0.731788  2 N  px         
    12     -0.388604  1 N  py                57      0.388604  2 N  py         

 Vector   17  Occ=0.000000D+00  E= 2.389670D-01
              MO Center=  6.9D-16, -2.1D-14,  4.6D-07, r^2= 9.7D+00
   Bfn.  Coefficient  Atom+Function         Bfn.  Coefficient  Atom+Function  
  ----- ------------  ---------------      ----- ------------  ---------------
    14     45.331578  1 N  s                 59    -45.331579  2 N  s          
    17     11.907770  1 N  pz                62     11.907770  2 N  pz         
    30     -0.484600  1 N  dxx               33     -0.484600  1 N  dyy        
    75      0.484600  2 N  dxx               78      0.484600  2 N  dyy        
    13      0.387722  1 N  pz                58      0.387722  2 N  pz         

 Vector   18  Occ=0.000000D+00  E= 3.236918D-01
              MO Center= -2.9D-15, -2.6D-15, -5.2D-07, r^2= 2.3D+00
   Bfn.  Coefficient  Atom+Function         Bfn.  Coefficient  Atom+Function  
  ----- ------------  ---------------      ----- ------------  ---------------
    30      0.471121  1 N  dxx               33     -0.471121  1 N  dyy        
    75      0.471120  2 N  dxx               78     -0.471120  2 N  dyy        

 Vector   19  Occ=0.000000D+00  E= 3.236921D-01
              MO Center=  2.9D-15, -2.1D-16, -5.2D-07, r^2= 2.3D+00
   Bfn.  Coefficient  Atom+Function         Bfn.  Coefficient  Atom+Function  
  ----- ------------  ---------------      ----- ------------  ---------------
    31      0.942241  1 N  dxy               76      0.942240  2 N  dxy        

 Vector   20  Occ=0.000000D+00  E= 4.016403D-01
              MO Center= -1.1D-14, -2.2D-14, -2.2D-06, r^2= 4.3D+00
   Bfn.  Coefficient  Atom+Function         Bfn.  Coefficient  Atom+Function  
  ----- ------------  ---------------      ----- ------------  ---------------
    10     21.558197  1 N  s                 55    -21.558195  2 N  s          
    13     12.490158  1 N  pz                58     12.490158  2 N  pz         
    14     -5.915506  1 N  s                 59      5.915506  2 N  s          
    35      2.702699  1 N  dzz               80     -2.702701  2 N  dzz        
    17     -2.183037  1 N  pz                62     -2.183034  2 N  pz         

 Vector   21  Occ=0.000000D+00  E= 4.284137D-01
              MO Center=  1.3D-14, -2.2D-15, -2.7D-07, r^2= 4.8D+00
   Bfn.  Coefficient  Atom+Function         Bfn.  Coefficient  Atom+Function  
  ----- ------------  ---------------      ----- ------------  ---------------
    17      1.125501  1 N  pz                62     -1.125497  2 N  pz         
    14      1.030224  1 N  s                 59      1.030203  2 N  s          
    30     -1.015084  1 N  dxx               33     -1.015084  1 N  dyy        
    75     -1.015082  2 N  dxx               78     -1.015082  2 N  dyy        
    10      0.802092  1 N  s                 55      0.802042  2 N  s          

 Vector   22  Occ=0.000000D+00  E= 5.422676D-01
              MO Center=  2.2D-14, -7.5D-15, -1.7D-06, r^2= 3.6D+00
   Bfn.  Coefficient  Atom+Function         Bfn.  Coefficient  Atom+Function  
  ----- ------------  ---------------      ----- ------------  ---------------
    32      1.184756  1 N  dxz               77     -1.184753  2 N  dxz        
    11     -0.726576  1 N  px                56     -0.726577  2 N  px         
    34     -0.369746  1 N  dyz               79      0.369745  2 N  dyz        
    15      0.340208  1 N  px                60      0.340206  2 N  px         
    12      0.226754  1 N  py                57      0.226755  2 N  py         


 center of mass
 --------------
 x =   0.00000000 y =   0.00000000 z =   0.00000000

 moments of inertia (a.u.)
 ------------------
          30.094787625028           0.000000000000           0.000000000000
           0.000000000000          30.094787625028           0.000000000000
           0.000000000000           0.000000000000           0.000000000000

     Multipole analysis of the density
     ---------------------------------

     L   x y z        total         alpha         beta         nuclear
     -   - - -        -----         -----         ----         -------
     0   0 0 0     -0.000000     -7.000000     -7.000000     14.000000

     1   1 0 0     -0.000000     -0.000000     -0.000000      0.000000
     1   0 1 0      0.000000      0.000000      0.000000      0.000000
     1   0 0 1      0.000007      0.000004      0.000004      0.000000

     2   2 0 0     -7.861591     -3.930795     -3.930795      0.000000
     2   1 1 0     -0.000000     -0.000000     -0.000000      0.000000
     2   1 0 1      0.000000      0.000000      0.000000      0.000000
     2   0 2 0     -7.861591     -3.930795     -3.930795      0.000000
     2   0 1 1     -0.000000     -0.000000     -0.000000      0.000000
     2   0 0 2     -8.758939    -11.901517    -11.901517     15.044095


 Parallel integral file used      59 records with       0 large values


            General Information
            -------------------
          SCF calculation type: DFT
          Wavefunction type:  closed shell.
          No. of atoms     :     2
          No. of electrons :    14
           Alpha electrons :     7
            Beta electrons :     7
          Charge           :     0
          Spin multiplicity:     1
          Use of symmetry is: off; symmetry adaption is: off
          Maximum number of iterations: ***
          AO basis - number of functions:    90
                     number of shells:    26
          Convergence on energy requested: 1.00D-06
          Convergence on density requested: 1.00D-05
          Convergence on gradient requested: 5.00D-04

              XC Information
              --------------
                  TPSS metaGGA Exchange Functional  1.000          
             TPSS03 metaGGA Correlation Functional  1.000          

             Grid Information
             ----------------
          Grid used for XC integration:  medium    
          Radial quadrature: Mura-Knowles        
          Angular quadrature: Lebedev. 
          Tag              B.-S. Rad. Rad. Pts. Rad. Cut. Ang. Pts.
          ---              ---------- --------- --------- ---------
          N                   0.65       49           8.0       434
          Grid pruning is: on 
          Number of quadrature shells:    98
          Spatial weights used:  Erf1

          Convergence Information
          -----------------------
          Convergence aids based upon iterative change in 
          total energy or number of iterations. 
          Levelshifting, if invoked, occurs when the 
          HOMO/LUMO gap drops below (HL_TOL): 1.00D-02
          DIIS, if invoked, will attempt to extrapolate 
          using up to (NFOCK): 10 stored Fock matrices.

                    Damping( 0%)  Levelshifting(0.5)       DIIS
                  --------------- ------------------- ---------------
          dE  on:    start            ASAP                start   
          dE off:    2 iters        *** iters           *** iters 


      Screening Tolerance Information
      -------------------------------
          Density screening/tol_rho: 1.00D-10
          AO Gaussian exp screening on grid/accAOfunc:  14
          CD Gaussian exp screening on grid/accCDfunc:  20
          XC Gaussian exp screening on grid/accXCfunc:  20
          Schwarz screening/accCoul: 1.00D-08



                            NWChem DFT Gradient Module
                            --------------------------



  charge          =   0.00
  wavefunction    = closed shell



                         DFT ENERGY GRADIENTS

    atom               coordinates                        gradient
                 x          y          z           x          y          z
   1 N       0.000000   0.000000  -1.036619   -0.000000  -0.000000  -0.016174
   2 N       0.000000   0.000000   1.036619    0.000000   0.000000   0.016174

                 ----------------------------------------
                 |  Time  |  1-e(secs)   |  2-e(secs)   |
                 ----------------------------------------
                 |  CPU   |       0.00   |       0.15   |
                 ----------------------------------------
                 |  WALL  |       0.00   |       0.16   |
                 ----------------------------------------
                               NWChem STEPPER Module
                               ---------------------


   Step sought for minimum. 
   Update Hessian used. 
   Nuclear Hessian initialized with UNIT matrix. 
   Dependent rotation vector no.                    3
   found in ECKART; linear geometry  assumed. 
   Number of modes removed with force (in the spectral representation)
   less than:   0.000000 is:    0
   PARTIT has partitioned the input hessian 
   and gradient into two subspaces;  An 
   "external" hessian and gradient composed 
   of                     5  independent translations 
   and rotations, and an "internal" hessian 
   and gradient with a dimension of                     1
               e-diff         g-norm     g-max   
 value     -109.5717346023  0.022873  0.016174
 thres        0.0001000000  0.010000  0.000800
  trust radius =     0.10
   Calculating the Newton-Raphson step. 
  The length (norm) of the STEP is   0.022873

  The lowest few components in the bases 
  generated by the spectral decomposition 
  of the internal hessian (non-zero force). 

  Component  Hessian     Grad      Step   Scaled-Step
  ---------  --------  --------  -------- -----------
       1     0.10D+01  -.23D-01  0.23D-01  0.23D-01

  Clean-up the step; truncate at:   0.000001
  In cartesian coordinates; norm of this step is:   0.022873
         Walk statistics for step:   1
     Previous actual total energy:   0.000000000000D+00
      Current actual total energy:  -0.109571734602D+03
         Actual energy difference:  -0.109571734602D+03 threshold:         0.100000D-03
    Second order energy predicted:   0.000000000000D+00
             Ratio of differences:   0.000000000000D+00
               Fixed trust radius:   0.100000000000D+00
   Number of negative eigenvalues:   0
   Max absolute value of Gradient:   0.161735371257D-01 threshold:         0.800000D-03
                    Gradient norm:   0.228728355546D-01 threshold:         0.100000D-01
                RMS Gradient norm:   0.161735371257D-01
  Largest component of step v-tor:   0.228730000000D-01
  New 2nd order energy prediction:  -0.261583303141D-03



  ------------------- New geometry -------------------


                         Geometry "g-1-step" -> "g-1-step"
                         ---------------------------------

 Output coordinates in angstroms (scale by  1.889725989 to convert to a.u.)

  No.       Tag          Charge          X              Y              Z
 ---- ---------------- ---------- -------------- -------------- --------------
    1 N                    7.0000     0.00000000     0.00000000    -0.53999609
    2 N                    7.0000     0.00000000     0.00000000     0.53999609

      Atomic Mass 
      ----------- 

      N                 14.003070


 Effective nuclear repulsion energy (a.u.)      24.0091417483

            Nuclear Dipole moment (a.u.) 
            ----------------------------
        X                 Y               Z
 ---------------- ---------------- ----------------
     0.0000000000     0.0000000000     0.0000000000

 ==============================================================================
                                internuclear distances
 ------------------------------------------------------------------------------
       center one      |      center two      | atomic units |  angstroms
 ------------------------------------------------------------------------------
    2 N                |   1 N                |     2.04089  |     1.07999
 ------------------------------------------------------------------------------
                         number of included internuclear distances:          1
 ==============================================================================




                                 NWChem DFT Module
                                 -----------------




 Summary of "ao basis" -> "ao basis" (cartesian)
 ------------------------------------------------------------------------------
       Tag                 Description            Shells   Functions and Types
 ---------------- ------------------------------  ------  ---------------------
 N                     6-311++G(3df,3pd)            13       45   5s4p3d1f


  Caching 1-el integrals 

            General Information
            -------------------
          SCF calculation type: DFT
          Wavefunction type:  closed shell.
          No. of atoms     :     2
          No. of electrons :    14
           Alpha electrons :     7
            Beta electrons :     7
          Charge           :     0
          Spin multiplicity:     1
          Use of symmetry is: off; symmetry adaption is: off
          Maximum number of iterations: ***
          AO basis - number of functions:    90
                     number of shells:    26
          Convergence on energy requested: 1.00D-06
          Convergence on density requested: 1.00D-05
          Convergence on gradient requested: 5.00D-04

              XC Information
              --------------
                  TPSS metaGGA Exchange Functional  1.000          
             TPSS03 metaGGA Correlation Functional  1.000          

             Grid Information
             ----------------
          Grid used for XC integration:  medium    
          Radial quadrature: Mura-Knowles        
          Angular quadrature: Lebedev. 
          Tag              B.-S. Rad. Rad. Pts. Rad. Cut. Ang. Pts.
          ---              ---------- --------- --------- ---------
          N                   0.65       49           8.0       434
          Grid pruning is: on 
          Number of quadrature shells:    98
          Spatial weights used:  Erf1

          Convergence Information
          -----------------------
          Convergence aids based upon iterative change in 
          total energy or number of iterations. 
          Levelshifting, if invoked, occurs when the 
          HOMO/LUMO gap drops below (HL_TOL): 1.00D-02
          DIIS, if invoked, will attempt to extrapolate 
          using up to (NFOCK): 10 stored Fock matrices.

                    Damping( 0%)  Levelshifting(0.5)       DIIS
                  --------------- ------------------- ---------------
          dE  on:    start            ASAP                start   
          dE off:    2 iters        *** iters           *** iters 


      Screening Tolerance Information
      -------------------------------
          Density screening/tol_rho: 1.00D-10
          AO Gaussian exp screening on grid/accAOfunc:  14
          CD Gaussian exp screening on grid/accCDfunc:  20
          XC Gaussian exp screening on grid/accXCfunc:  20
          Schwarz screening/accCoul: 1.00D-08


 Loading old vectors from job with title :



   Time after variat. SCF:      1.5
   Time prior to 1st pass:      1.5

 Integral file          = ./N2.xyz.aoints.00
 Record size in doubles =    65536    No. of integs per rec  =    43688
 Max. records in memory =       18    Max. records in file   = 11665930
 No. of bits per label  =        8    No. of bits per value  =       64


 #quartets = 6.177D+04 #integrals = 2.256D+06 #direct =  0.0% #cached =100.0%


File balance: exchanges=     0  moved=     0  time=   0.0


 Grid_pts file          = ./N2.xyz.gridpts.00
 Record size in doubles =  12289        No. of grid_pts per rec  =   3070
 Max. records in memory =      2        Max. recs in file   =  62213238


           Memory utilization after 1st SCF pass: 
           Heap Space remaining (MW):       11.90            11900100
          Stack Space remaining (MW):       13.11            13106644

   convergence    iter        energy       DeltaE   RMS-Dens  Diis-err    time
 ---------------- ----- ----------------- --------- --------- ---------  ------
 d= 0,ls=0.0,diis     1   -109.5694315012 -1.34D+02  1.87D-03  3.63D-03     2.0
 d= 0,ls=0.0,diis     2   -109.5717500076 -2.32D-03  2.98D-04  7.71D-04     2.0
 d= 0,ls=0.0,diis     3   -109.5705016003  1.25D-03  8.03D-05  7.76D-05     2.1
 d= 0,ls=0.0,diis     4   -109.5708464755 -3.45D-04  2.73D-05  2.79D-07     2.2
 d= 0,ls=0.0,diis     5   -109.5708318184  1.47D-05  3.71D-06  8.48D-08     2.2
 d= 0,ls=0.0,diis     6   -109.5708318810 -6.27D-08  3.86D-06  9.40D-08     2.3


         Total DFT energy =     -109.570831881029
      One electron energy =     -194.789491751789
           Coulomb energy =       74.874732226206
          Exchange energy =      -13.208605551631
       Correlation energy =       -0.456608552094
 Nuclear repulsion energy =       24.009141748278

 Numeric. integr. density =       14.000000728678

     Total iterative time =      0.8s



                       DFT Final Molecular Orbital Analysis
                       ------------------------------------

 Vector    1  Occ=2.000000D+00  E=-1.427618D+01
              MO Center= -2.3D-17,  3.8D-17, -2.7D-04, r^2= 3.1D-01
   Bfn.  Coefficient  Atom+Function         Bfn.  Coefficient  Atom+Function  
  ----- ------------  ---------------      ----- ------------  ---------------
     1      0.393581  1 N  s                 46      0.393384  2 N  s          
     2      0.330538  1 N  s                 47      0.330372  2 N  s          

 Vector    2  Occ=2.000000D+00  E=-1.427460D+01
              MO Center= -2.1D-17,  3.0D-17,  2.7D-04, r^2= 3.1D-01
   Bfn.  Coefficient  Atom+Function         Bfn.  Coefficient  Atom+Function  
  ----- ------------  ---------------      ----- ------------  ---------------
     1      0.393484  1 N  s                 46     -0.393681  2 N  s          
     2      0.330573  1 N  s                 47     -0.330739  2 N  s          

 Vector    3  Occ=2.000000D+00  E=-1.125222D+00
              MO Center=  1.2D-15,  8.5D-17, -1.5D-07, r^2= 4.4D-01
   Bfn.  Coefficient  Atom+Function         Bfn.  Coefficient  Atom+Function  
  ----- ------------  ---------------      ----- ------------  ---------------
     6      0.346183  1 N  s                 51      0.346182  2 N  s          
    10      0.300967  1 N  s                 55      0.300967  2 N  s          

 Vector    4  Occ=2.000000D+00  E=-5.708973D-01
              MO Center=  6.1D-16,  8.6D-16, -2.3D-06, r^2= 1.3D+00
   Bfn.  Coefficient  Atom+Function         Bfn.  Coefficient  Atom+Function  
  ----- ------------  ---------------      ----- ------------  ---------------
    14      0.475605  1 N  s                 59     -0.475605  2 N  s          
     6      0.308903  1 N  s                 51     -0.308903  2 N  s          
    13     -0.284722  1 N  pz                58     -0.284721  2 N  pz         
    10      0.281393  1 N  s                 55     -0.281392  2 N  s          

 Vector    5  Occ=2.000000D+00  E=-5.110596D-01
              MO Center= -9.4D-15, -9.5D-15, -4.8D-07, r^2= 8.9D-01
   Bfn.  Coefficient  Atom+Function         Bfn.  Coefficient  Atom+Function  
  ----- ------------  ---------------      ----- ------------  ---------------
     8      0.189827  1 N  py                53      0.189827  2 N  py         
     7      0.173887  1 N  px                52      0.173887  2 N  px         
    12      0.165473  1 N  py                57      0.165473  2 N  py         
     4      0.157946  1 N  py                49      0.157946  2 N  py         
    11      0.151578  1 N  px                56      0.151578  2 N  px         

 Vector    6  Occ=2.000000D+00  E=-5.110596D-01
              MO Center= -5.8D-15,  4.6D-15, -4.8D-07, r^2= 8.9D-01
   Bfn.  Coefficient  Atom+Function         Bfn.  Coefficient  Atom+Function  
  ----- ------------  ---------------      ----- ------------  ---------------
     7      0.189827  1 N  px                52      0.189827  2 N  px         
     8     -0.173887  1 N  py                53     -0.173887  2 N  py         
    11      0.165473  1 N  px                56      0.165473  2 N  px         
     3      0.157946  1 N  px                48      0.157946  2 N  px         
    12     -0.151578  1 N  py                57     -0.151578  2 N  py         

 Vector    7  Occ=2.000000D+00  E=-4.526075D-01
              MO Center=  1.2D-14,  4.1D-15,  2.4D-06, r^2= 1.3D+00
   Bfn.  Coefficient  Atom+Function         Bfn.  Coefficient  Atom+Function  
  ----- ------------  ---------------      ----- ------------  ---------------
    10      0.430886  1 N  s                 55      0.430887  2 N  s          
     9     -0.261065  1 N  pz                54      0.261065  2 N  pz         
    13     -0.237198  1 N  pz                58      0.237199  2 N  pz         
     5     -0.226429  1 N  pz                50      0.226429  2 N  pz         

 Vector    8  Occ=0.000000D+00  E=-1.301625D-01
              MO Center= -1.4D-15, -1.0D-15,  4.4D-07, r^2= 1.4D+00
   Bfn.  Coefficient  Atom+Function         Bfn.  Coefficient  Atom+Function  
  ----- ------------  ---------------      ----- ------------  ---------------
    11      0.439263  1 N  px                56     -0.439264  2 N  px         
     7      0.257959  1 N  px                52     -0.257959  2 N  px         
    12     -0.245912  1 N  py                57      0.245912  2 N  py         
     3      0.209216  1 N  px                48     -0.209217  2 N  px         

 Vector    9  Occ=0.000000D+00  E=-1.301625D-01
              MO Center= -3.2D-15, -3.3D-15,  4.4D-07, r^2= 1.4D+00
   Bfn.  Coefficient  Atom+Function         Bfn.  Coefficient  Atom+Function  
  ----- ------------  ---------------      ----- ------------  ---------------
    12      0.439263  1 N  py                57     -0.439264  2 N  py         
     8      0.257959  1 N  py                53     -0.257959  2 N  py         
    11      0.245912  1 N  px                56     -0.245912  2 N  px         
     4      0.209216  1 N  py                49     -0.209217  2 N  py         

 Vector   10  Occ=0.000000D+00  E= 4.286807D-02
              MO Center= -3.6D-15,  2.2D-14, -3.0D-06, r^2= 6.0D+00
   Bfn.  Coefficient  Atom+Function         Bfn.  Coefficient  Atom+Function  
  ----- ------------  ---------------      ----- ------------  ---------------
    14      1.014896  1 N  s                 59      1.014910  2 N  s          
     6     -0.256342  1 N  s                 51     -0.256342  2 N  s          
    35     -0.243720  1 N  dzz               80     -0.243722  2 N  dzz        
    30     -0.184168  1 N  dxx               33     -0.184168  1 N  dyy        
    75     -0.184168  2 N  dxx               78     -0.184168  2 N  dyy        

 Vector   11  Occ=0.000000D+00  E= 7.442916D-02
              MO Center= -1.6D-14,  1.4D-14,  5.5D-07, r^2= 9.1D+00
   Bfn.  Coefficient  Atom+Function         Bfn.  Coefficient  Atom+Function  
  ----- ------------  ---------------      ----- ------------  ---------------
    14     10.099220  1 N  s                 59    -10.099218  2 N  s          
    10     -6.444487  1 N  s                 55      6.444487  2 N  s          
    13     -3.746438  1 N  pz                58     -3.746438  2 N  pz         
    17      3.455624  1 N  pz                62      3.455622  2 N  pz         
    35     -0.989453  1 N  dzz               80      0.989452  2 N  dzz        

 Vector   12  Occ=0.000000D+00  E= 8.294600D-02
              MO Center= -2.3D-16,  2.8D-16, -1.1D-06, r^2= 6.6D+00
   Bfn.  Coefficient  Atom+Function         Bfn.  Coefficient  Atom+Function  
  ----- ------------  ---------------      ----- ------------  ---------------
    15      0.520508  1 N  px                60      0.520507  2 N  px         
    16      0.330882  1 N  py                61      0.330881  2 N  py         
    11     -0.163407  1 N  px                56     -0.163407  2 N  px         

 Vector   13  Occ=0.000000D+00  E= 8.294600D-02
              MO Center=  9.8D-15, -1.6D-14, -1.1D-06, r^2= 6.6D+00
   Bfn.  Coefficient  Atom+Function         Bfn.  Coefficient  Atom+Function  
  ----- ------------  ---------------      ----- ------------  ---------------
    16      0.520508  1 N  py                61      0.520507  2 N  py         
    15     -0.330882  1 N  px                60     -0.330881  2 N  px         
    12     -0.163407  1 N  py                57     -0.163407  2 N  py         

 Vector   14  Occ=0.000000D+00  E= 1.247162D-01
              MO Center= -5.7D-15, -6.0D-15,  2.2D-06, r^2= 7.9D+00
   Bfn.  Coefficient  Atom+Function         Bfn.  Coefficient  Atom+Function  
  ----- ------------  ---------------      ----- ------------  ---------------
    17      1.561979  1 N  pz                62     -1.561981  2 N  pz         
    10     -0.165932  1 N  s                 55     -0.165944  2 N  s          

 Vector   15  Occ=0.000000D+00  E= 1.643726D-01
              MO Center=  6.5D-15, -1.6D-14,  1.0D-06, r^2= 8.5D+00
   Bfn.  Coefficient  Atom+Function         Bfn.  Coefficient  Atom+Function  
  ----- ------------  ---------------      ----- ------------  ---------------
    16      2.120753  1 N  py                61     -2.120754  2 N  py         
    15     -0.771155  1 N  px                60      0.771156  2 N  px         
    12     -0.400949  1 N  py                57      0.400950  2 N  py         

 Vector   16  Occ=0.000000D+00  E= 1.643726D-01
              MO Center=  2.2D-15,  1.5D-15,  1.0D-06, r^2= 8.5D+00
   Bfn.  Coefficient  Atom+Function         Bfn.  Coefficient  Atom+Function  
  ----- ------------  ---------------      ----- ------------  ---------------
    15      2.120753  1 N  px                60     -2.120754  2 N  px         
    16      0.771155  1 N  py                61     -0.771156  2 N  py         
    11     -0.400949  1 N  px                56      0.400950  2 N  px         

 Vector   17  Occ=0.000000D+00  E= 2.395880D-01
              MO Center=  9.8D-15,  7.6D-15,  2.6D-07, r^2= 9.7D+00
   Bfn.  Coefficient  Atom+Function         Bfn.  Coefficient  Atom+Function  
  ----- ------------  ---------------      ----- ------------  ---------------
    14     47.543530  1 N  s                 59    -47.543530  2 N  s          
    17     12.297508  1 N  pz                62     12.297508  2 N  pz         
    30     -0.490686  1 N  dxx               33     -0.490686  1 N  dyy        
    75      0.490686  2 N  dxx               78      0.490686  2 N  dyy        
    13      0.425078  1 N  pz                58      0.425078  2 N  pz         

 Vector   18  Occ=0.000000D+00  E= 3.246405D-01
              MO Center= -2.5D-15, -1.3D-16, -2.9D-07, r^2= 2.3D+00
   Bfn.  Coefficient  Atom+Function         Bfn.  Coefficient  Atom+Function  
  ----- ------------  ---------------      ----- ------------  ---------------
    30      0.469430  1 N  dxx               33     -0.469430  1 N  dyy        
    75      0.469430  2 N  dxx               78     -0.469430  2 N  dyy        

 Vector   19  Occ=0.000000D+00  E= 3.246406D-01
              MO Center=  1.7D-15,  1.5D-15, -2.9D-07, r^2= 2.3D+00
   Bfn.  Coefficient  Atom+Function         Bfn.  Coefficient  Atom+Function  
  ----- ------------  ---------------      ----- ------------  ---------------
    31      0.938861  1 N  dxy               76      0.938860  2 N  dxy        

 Vector   20  Occ=0.000000D+00  E= 4.113272D-01
              MO Center=  2.8D-14,  1.9D-14, -1.5D-06, r^2= 4.5D+00
   Bfn.  Coefficient  Atom+Function         Bfn.  Coefficient  Atom+Function  
  ----- ------------  ---------------      ----- ------------  ---------------
    10     25.633788  1 N  s                 55    -25.633787  2 N  s          
    13     14.486296  1 N  pz                58     14.486296  2 N  pz         
    14     -5.301878  1 N  s                 59      5.301877  2 N  s          
    35      3.152210  1 N  dzz               80     -3.152211  2 N  dzz        
    17     -2.037996  1 N  pz                62     -2.037994  2 N  pz         

 Vector   21  Occ=0.000000D+00  E= 4.291769D-01
              MO Center= -9.2D-15, -1.8D-15, -6.6D-08, r^2= 4.8D+00
   Bfn.  Coefficient  Atom+Function         Bfn.  Coefficient  Atom+Function  
  ----- ------------  ---------------      ----- ------------  ---------------
    17      1.151195  1 N  pz                62     -1.151193  2 N  pz         
    14      1.017578  1 N  s                 59      1.017567  2 N  s          
    30     -1.007420  1 N  dxx               33     -1.007420  1 N  dyy        
    75     -1.007419  2 N  dxx               78     -1.007419  2 N  dyy        
    10      0.785316  1 N  s                 55      0.785275  2 N  s          

 Vector   22  Occ=0.000000D+00  E= 5.434671D-01
              MO Center=  8.8D-14,  1.4D-14, -9.8D-07, r^2= 3.6D+00
   Bfn.  Coefficient  Atom+Function         Bfn.  Coefficient  Atom+Function  
  ----- ------------  ---------------      ----- ------------  ---------------
    32      1.207082  1 N  dxz               77     -1.207080  2 N  dxz        
    11     -0.784307  1 N  px                56     -0.784308  2 N  px         
    15      0.368981  1 N  px                60      0.368980  2 N  px         
    34      0.187326  1 N  dyz               79     -0.187326  2 N  dyz        


 center of mass
 --------------
 x =   0.00000000 y =   0.00000000 z =   0.00000000

 moments of inertia (a.u.)
 ------------------
          29.162996980010           0.000000000000           0.000000000000
           0.000000000000          29.162996980010           0.000000000000
           0.000000000000           0.000000000000           0.000000000000

     Multipole analysis of the density
     ---------------------------------

     L   x y z        total         alpha         beta         nuclear
     -   - - -        -----         -----         ----         -------
     0   0 0 0     -0.000000     -7.000000     -7.000000     14.000000

     1   1 0 0      0.000000      0.000000      0.000000      0.000000
     1   0 1 0     -0.000000     -0.000000     -0.000000      0.000000
     1   0 0 1      0.000004      0.000002      0.000002      0.000000

     2   2 0 0     -7.818508     -3.909254     -3.909254      0.000000
     2   1 1 0     -0.000000     -0.000000     -0.000000      0.000000
     2   1 0 1      0.000000      0.000000      0.000000      0.000000
     2   0 2 0     -7.818508     -3.909254     -3.909254      0.000000
     2   0 1 1      0.000000      0.000000      0.000000      0.000000
     2   0 0 2     -8.754487    -11.666394    -11.666394     14.578302


 Parallel integral file used      59 records with       0 large values


            General Information
            -------------------
          SCF calculation type: DFT
          Wavefunction type:  closed shell.
          No. of atoms     :     2
          No. of electrons :    14
           Alpha electrons :     7
            Beta electrons :     7
          Charge           :     0
          Spin multiplicity:     1
          Use of symmetry is: off; symmetry adaption is: off
          Maximum number of iterations: ***
          AO basis - number of functions:    90
                     number of shells:    26
          Convergence on energy requested: 1.00D-06
          Convergence on density requested: 1.00D-05
          Convergence on gradient requested: 5.00D-04

              XC Information
              --------------
                  TPSS metaGGA Exchange Functional  1.000          
             TPSS03 metaGGA Correlation Functional  1.000          

             Grid Information
             ----------------
          Grid used for XC integration:  medium    
          Radial quadrature: Mura-Knowles        
          Angular quadrature: Lebedev. 
          Tag              B.-S. Rad. Rad. Pts. Rad. Cut. Ang. Pts.
          ---              ---------- --------- --------- ---------
          N                   0.65       49           8.0       434
          Grid pruning is: on 
          Number of quadrature shells:    98
          Spatial weights used:  Erf1

          Convergence Information
          -----------------------
          Convergence aids based upon iterative change in 
          total energy or number of iterations. 
          Levelshifting, if invoked, occurs when the 
          HOMO/LUMO gap drops below (HL_TOL): 1.00D-02
          DIIS, if invoked, will attempt to extrapolate 
          using up to (NFOCK): 10 stored Fock matrices.

                    Damping( 0%)  Levelshifting(0.5)       DIIS
                  --------------- ------------------- ---------------
          dE  on:    start            ASAP                start   
          dE off:    2 iters        *** iters           *** iters 


      Screening Tolerance Information
      -------------------------------
          Density screening/tol_rho: 1.00D-10
          AO Gaussian exp screening on grid/accAOfunc:  14
          CD Gaussian exp screening on grid/accCDfunc:  20
          XC Gaussian exp screening on grid/accXCfunc:  20
          Schwarz screening/accCoul: 1.00D-08



                            NWChem DFT Gradient Module
                            --------------------------



  charge          =   0.00
  wavefunction    = closed shell



                         DFT ENERGY GRADIENTS

    atom               coordinates                        gradient
                 x          y          z           x          y          z
   1 N       0.000000   0.000000  -1.020445   -0.000000  -0.000000   0.035560
   2 N       0.000000   0.000000   1.020445    0.000000   0.000000  -0.035560

                 ----------------------------------------
                 |  Time  |  1-e(secs)   |  2-e(secs)   |
                 ----------------------------------------
                 |  CPU   |       0.00   |       0.15   |
                 ----------------------------------------
                 |  WALL  |       0.00   |       0.15   |
                 ----------------------------------------
                               NWChem STEPPER Module
                               ---------------------


   Step sought for minimum. 
  Energy ratio, actual to predicted =   0.289772
   Update Hessian used. 
   Dependent rotation vector no.                    3
   found in ECKART; linear geometry  assumed. 
   Number of modes removed with force (in the spectral representation)
   less than:   0.000000 is:    0
   PARTIT has partitioned the input hessian 
   and gradient into two subspaces;  An 
   "external" hessian and gradient composed 
   of                     5  independent translations 
   and rotations, and an "internal" hessian 
   and gradient with a dimension of                     1
               e-diff         g-norm     g-max   
 value        0.0009027212  0.050289  0.035560
 thres        0.0001000000  0.010000  0.000800
  trust radius =     0.10
   Calculating the Newton-Raphson step. 
  The length (norm) of the STEP is   0.015722

  The lowest few components in the bases 
  generated by the spectral decomposition 
  of the internal hessian (non-zero force). 

  Component  Hessian     Grad      Step   Scaled-Step
  ---------  --------  --------  -------- -----------
       1     0.32D+01  0.50D-01  -.16D-01  -.16D-01

  Clean-up the step; truncate at:   0.000001
  In cartesian coordinates; norm of this step is:   0.015722
         Walk statistics for step:   2
     Previous actual total energy:  -0.109571734602D+03
      Current actual total energy:  -0.109570831881D+03
         Actual energy difference:   0.902721241602D-03 threshold:         0.100000D-03
    Second order energy predicted:  -0.261583303141D-03
             Ratio of differences:   0.289771959589D+00
               Fixed trust radius:   0.100000000000D+00
   Number of negative eigenvalues:   0
   Max absolute value of Gradient:   0.355595750509D-01 threshold:         0.800000D-03
                    Gradient norm:   0.502888333092D-01 threshold:         0.100000D-01
                RMS Gradient norm:   0.355595750509D-01
  Largest component of step v-tor:   0.157220000000D-01
  New 2nd order energy prediction:  -0.395331989028D-03



  ------------------- New geometry -------------------


                         Geometry "g-2-step" -> "g-2-step"
                         ---------------------------------

 Output coordinates in angstroms (scale by  1.889725989 to convert to a.u.)

  No.       Tag          Charge          X              Y              Z
 ---- ---------------- ---------- -------------- -------------- --------------
    1 N                    7.0000     0.00000000     0.00000000    -0.54587895
    2 N                    7.0000     0.00000000     0.00000000     0.54587895

      Atomic Mass 
      ----------- 

      N                 14.003070


 Effective nuclear repulsion energy (a.u.)      23.7503984812

            Nuclear Dipole moment (a.u.) 
            ----------------------------
        X                 Y               Z
 ---------------- ---------------- ----------------
     0.0000000000     0.0000000000     0.0000000000

 ==============================================================================
                                internuclear distances
 ------------------------------------------------------------------------------
       center one      |      center two      | atomic units |  angstroms
 ------------------------------------------------------------------------------
    2 N                |   1 N                |     2.06312  |     1.09176
 ------------------------------------------------------------------------------
                         number of included internuclear distances:          1
 ==============================================================================




                                 NWChem DFT Module
                                 -----------------




 Summary of "ao basis" -> "ao basis" (cartesian)
 ------------------------------------------------------------------------------
       Tag                 Description            Shells   Functions and Types
 ---------------- ------------------------------  ------  ---------------------
 N                     6-311++G(3df,3pd)            13       45   5s4p3d1f


  Caching 1-el integrals 

            General Information
            -------------------
          SCF calculation type: DFT
          Wavefunction type:  closed shell.
          No. of atoms     :     2
          No. of electrons :    14
           Alpha electrons :     7
            Beta electrons :     7
          Charge           :     0
          Spin multiplicity:     1
          Use of symmetry is: off; symmetry adaption is: off
          Maximum number of iterations: ***
          AO basis - number of functions:    90
                     number of shells:    26
          Convergence on energy requested: 1.00D-06
          Convergence on density requested: 1.00D-05
          Convergence on gradient requested: 5.00D-04

              XC Information
              --------------
                  TPSS metaGGA Exchange Functional  1.000          
             TPSS03 metaGGA Correlation Functional  1.000          

             Grid Information
             ----------------
          Grid used for XC integration:  medium    
          Radial quadrature: Mura-Knowles        
          Angular quadrature: Lebedev. 
          Tag              B.-S. Rad. Rad. Pts. Rad. Cut. Ang. Pts.
          ---              ---------- --------- --------- ---------
          N                   0.65       49           8.0       434
          Grid pruning is: on 
          Number of quadrature shells:    98
          Spatial weights used:  Erf1

          Convergence Information
          -----------------------
          Convergence aids based upon iterative change in 
          total energy or number of iterations. 
          Levelshifting, if invoked, occurs when the 
          HOMO/LUMO gap drops below (HL_TOL): 1.00D-02
          DIIS, if invoked, will attempt to extrapolate 
          using up to (NFOCK): 10 stored Fock matrices.

                    Damping( 0%)  Levelshifting(0.5)       DIIS
                  --------------- ------------------- ---------------
          dE  on:    start            ASAP                start   
          dE off:    2 iters        *** iters           *** iters 


      Screening Tolerance Information
      -------------------------------
          Density screening/tol_rho: 1.00D-10
          AO Gaussian exp screening on grid/accAOfunc:  14
          CD Gaussian exp screening on grid/accCDfunc:  20
          XC Gaussian exp screening on grid/accXCfunc:  20
          Schwarz screening/accCoul: 1.00D-08


 Loading old vectors from job with title :



   Time after variat. SCF:      2.7
   Time prior to 1st pass:      2.7

 Integral file          = ./N2.xyz.aoints.00
 Record size in doubles =    65536    No. of integs per rec  =    43688
 Max. records in memory =       18    Max. records in file   = 11665117
 No. of bits per label  =        8    No. of bits per value  =       64


 #quartets = 6.176D+04 #integrals = 2.255D+06 #direct =  0.0% #cached =100.0%


File balance: exchanges=     0  moved=     0  time=   0.0


 Grid_pts file          = ./N2.xyz.gridpts.00
 Record size in doubles =  12289        No. of grid_pts per rec  =   3070
 Max. records in memory =      2        Max. recs in file   =  62208901


           Memory utilization after 1st SCF pass: 
           Heap Space remaining (MW):       11.90            11900100
          Stack Space remaining (MW):       13.11            13106644

   convergence    iter        energy       DeltaE   RMS-Dens  Diis-err    time
 ---------------- ----- ----------------- --------- --------- ---------  ------
 d= 0,ls=0.0,diis     1   -109.5722946186 -1.33D+02  1.32D-03  1.75D-03     3.0
 d= 0,ls=0.0,diis     2   -109.5709430216  1.35D-03  2.06D-04  3.56D-04     3.1
 d= 0,ls=0.0,diis     3   -109.5718615843 -9.19D-04  5.44D-05  3.82D-05     3.2
 d= 0,ls=0.0,diis     4   -109.5716233830  2.38D-04  1.78D-05  1.35D-07     3.2
 d= 0,ls=0.0,diis     5   -109.5716328061 -9.42D-06  2.34D-06  3.42D-08     3.3
 d= 0,ls=0.0,diis     6   -109.5716328778 -7.17D-08  2.14D-06  5.01D-08     3.5


         Total DFT energy =     -109.571632877809
      One electron energy =     -194.290208955156
           Coulomb energy =       74.617766240241
          Exchange energy =      -13.193697748699
       Correlation energy =       -0.455890895419
 Nuclear repulsion energy =       23.750398481224

 Numeric. integr. density =       13.999999754479

     Total iterative time =      0.8s



                       DFT Final Molecular Orbital Analysis
                       ------------------------------------

 Vector    1  Occ=2.000000D+00  E=-1.427977D+01
              MO Center=  6.4D-17,  6.6D-17, -4.6D-04, r^2= 3.2D-01
   Bfn.  Coefficient  Atom+Function         Bfn.  Coefficient  Atom+Function  
  ----- ------------  ---------------      ----- ------------  ---------------
     1      0.393679  1 N  s                 46      0.393345  2 N  s          
     2      0.330602  1 N  s                 47      0.330321  2 N  s          

 Vector    2  Occ=2.000000D+00  E=-1.427837D+01
              MO Center=  5.7D-17,  7.4D-17,  4.6D-04, r^2= 3.2D-01
   Bfn.  Coefficient  Atom+Function         Bfn.  Coefficient  Atom+Function  
  ----- ------------  ---------------      ----- ------------  ---------------
     1      0.393434  1 N  s                 46     -0.393768  2 N  s          
     2      0.330503  1 N  s                 47     -0.330783  2 N  s          

 Vector    3  Occ=2.000000D+00  E=-1.118794D+00
              MO Center=  1.1D-15, -1.9D-15, -2.4D-07, r^2= 4.5D-01
   Bfn.  Coefficient  Atom+Function         Bfn.  Coefficient  Atom+Function  
  ----- ------------  ---------------      ----- ------------  ---------------
     6      0.346980  1 N  s                 51      0.346979  2 N  s          
    10      0.303687  1 N  s                 55      0.303687  2 N  s          

 Vector    4  Occ=2.000000D+00  E=-5.740066D-01
              MO Center= -5.7D-16, -3.8D-15, -3.4D-06, r^2= 1.3D+00
   Bfn.  Coefficient  Atom+Function         Bfn.  Coefficient  Atom+Function  
  ----- ------------  ---------------      ----- ------------  ---------------
    14      0.460687  1 N  s                 59     -0.460687  2 N  s          
     6      0.312469  1 N  s                 51     -0.312468  2 N  s          
    10      0.303084  1 N  s                 55     -0.303082  2 N  s          
    13     -0.274344  1 N  pz                58     -0.274343  2 N  pz         

 Vector    5  Occ=2.000000D+00  E=-5.075537D-01
              MO Center=  3.6D-15, -1.2D-15, -7.4D-07, r^2= 9.0D-01
   Bfn.  Coefficient  Atom+Function         Bfn.  Coefficient  Atom+Function  
  ----- ------------  ---------------      ----- ------------  ---------------
     7      0.231025  1 N  px                52      0.231024  2 N  px         
    11      0.203349  1 N  px                56      0.203348  2 N  px         
     3      0.191950  1 N  px                48      0.191950  2 N  px         

 Vector    6  Occ=2.000000D+00  E=-5.075537D-01
              MO Center=  2.4D-16,  8.1D-16, -7.4D-07, r^2= 9.0D-01
   Bfn.  Coefficient  Atom+Function         Bfn.  Coefficient  Atom+Function  
  ----- ------------  ---------------      ----- ------------  ---------------
     8      0.231025  1 N  py                53      0.231024  2 N  py         
    12      0.203349  1 N  py                57      0.203348  2 N  py         
     4      0.191950  1 N  py                49      0.191950  2 N  py         

 Vector    7  Occ=2.000000D+00  E=-4.520999D-01
              MO Center= -4.3D-15,  3.5D-15,  3.5D-06, r^2= 1.3D+00
   Bfn.  Coefficient  Atom+Function         Bfn.  Coefficient  Atom+Function  
  ----- ------------  ---------------      ----- ------------  ---------------
    10      0.427785  1 N  s                 55      0.427785  2 N  s          
     9     -0.261715  1 N  pz                54      0.261716  2 N  pz         
    13     -0.236581  1 N  pz                58      0.236583  2 N  pz         
     5     -0.226028  1 N  pz                50      0.226029  2 N  pz         

 Vector    8  Occ=0.000000D+00  E=-1.355200D-01
              MO Center=  3.2D-15,  5.8D-16,  6.8D-07, r^2= 1.4D+00
   Bfn.  Coefficient  Atom+Function         Bfn.  Coefficient  Atom+Function  
  ----- ------------  ---------------      ----- ------------  ---------------
    11      0.495862  1 N  px                56     -0.495862  2 N  px         
     7      0.293883  1 N  px                52     -0.293883  2 N  px         
     3      0.238511  1 N  px                48     -0.238511  2 N  px         
    15      0.152641  1 N  px                60     -0.152641  2 N  px         

 Vector    9  Occ=0.000000D+00  E=-1.355200D-01
              MO Center=  3.1D-16,  6.5D-15,  6.8D-07, r^2= 1.4D+00
   Bfn.  Coefficient  Atom+Function         Bfn.  Coefficient  Atom+Function  
  ----- ------------  ---------------      ----- ------------  ---------------
    12      0.495862  1 N  py                57     -0.495862  2 N  py         
     8      0.293883  1 N  py                53     -0.293883  2 N  py         
     4      0.238511  1 N  py                49     -0.238511  2 N  py         
    16      0.152641  1 N  py                61     -0.152641  2 N  py         

 Vector   10  Occ=0.000000D+00  E= 4.231027D-02
              MO Center=  6.1D-15, -1.4D-14, -4.5D-06, r^2= 6.0D+00
   Bfn.  Coefficient  Atom+Function         Bfn.  Coefficient  Atom+Function  
  ----- ------------  ---------------      ----- ------------  ---------------
    14      1.014160  1 N  s                 59      1.014179  2 N  s          
     6     -0.256172  1 N  s                 51     -0.256171  2 N  s          
    35     -0.241591  1 N  dzz               80     -0.241594  2 N  dzz        
    30     -0.183234  1 N  dxx               33     -0.183234  1 N  dyy        
    75     -0.183233  2 N  dxx               78     -0.183233  2 N  dyy        

 Vector   11  Occ=0.000000D+00  E= 7.415419D-02
              MO Center=  6.2D-16, -1.7D-14,  6.9D-07, r^2= 9.1D+00
   Bfn.  Coefficient  Atom+Function         Bfn.  Coefficient  Atom+Function  
  ----- ------------  ---------------      ----- ------------  ---------------
    14      9.676964  1 N  s                 59     -9.676961  2 N  s          
    10     -5.982444  1 N  s                 55      5.982443  2 N  s          
    13     -3.541733  1 N  pz                58     -3.541734  2 N  pz         
    17      3.371092  1 N  pz                62      3.371090  2 N  pz         
    35     -0.947694  1 N  dzz               80      0.947693  2 N  dzz        

 Vector   12  Occ=0.000000D+00  E= 8.317394D-02
              MO Center= -2.2D-15,  1.6D-15, -1.6D-06, r^2= 6.6D+00
   Bfn.  Coefficient  Atom+Function         Bfn.  Coefficient  Atom+Function  
  ----- ------------  ---------------      ----- ------------  ---------------
    15      0.595375  1 N  px                60      0.595372  2 N  px         
    11     -0.188626  1 N  px                56     -0.188626  2 N  px         
    16      0.165451  1 N  py                61      0.165450  2 N  py         

 Vector   13  Occ=0.000000D+00  E= 8.317394D-02
              MO Center= -4.3D-15,  1.5D-14, -1.6D-06, r^2= 6.6D+00
   Bfn.  Coefficient  Atom+Function         Bfn.  Coefficient  Atom+Function  
  ----- ------------  ---------------      ----- ------------  ---------------
    16      0.595375  1 N  py                61      0.595372  2 N  py         
    12     -0.188626  1 N  py                57     -0.188626  2 N  py         
    15     -0.165451  1 N  px                60     -0.165450  2 N  px         

 Vector   14  Occ=0.000000D+00  E= 1.244799D-01
              MO Center= -2.8D-15,  3.3D-16,  3.4D-06, r^2= 7.9D+00
   Bfn.  Coefficient  Atom+Function         Bfn.  Coefficient  Atom+Function  
  ----- ------------  ---------------      ----- ------------  ---------------
    17      1.547337  1 N  pz                62     -1.547340  2 N  pz         
    10     -0.166501  1 N  s                 55     -0.166519  2 N  s          

 Vector   15  Occ=0.000000D+00  E= 1.637075D-01
              MO Center= -1.8D-14,  2.1D-15,  1.6D-06, r^2= 8.5D+00
   Bfn.  Coefficient  Atom+Function         Bfn.  Coefficient  Atom+Function  
  ----- ------------  ---------------      ----- ------------  ---------------
    15      2.210117  1 N  px                60     -2.210118  2 N  px         
    11     -0.411685  1 N  px                56      0.411685  2 N  px         
    16     -0.323447  1 N  py                61      0.323448  2 N  py         

 Vector   16  Occ=0.000000D+00  E= 1.637075D-01
              MO Center=  1.2D-14,  8.2D-14,  1.6D-06, r^2= 8.5D+00
   Bfn.  Coefficient  Atom+Function         Bfn.  Coefficient  Atom+Function  
  ----- ------------  ---------------      ----- ------------  ---------------
    16      2.210117  1 N  py                61     -2.210118  2 N  py         
    12     -0.411685  1 N  py                57      0.411685  2 N  py         
    15      0.323447  1 N  px                60     -0.323448  2 N  px         

 Vector   17  Occ=0.000000D+00  E= 2.391633D-01
              MO Center=  1.6D-14, -6.6D-14,  3.8D-07, r^2= 9.7D+00
   Bfn.  Coefficient  Atom+Function         Bfn.  Coefficient  Atom+Function  
  ----- ------------  ---------------      ----- ------------  ---------------
    14     46.009534  1 N  s                 59    -46.009535  2 N  s          
    17     12.028090  1 N  pz                62     12.028090  2 N  pz         
    30     -0.486464  1 N  dxx               33     -0.486464  1 N  dyy        
    75      0.486464  2 N  dxx               78      0.486464  2 N  dyy        
    13      0.398187  1 N  pz                58      0.398188  2 N  pz         

 Vector   18  Occ=0.000000D+00  E= 3.239801D-01
              MO Center=  2.9D-15,  1.7D-16, -4.3D-07, r^2= 2.3D+00
   Bfn.  Coefficient  Atom+Function         Bfn.  Coefficient  Atom+Function  
  ----- ------------  ---------------      ----- ------------  ---------------
    30      0.470591  1 N  dxx               33     -0.470591  1 N  dyy        
    75      0.470591  2 N  dxx               78     -0.470591  2 N  dyy        

 Vector   19  Occ=0.000000D+00  E= 3.239803D-01
              MO Center= -4.3D-16, -3.5D-15, -4.3D-07, r^2= 2.3D+00
   Bfn.  Coefficient  Atom+Function         Bfn.  Coefficient  Atom+Function  
  ----- ------------  ---------------      ----- ------------  ---------------
    31      0.941183  1 N  dxy               76      0.941181  2 N  dxy        

 Vector   20  Occ=0.000000D+00  E= 4.048631D-01
              MO Center=  1.5D-14,  5.4D-15, -2.0D-06, r^2= 4.4D+00
   Bfn.  Coefficient  Atom+Function         Bfn.  Coefficient  Atom+Function  
  ----- ------------  ---------------      ----- ------------  ---------------
    10     22.797461  1 N  s                 55    -22.797459  2 N  s          
    13     13.105450  1 N  pz                58     13.105450  2 N  pz         
    14     -5.726624  1 N  s                 59      5.726624  2 N  s          
    35      2.842673  1 N  dzz               80     -2.842674  2 N  dzz        
    17     -2.138029  1 N  pz                62     -2.138026  2 N  pz         

 Vector   21  Occ=0.000000D+00  E= 4.286409D-01
              MO Center=  4.4D-15, -1.2D-15, -2.0D-07, r^2= 4.8D+00
   Bfn.  Coefficient  Atom+Function         Bfn.  Coefficient  Atom+Function  
  ----- ------------  ---------------      ----- ------------  ---------------
    17      1.133491  1 N  pz                62     -1.133488  2 N  pz         
    14      1.026295  1 N  s                 59      1.026278  2 N  s          
    30     -1.012696  1 N  dxx               33     -1.012696  1 N  dyy        
    75     -1.012695  2 N  dxx               78     -1.012695  2 N  dyy        
    10      0.796889  1 N  s                 55      0.796843  2 N  s          

 Vector   22  Occ=0.000000D+00  E= 5.426822D-01
              MO Center= -1.1D-15,  3.9D-14, -1.4D-06, r^2= 3.6D+00
   Bfn.  Coefficient  Atom+Function         Bfn.  Coefficient  Atom+Function  
  ----- ------------  ---------------      ----- ------------  ---------------
    34      1.234819  1 N  dyz               79     -1.234816  2 N  dyz        
    12     -0.771346  1 N  py                57     -0.771347  2 N  py         
    16      0.361718  1 N  py                61      0.361716  2 N  py         


 center of mass
 --------------
 x =   0.00000000 y =   0.00000000 z =   0.00000000

 moments of inertia (a.u.)
 ------------------
          29.801877353240           0.000000000000           0.000000000000
           0.000000000000          29.801877353240           0.000000000000
           0.000000000000           0.000000000000           0.000000000000

     Multipole analysis of the density
     ---------------------------------

     L   x y z        total         alpha         beta         nuclear
     -   - - -        -----         -----         ----         -------
     0   0 0 0     -0.000000     -7.000000     -7.000000     14.000000

     1   1 0 0     -0.000000     -0.000000     -0.000000      0.000000
     1   0 1 0      0.000000      0.000000      0.000000      0.000000
     1   0 0 1      0.000006      0.000003      0.000003      0.000000

     2   2 0 0     -7.848205     -3.924103     -3.924103      0.000000
     2   1 1 0      0.000000      0.000000      0.000000      0.000000
     2   1 0 1      0.000000      0.000000      0.000000      0.000000
     2   0 2 0     -7.848205     -3.924103     -3.924103      0.000000
     2   0 1 1      0.000000      0.000000      0.000000      0.000000
     2   0 0 2     -8.757721    -11.827697    -11.827697     14.897672


 Parallel integral file used      60 records with       0 large values


            General Information
            -------------------
          SCF calculation type: DFT
          Wavefunction type:  closed shell.
          No. of atoms     :     2
          No. of electrons :    14
           Alpha electrons :     7
            Beta electrons :     7
          Charge           :     0
          Spin multiplicity:     1
          Use of symmetry is: off; symmetry adaption is: off
          Maximum number of iterations: ***
          AO basis - number of functions:    90
                     number of shells:    26
          Convergence on energy requested: 1.00D-06
          Convergence on density requested: 1.00D-05
          Convergence on gradient requested: 5.00D-04

              XC Information
              --------------
                  TPSS metaGGA Exchange Functional  1.000          
             TPSS03 metaGGA Correlation Functional  1.000          

             Grid Information
             ----------------
          Grid used for XC integration:  medium    
          Radial quadrature: Mura-Knowles        
          Angular quadrature: Lebedev. 
          Tag              B.-S. Rad. Rad. Pts. Rad. Cut. Ang. Pts.
          ---              ---------- --------- --------- ---------
          N                   0.65       49           8.0       434
          Grid pruning is: on 
          Number of quadrature shells:    98
          Spatial weights used:  Erf1

          Convergence Information
          -----------------------
[...]
     5     -0.226035  1 N  pz                50      0.226035  2 N  pz         

 Vector    8  Occ=0.000000D+00  E=-1.354233D-01
              MO Center= -2.2D-16,  8.1D-16, -1.2D-08, r^2= 1.4D+00
   Bfn.  Coefficient  Atom+Function         Bfn.  Coefficient  Atom+Function  
  ----- ------------  ---------------      ----- ------------  ---------------
    11      0.471380  1 N  px                56     -0.471380  2 N  px         
     7      0.279326  1 N  px                52     -0.279326  2 N  px         
     3      0.226693  1 N  px                48     -0.226693  2 N  px         
    12     -0.166377  1 N  py                57      0.166377  2 N  py         

 Vector    9  Occ=0.000000D+00  E=-1.354233D-01
              MO Center= -4.2D-16,  5.2D-18, -1.2D-08, r^2= 1.4D+00
   Bfn.  Coefficient  Atom+Function         Bfn.  Coefficient  Atom+Function  
  ----- ------------  ---------------      ----- ------------  ---------------
    12      0.471380  1 N  py                57     -0.471380  2 N  py         
     8      0.279326  1 N  py                53     -0.279326  2 N  py         
     4      0.226693  1 N  py                49     -0.226693  2 N  py         
    11      0.166377  1 N  px                56     -0.166377  2 N  px         

 Vector   10  Occ=0.000000D+00  E= 4.232053D-02
              MO Center= -2.8D-14, -1.7D-15,  5.8D-08, r^2= 6.0D+00
   Bfn.  Coefficient  Atom+Function         Bfn.  Coefficient  Atom+Function  
  ----- ------------  ---------------      ----- ------------  ---------------
    14      1.014183  1 N  s                 59      1.014183  2 N  s          
     6     -0.256175  1 N  s                 51     -0.256175  2 N  s          
    35     -0.241631  1 N  dzz               80     -0.241631  2 N  dzz        
    30     -0.183251  1 N  dxx               33     -0.183251  1 N  dyy        
    75     -0.183251  2 N  dxx               78     -0.183251  2 N  dyy        

 Vector   11  Occ=0.000000D+00  E= 7.415958D-02
              MO Center=  9.9D-15,  1.2D-14, -2.3D-08, r^2= 9.1D+00
   Bfn.  Coefficient  Atom+Function         Bfn.  Coefficient  Atom+Function  
  ----- ------------  ---------------      ----- ------------  ---------------
    14      9.684473  1 N  s                 59     -9.684473  2 N  s          
    10     -5.990748  1 N  s                 55      5.990748  2 N  s          
    13     -3.545470  1 N  pz                58     -3.545470  2 N  pz         
    17      3.372608  1 N  pz                62      3.372608  2 N  pz         
    35     -0.948470  1 N  dzz               80      0.948470  2 N  dzz        

 Vector   12  Occ=0.000000D+00  E= 8.316986D-02
              MO Center=  2.7D-14, -4.3D-16,  2.5D-08, r^2= 6.6D+00
   Bfn.  Coefficient  Atom+Function         Bfn.  Coefficient  Atom+Function  
  ----- ------------  ---------------      ----- ------------  ---------------
    15      0.617507  1 N  px                60      0.617507  2 N  px         
    11     -0.195606  1 N  px                56     -0.195606  2 N  px         

 Vector   13  Occ=0.000000D+00  E= 8.316986D-02
              MO Center= -1.4D-16,  3.1D-15,  2.5D-08, r^2= 6.6D+00
   Bfn.  Coefficient  Atom+Function         Bfn.  Coefficient  Atom+Function  
  ----- ------------  ---------------      ----- ------------  ---------------
    16      0.617507  1 N  py                61      0.617507  2 N  py         
    12     -0.195606  1 N  py                57     -0.195606  2 N  py         

 Vector   14  Occ=0.000000D+00  E= 1.244842D-01
              MO Center= -7.3D-17, -5.7D-16, -3.1D-08, r^2= 7.9D+00
   Bfn.  Coefficient  Atom+Function         Bfn.  Coefficient  Atom+Function  
  ----- ------------  ---------------      ----- ------------  ---------------
    17      1.547601  1 N  pz                62     -1.547602  2 N  pz         
    10     -0.166502  1 N  s                 55     -0.166502  2 N  s          

 Vector   15  Occ=0.000000D+00  E= 1.637195D-01
              MO Center= -1.4D-13, -3.9D-14, -2.4D-08, r^2= 8.5D+00
   Bfn.  Coefficient  Atom+Function         Bfn.  Coefficient  Atom+Function  
  ----- ------------  ---------------      ----- ------------  ---------------
    15      2.156493  1 N  px                60     -2.156493  2 N  px         
    16      0.583623  1 N  py                61     -0.583623  2 N  py         
    11     -0.401800  1 N  px                56      0.401800  2 N  px         

 Vector   16  Occ=0.000000D+00  E= 1.637195D-01
              MO Center=  1.5D-14, -5.6D-14, -2.4D-08, r^2= 8.5D+00
   Bfn.  Coefficient  Atom+Function         Bfn.  Coefficient  Atom+Function  
  ----- ------------  ---------------      ----- ------------  ---------------
    16      2.156493  1 N  py                61     -2.156493  2 N  py         
    15     -0.583623  1 N  px                60      0.583623  2 N  px         
    12     -0.401800  1 N  py                57      0.401800  2 N  py         

 Vector   17  Occ=0.000000D+00  E= 2.391712D-01
              MO Center=  1.1D-13,  8.4D-14, -1.1D-08, r^2= 9.7D+00
   Bfn.  Coefficient  Atom+Function         Bfn.  Coefficient  Atom+Function  
  ----- ------------  ---------------      ----- ------------  ---------------
    14     46.036876  1 N  s                 59    -46.036876  2 N  s          
    17     12.032926  1 N  pz                62     12.032926  2 N  pz         
    30     -0.486540  1 N  dxx               33     -0.486540  1 N  dyy        
    75      0.486540  2 N  dxx               78      0.486540  2 N  dyy        
    13      0.398636  1 N  pz                58      0.398636  2 N  pz         

 Vector   18  Occ=0.000000D+00  E= 3.239916D-01
              MO Center= -1.4D-15, -3.0D-17,  4.3D-09, r^2= 2.3D+00
   Bfn.  Coefficient  Atom+Function         Bfn.  Coefficient  Atom+Function  
  ----- ------------  ---------------      ----- ------------  ---------------
    30      0.470570  1 N  dxx               33     -0.470570  1 N  dyy        
    75      0.470570  2 N  dxx               78     -0.470570  2 N  dyy        

 Vector   19  Occ=0.000000D+00  E= 3.239919D-01
              MO Center=  6.7D-16,  9.1D-16,  4.3D-09, r^2= 2.3D+00
   Bfn.  Coefficient  Atom+Function         Bfn.  Coefficient  Atom+Function  
  ----- ------------  ---------------      ----- ------------  ---------------
    31      0.941140  1 N  dxy               76      0.941140  2 N  dxy        

 Vector   20  Occ=0.000000D+00  E= 4.049888D-01
              MO Center= -5.0D-15,  1.0D-14,  3.6D-08, r^2= 4.4D+00
   Bfn.  Coefficient  Atom+Function         Bfn.  Coefficient  Atom+Function  
  ----- ------------  ---------------      ----- ------------  ---------------
    10     22.847738  1 N  s                 55    -22.847738  2 N  s          
    13     13.130262  1 N  pz                58     13.130262  2 N  pz         
    14     -5.718991  1 N  s                 59      5.718991  2 N  s          
    35      2.848295  1 N  dzz               80     -2.848295  2 N  dzz        
    17     -2.136215  1 N  pz                62     -2.136216  2 N  pz         

 Vector   21  Occ=0.000000D+00  E= 4.286502D-01
              MO Center= -2.9D-15, -3.8D-15, -1.8D-08, r^2= 4.8D+00
   Bfn.  Coefficient  Atom+Function         Bfn.  Coefficient  Atom+Function  
  ----- ------------  ---------------      ----- ------------  ---------------
    17      1.133810  1 N  pz                62     -1.133810  2 N  pz         
    14      1.026129  1 N  s                 59      1.026128  2 N  s          
    30     -1.012600  1 N  dxx               33     -1.012600  1 N  dyy        
    75     -1.012599  2 N  dxx               78     -1.012599  2 N  dyy        
    10      0.796657  1 N  s                 55      0.796660  2 N  s          

 Vector   22  Occ=0.000000D+00  E= 5.426987D-01
              MO Center=  2.7D-14, -3.4D-15,  3.5D-08, r^2= 3.6D+00
   Bfn.  Coefficient  Atom+Function         Bfn.  Coefficient  Atom+Function  
  ----- ------------  ---------------      ----- ------------  ---------------
    32      1.228849  1 N  dxz               77     -1.228849  2 N  dxz        
    11     -0.768179  1 N  px                56     -0.768179  2 N  px         
    15      0.360253  1 N  px                60      0.360253  2 N  px         


 center of mass
 --------------
 x =   0.00000000 y =   0.00000000 z =   0.00000000

 moments of inertia (a.u.)
 ------------------
          29.790206911884           0.000000000000           0.000000000000
           0.000000000000          29.790206911884           0.000000000000
           0.000000000000           0.000000000000           0.000000000000

     Multipole analysis of the density
     ---------------------------------

     L   x y z        total         alpha         beta         nuclear
     -   - - -        -----         -----         ----         -------
     0   0 0 0     -0.000000     -7.000000     -7.000000     14.000000

     1   1 0 0      0.000000      0.000000      0.000000      0.000000
     1   0 1 0      0.000000      0.000000      0.000000      0.000000
     1   0 0 1     -0.000000     -0.000000     -0.000000      0.000000

     2   2 0 0     -7.847675     -3.923837     -3.923837      0.000000
     2   1 1 0     -0.000000     -0.000000     -0.000000      0.000000
     2   1 0 1     -0.000000     -0.000000     -0.000000      0.000000
     2   0 2 0     -7.847675     -3.923837     -3.923837      0.000000
     2   0 1 1     -0.000000     -0.000000     -0.000000      0.000000
     2   0 0 2     -8.757654    -11.824746    -11.824746     14.891838


 Parallel integral file used      57 records with       0 large values


            General Information
            -------------------
          SCF calculation type: DFT
          Wavefunction type:  closed shell.
          No. of atoms     :     2
          No. of electrons :    14
           Alpha electrons :     7
            Beta electrons :     7
          Charge           :     0
          Spin multiplicity:     1
          Use of symmetry is: off; symmetry adaption is: off
          Maximum number of iterations: ***
          AO basis - number of functions:    90
                     number of shells:    26
          Convergence on energy requested: 1.00D-06
          Convergence on density requested: 1.00D-05
          Convergence on gradient requested: 5.00D-04

              XC Information
              --------------
                  TPSS metaGGA Exchange Functional  1.000          
             TPSS03 metaGGA Correlation Functional  1.000          

             Grid Information
             ----------------
          Grid used for XC integration:  medium    
          Radial quadrature: Mura-Knowles        
          Angular quadrature: Lebedev. 
          Tag              B.-S. Rad. Rad. Pts. Rad. Cut. Ang. Pts.
          ---              ---------- --------- --------- ---------
          N                   0.65       49           8.0       434
          Grid pruning is: on 
          Number of quadrature shells:    98
          Spatial weights used:  Erf1

          Convergence Information
          -----------------------
          Convergence aids based upon iterative change in 
          total energy or number of iterations. 
          Levelshifting, if invoked, occurs when the 
          HOMO/LUMO gap drops below (HL_TOL): 1.00D-02
          DIIS, if invoked, will attempt to extrapolate 
          using up to (NFOCK): 10 stored Fock matrices.

                    Damping( 0%)  Levelshifting(0.5)       DIIS
                  --------------- ------------------- ---------------
          dE  on:    start            ASAP                start   
          dE off:    2 iters        *** iters           *** iters 


      Screening Tolerance Information
      -------------------------------
          Density screening/tol_rho: 1.00D-10
          AO Gaussian exp screening on grid/accAOfunc:  14
          CD Gaussian exp screening on grid/accCDfunc:  20
          XC Gaussian exp screening on grid/accXCfunc:  20
          Schwarz screening/accCoul: 1.00D-08



                            NWChem DFT Gradient Module
                            --------------------------



  charge          =   0.00
  wavefunction    = closed shell



                         DFT ENERGY GRADIENTS

    atom               coordinates                        gradient
                 x          y          z           x          y          z
   1 N       0.000000   0.000000  -1.031360    0.000000   0.000000  -0.000024
   2 N       0.000000   0.000000   1.031360   -0.000000  -0.000000   0.000024

                 ----------------------------------------
                 |  Time  |  1-e(secs)   |  2-e(secs)   |
                 ----------------------------------------
                 |  CPU   |       0.00   |       0.15   |
                 ----------------------------------------
                 |  WALL  |       0.00   |       0.15   |
                 ----------------------------------------
                               NWChem STEPPER Module
                               ---------------------


   Step sought for minimum. 
   Actual energy difference is :    7.3824133579591944E-006
   2nd order predicted energy difference  was :   -1.3273125055946791E-007
   One of these is below the energy  tolerance:    1.0000000000000000E-004
   Backstepping possibilities are NO 
   longer considered appropriate. 
   Update Hessian used. 
   Dependent rotation vector no.                    3
   found in ECKART; linear geometry  assumed. 
   Number of modes removed with force (in the spectral representation)
   less than:   0.000000 is:    0
   PARTIT has partitioned the input hessian 
   and gradient into two subspaces;  An 
   "external" hessian and gradient composed 
   of                     5  independent translations 
   and rotations, and an "internal" hessian 
   and gradient with a dimension of                     1
               e-diff         g-norm     g-max   
 value        0.0000073824  0.000035  0.000024
 thres        0.0001000000  0.010000  0.000800
   ENERGY =   -109.57162549539528     
   The hessian exhibits the "proper" 
   structure, and the gradient and energy 
   convergence criterion has been met.  
   This geometry walk is HISTORY.
   Calculating the Newton-Raphson step. 
  The length (norm) of the STEP is   0.000011

  The lowest few components in the bases 
  generated by the spectral decomposition 
  of the internal hessian (non-zero force). 

  Component  Hessian     Grad      Step   Scaled-Step
  ---------  --------  --------  -------- -----------
       1     0.31D+01  -.35D-04  0.11D-04  0.11D-04

  Clean-up the step; truncate at:   0.000001
  In cartesian coordinates; norm of this step is:   0.000011



  ---------------- Converged geometry ----------------


                         Geometry "g-4-step" -> "g-4-step"
                         ---------------------------------

 Output coordinates in angstroms (scale by  1.889725989 to convert to a.u.)

  No.       Tag          Charge          X              Y              Z
 ---- ---------------- ---------- -------------- -------------- --------------
    1 N                    7.0000     0.00000000     0.00000000    -0.54577206
    2 N                    7.0000     0.00000000     0.00000000     0.54577206

      Atomic Mass 
      ----------- 

      N                 14.003070


 Effective nuclear repulsion energy (a.u.)      23.7550501859

            Nuclear Dipole moment (a.u.) 
            ----------------------------
        X                 Y               Z
 ---------------- ---------------- ----------------
     0.0000000000     0.0000000000     0.0000000000

 ==============================================================================
                                internuclear distances
 ------------------------------------------------------------------------------
       center one      |      center two      | atomic units |  angstroms
 ------------------------------------------------------------------------------
    2 N                |   1 N                |     2.06272  |     1.09154
 ------------------------------------------------------------------------------
                         number of included internuclear distances:          1
 ==============================================================================




 Task  times  cpu:        4.5s     wall:        7.4s


                                NWChem Input Module
                                -------------------


 Summary of allocated global arrays
-----------------------------------
  No active global arrays



                         GA Statistics for process    0
                         ------------------------------

       create   destroy   get      put      acc     scatter   gather  read&inc
calls:  519      519     6476     3259      608        0        0      293     
number of processes/call 1.55e+00 1.59e+00 3.84e+00 0.00e+00 0.00e+00
bytes total:             5.22e+07 9.36e+06 2.41e+07 0.00e+00 0.00e+00 2.34e+03
bytes remote:            3.67e+07 3.92e+06 1.86e+07 0.00e+00 0.00e+00 0.00e+00
Max memory consumed for GA by this process: 583200 bytes

MA_summarize_allocated_blocks: starting scan ...
MA_summarize_allocated_blocks: scan completed: 0 heap blocks, 0 stack blocks
MA usage statistics:

	allocation statistics:
					      heap	     stack
					      ----	     -----
	current number of blocks	         0	         0
	maximum number of blocks	        23	        51
	current total bytes		         0	         0
	maximum total bytes		   9656200	  42214632
	maximum total K-bytes		      9657	     42215
	maximum total M-bytes		        10	        43


                                     CITATION
                                     --------
                Please cite the following reference when publishing
                           results obtained with NWChem:

                 M. Valiev, E.J. Bylaska, N. Govind, K. Kowalski,
              T.P. Straatsma, H.J.J. van Dam, D. Wang, J. Nieplocha,
                        E. Apra, T.L. Windus, W.A. de Jong
                 "NWChem: a comprehensive and scalable open-source
                  solution for large scale molecular simulations"
                      Comput. Phys. Commun. 181, 1477 (2010)
                           doi:10.1016/j.cpc.2010.04.018

                                      AUTHORS
                                      -------
          E. Apra, E. J. Bylaska, W. A. de Jong, N. Govind, K. Kowalski,
       T. P. Straatsma, M. Valiev, H. J. J. van Dam, D. Wang, T. L. Windus,
        J. Hammond, J. Autschbach, K. Bhaskaran-Nair, J. Brabec, K. Lopata,
       S. A. Fischer, S. Krishnamoorthy, W. Ma, M. Klemm, O. Villa, Y. Chen,
    V. Anisimov, F. Aquino, S. Hirata, M. T. Hackler, T. Risthaus, M. Malagoli,
       A. Marenich, A. Otero-de-la-Roza, J. Mullin, P. Nichols, R. Peverati,
     J. Pittner, Y. Zhao, P.-D. Fan, A. Fonari, M. Williamson, R. J. Harrison,
       J. R. Rehr, M. Dupuis, D. Silverstein, D. M. A. Smith, J. Nieplocha,
        V. Tipparaju, M. Krishnan, B. E. Van Kuiken, A. Vazquez-Mayagoitia,
        L. Jensen, M. Swart, Q. Wu, T. Van Voorhis, A. A. Auer, M. Nooijen,
      L. D. Crosby, E. Brown, G. Cisneros, G. I. Fann, H. Fruchtl, J. Garza,
        K. Hirao, R. A. Kendall, J. A. Nichols, K. Tsemekhman, K. Wolinski,
     J. Anchell, D. E. Bernholdt, P. Borowski, T. Clark, D. Clerc, H. Dachsel,
   M. J. O. Deegan, K. Dyall, D. Elwood, E. Glendening, M. Gutowski, A. C. Hess,
         J. Jaffe, B. G. Johnson, J. Ju, R. Kobayashi, R. Kutteh, Z. Lin,
   R. Littlefield, X. Long, B. Meng, T. Nakajima, S. Niu, L. Pollack, M. Rosing,
   K. Glaesemann, G. Sandrone, M. Stave, H. Taylor, G. Thomas, J. H. van Lenthe,
                               A. T. Wong, Z. Zhang.

 Total times  cpu:        4.5s     wall:        7.5s
