[1537857311.367433] [r8n4:12343:0]         sys.c:744  MXM  WARN  Conflicting CPU frequencies detected, using: 1599.85
[1537857311.377639] [r8n4:12350:0]         sys.c:744  MXM  WARN  Conflicting CPU frequencies detected, using: 1696.43
[1537857311.378451] [r8n4:12346:0]         sys.c:744  MXM  WARN  Conflicting CPU frequencies detected, using: 1696.43
[1537857311.379037] [r8n4:12344:0]         sys.c:744  MXM  WARN  Conflicting CPU frequencies detected, using: 1696.43
[1537857311.379087] [r8n4:12345:0]         sys.c:744  MXM  WARN  Conflicting CPU frequencies detected, using: 1696.43
[1537857311.379095] [r8n4:12348:0]         sys.c:744  MXM  WARN  Conflicting CPU frequencies detected, using: 1696.43
[1537857311.379141] [r8n4:12349:0]         sys.c:744  MXM  WARN  Conflicting CPU frequencies detected, using: 1696.43
[1537857311.379179] [r8n4:12347:0]         sys.c:744  MXM  WARN  Conflicting CPU frequencies detected, using: 1696.43
[1537857311.385894] [r8n4:12354:0]         sys.c:744  MXM  WARN  Conflicting CPU frequencies detected, using: 1799.21
[1537857311.386706] [r8n4:12353:0]         sys.c:744  MXM  WARN  Conflicting CPU frequencies detected, using: 1799.21
[1537857311.418668] [r8n4:12362:0]         sys.c:744  MXM  WARN  Conflicting CPU frequencies detected, using: 1999.56
[1537857311.418696] [r8n4:12360:0]         sys.c:744  MXM  WARN  Conflicting CPU frequencies detected, using: 1999.56
[1537857311.419391] [r8n4:12357:0]         sys.c:744  MXM  WARN  Conflicting CPU frequencies detected, using: 1999.56
[1537857311.419438] [r8n4:12364:0]         sys.c:744  MXM  WARN  Conflicting CPU frequencies detected, using: 1999.56
[1537857311.419620] [r8n4:12358:0]         sys.c:744  MXM  WARN  Conflicting CPU frequencies detected, using: 1999.56
[1537857311.419685] [r8n4:12366:0]         sys.c:744  MXM  WARN  Conflicting CPU frequencies detected, using: 1999.56
 argument  1 = /storage/home/bikashp/nwchem_run/rabeet/mgbl19/nwmgbl19/N2O.xyz.nw
                                         
                                         


              Northwest Computational Chemistry Package (NWChem) 6.6
              ------------------------------------------------------


                    Environmental Molecular Sciences Laboratory
                       Pacific Northwest National Laboratory
                                Richland, WA 99352

                              Copyright (c) 1994-2015
                       Pacific Northwest National Laboratory
                            Battelle Memorial Institute

             NWChem is an open-source computational chemistry package
                        distributed under the terms of the
                      Educational Community License (ECL) 2.0
             A copy of the license is included with this distribution
                              in the LICENSE.TXT file

                                  ACKNOWLEDGMENT
                                  --------------

            This software and its documentation were developed at the
            EMSL at Pacific Northwest National Laboratory, a multiprogram
            national laboratory, operated for the U.S. Department of Energy
            by Battelle under Contract Number DE-AC05-76RL01830. Support
            for this work was provided by the Department of Energy Office
            of Biological and Environmental Research, Office of Basic
            Energy Sciences, and the Office of Advanced Scientific Computing.


           Job information
           ---------------

    hostname        = r8n4.niserhpc.org
    program         = /home/bikashp/Code/nwchem-6.6_tpssloc/bin/LINUX64/nwchem
    date            = Tue Sep 25 12:05:14 2018

    compiled        = Tue_Sep_18_16:24:59_2018
    source          = /home/bikashp/Code/nwchem-6.6_tpssloc
    nwchem branch   = 6.6
    nwchem revision = 27746
    ga revision     = 10594
    input           = /storage/home/bikashp/nwchem_run/rabeet/mgbl19/nwmgbl19/N2O.xyz.nw
    prefix          = N2O.xyz.
    data base       = ./N2O.xyz.db
    status          = startup
    nproc           =       16
    time left       =     -1s



           Memory information
           ------------------

    heap     =   13107196 doubles =    100.0 Mbytes
    stack    =   13107201 doubles =    100.0 Mbytes
    global   =   26214400 doubles =    200.0 Mbytes (distinct from heap & stack)
    total    =   52428797 doubles =    400.0 Mbytes
    verify   = yes
    hardfail = no 


           Directory information
           ---------------------

  0 permanent = .
  0 scratch   = .




                                NWChem Input Module
                                -------------------



 Scaling coordinates for geometry "geometry" by  1.889725989
 (inverse scale =  0.529177249)



                             Geometry "geometry" -> ""
                             -------------------------

 Output coordinates in angstroms (scale by  1.889725989 to convert to a.u.)

  No.       Tag          Charge          X              Y              Z
 ---- ---------------- ---------- -------------- -------------- --------------
    1 N                    7.0000     0.00000000     0.00000000    -1.19567273
    2 N                    7.0000     0.00000000     0.00000000    -0.07511273
    3 O                    8.0000     0.00000000     0.00000000     1.11193727

      Atomic Mass 
      ----------- 

      N                 14.003070
      O                 15.994910


 Effective nuclear repulsion energy (a.u.)      60.9461057890

            Nuclear Dipole moment (a.u.) 
            ----------------------------
        X                 Y               Z
 ---------------- ---------------- ----------------
     0.0000000000     0.0000000000    -0.0000000000


            XYZ format geometry
            -------------------
     3
 geometry
 N                     0.00000000     0.00000000    -1.19567273
 N                     0.00000000     0.00000000    -0.07511273
 O                     0.00000000     0.00000000     1.11193727

 ==============================================================================
                                internuclear distances
 ------------------------------------------------------------------------------
       center one      |      center two      | atomic units |  angstroms
 ------------------------------------------------------------------------------
    2 N                |   1 N                |     2.11755  |     1.12056
    3 O                |   2 N                |     2.24320  |     1.18705
 ------------------------------------------------------------------------------
                         number of included internuclear distances:          2
 ==============================================================================



 ==============================================================================
                                 internuclear angles
 ------------------------------------------------------------------------------
        center 1       |       center 2       |       center 3       |  degrees
 ------------------------------------------------------------------------------
    1 N                |   2 N                |   3 O                |   180.00
 ------------------------------------------------------------------------------
                            number of included internuclear angles:          1
 ==============================================================================





 Summary of "ao basis" -> "" (cartesian)
 ------------------------------------------------------------------------------
       Tag                 Description            Shells   Functions and Types
 ---------------- ------------------------------  ------  ---------------------
 *                     6-311++G(3df,3pd)              on all atoms 




                           NWChem Geometry Optimization
                           ----------------------------



                                 NWChem DFT Module
                                 -----------------


                      Basis "ao basis" -> "ao basis" (cartesian)
                      -----
  N (Nitrogen)
  ------------
            Exponent  Coefficients 
       -------------- ---------------------------------------------------------
  1 S  6.29348000E+03  0.001970
  1 S  9.49044000E+02  0.014961
  1 S  2.18776000E+02  0.073501
  1 S  6.36916000E+01  0.248937
  1 S  1.88282000E+01  0.602460
  1 S  2.72023000E+00  0.256202

  2 S  3.06331000E+01  0.111906
  2 S  7.02614000E+00  0.921666
  2 S  2.11205000E+00 -0.002569

  3 P  3.06331000E+01  0.038312
  3 P  7.02614000E+00  0.237403
  3 P  2.11205000E+00  0.817592

  4 S  6.84009000E-01  1.000000

  5 P  6.84009000E-01  1.000000

  6 S  2.00878000E-01  1.000000

  7 P  2.00878000E-01  1.000000

  8 S  6.39000000E-02  1.000000

  9 P  6.39000000E-02  1.000000

 10 D  3.65200000E+00  1.000000

 11 D  9.13000000E-01  1.000000

 12 D  2.28250000E-01  1.000000

 13 F  1.00000000E+00  1.000000

  O (Oxygen)
  ----------
            Exponent  Coefficients 
       -------------- ---------------------------------------------------------
  1 S  8.58850000E+03  0.001895
  1 S  1.29723000E+03  0.014386
  1 S  2.99296000E+02  0.070732
  1 S  8.73771000E+01  0.240001
  1 S  2.56789000E+01  0.594797
  1 S  3.74004000E+00  0.280802

  2 S  4.21175000E+01  0.113889
  2 S  9.62837000E+00  0.920811
  2 S  2.85332000E+00 -0.003274

  3 P  4.21175000E+01  0.036511
  3 P  9.62837000E+00  0.237153
  3 P  2.85332000E+00  0.819702

  4 S  9.05661000E-01  1.000000

  5 P  9.05661000E-01  1.000000

  6 S  2.55611000E-01  1.000000

  7 P  2.55611000E-01  1.000000

  8 S  8.45000000E-02  1.000000

  9 P  8.45000000E-02  1.000000

 10 D  5.16000000E+00  1.000000

 11 D  1.29200000E+00  1.000000

 12 D  3.22500000E-01  1.000000

 13 F  1.40000000E+00  1.000000



 Summary of "ao basis" -> "ao basis" (cartesian)
 ------------------------------------------------------------------------------
       Tag                 Description            Shells   Functions and Types
 ---------------- ------------------------------  ------  ---------------------
 N                     6-311++G(3df,3pd)            13       45   5s4p3d1f
 O                     6-311++G(3df,3pd)            13       45   5s4p3d1f




 Summary of "ao basis" -> "ao basis" (cartesian)
 ------------------------------------------------------------------------------
       Tag                 Description            Shells   Functions and Types
 ---------------- ------------------------------  ------  ---------------------
 N                     6-311++G(3df,3pd)            13       45   5s4p3d1f
 O                     6-311++G(3df,3pd)            13       45   5s4p3d1f


  Caching 1-el integrals 

            General Information
            -------------------
          SCF calculation type: DFT
          Wavefunction type:  closed shell.
          No. of atoms     :     3
          No. of electrons :    22
           Alpha electrons :    11
            Beta electrons :    11
          Charge           :     0
          Spin multiplicity:     1
          Use of symmetry is: off; symmetry adaption is: off
          Maximum number of iterations: ***
          AO basis - number of functions:   135
                     number of shells:    39
          Convergence on energy requested: 1.00D-06
          Convergence on density requested: 1.00D-05
          Convergence on gradient requested: 5.00D-04

              XC Information
              --------------
                  TPSS metaGGA Exchange Functional  1.000          
             TPSS03 metaGGA Correlation Functional  1.000          

             Grid Information
             ----------------
          Grid used for XC integration:  medium    
          Radial quadrature: Mura-Knowles        
          Angular quadrature: Lebedev. 
          Tag              B.-S. Rad. Rad. Pts. Rad. Cut. Ang. Pts.
          ---              ---------- --------- --------- ---------
          N                   0.65       49          10.0       434
          O                   0.60       49          10.0       434
          Grid pruning is: on 
          Number of quadrature shells:   147
          Spatial weights used:  Erf1

          Convergence Information
          -----------------------
          Convergence aids based upon iterative change in 
          total energy or number of iterations. 
          Levelshifting, if invoked, occurs when the 
          HOMO/LUMO gap drops below (HL_TOL): 1.00D-02
          DIIS, if invoked, will attempt to extrapolate 
          using up to (NFOCK): 10 stored Fock matrices.

                    Damping( 0%)  Levelshifting(0.5)       DIIS
                  --------------- ------------------- ---------------
          dE  on:    start            ASAP                start   
          dE off:    2 iters        *** iters           *** iters 


      Screening Tolerance Information
      -------------------------------
          Density screening/tol_rho: 1.00D-10
          AO Gaussian exp screening on grid/accAOfunc:  14
          CD Gaussian exp screening on grid/accCDfunc:  20
          XC Gaussian exp screening on grid/accXCfunc:  20
          Schwarz screening/accCoul: 1.00D-08


      Superposition of Atomic Density Guess
      -------------------------------------

 Sum of atomic energies:        -183.39372175

      Non-variational initial energy
      ------------------------------

 Total energy =    -184.518973
 1-e energy   =    -371.163535
 2-e energy   =     125.698457
 HOMO         =      -0.376251
 LUMO         =       0.062113

   Time after variat. SCF:      0.4
   Time prior to 1st pass:      0.4

 Integral file          = ./N2O.xyz.aoints.00
 Record size in doubles =    65536    No. of integs per rec  =    43688
 Max. records in memory =       83    Max. records in file   = 11666364
 No. of bits per label  =        8    No. of bits per value  =       64


 #quartets = 2.885D+05 #integrals = 1.027D+07 #direct =  0.0% #cached =100.0%


File balance: exchanges=     0  moved=     0  time=   0.0


 Grid_pts file          = ./N2O.xyz.gridpts.00
 Record size in doubles =  12289        No. of grid_pts per rec  =   3070
 Max. records in memory =      3        Max. recs in file   =  62215548


           Memory utilization after 1st SCF pass: 
           Heap Space remaining (MW):        7.63             7627340
          Stack Space remaining (MW):       13.11            13106396

   convergence    iter        energy       DeltaE   RMS-Dens  Diis-err    time
 ---------------- ----- ----------------- --------- --------- ---------  ------
 d= 0,ls=0.0,diis     1   -184.6585715167 -2.46D+02  2.45D-02  1.70D+00     1.0
 d= 0,ls=0.0,diis     2   -184.3435448452  3.15D-01  2.31D-02  4.99D+00     1.2
 d= 0,ls=0.0,diis     3   -184.7438972350 -4.00D-01  5.72D-03  2.47D-01     1.4
 d= 0,ls=0.0,diis     4   -184.6804613084  6.34D-02  4.90D-03  7.47D-01     1.6
 d= 0,ls=0.0,diis     5   -184.7567858619 -7.63D-02  1.03D-03  6.18D-03     1.8
  Resetting Diis
 d= 0,ls=0.0,diis     6   -184.7597815295 -3.00D-03  1.81D-04  2.50D-04     2.0
 d= 0,ls=0.0,diis     7   -184.7593218400  4.60D-04  8.26D-05  1.40D-05     2.3
 d= 0,ls=0.0,diis     8   -184.7595162159 -1.94D-04  6.83D-05  1.98D-04     2.5
 d= 0,ls=0.0,diis     9   -184.7594496684  6.65D-05  1.44D-05  2.66D-06     2.7
 d= 0,ls=0.0,diis    10   -184.7594115871  3.81D-05  1.08D-05  7.24D-07     2.9
 d= 0,ls=0.0,diis    11   -184.7594080985  3.49D-06  1.73D-06  9.49D-09     3.1
 d= 0,ls=0.0,diis    12   -184.7594097210 -1.62D-06  8.99D-07  1.74D-10     3.3
 d= 0,ls=0.0,diis    13   -184.7594096517  6.93D-08  1.41D-07  1.26D-11     3.5


         Total DFT energy =     -184.759409651700
      One electron energy =     -370.541123355468
           Coulomb energy =      147.054543856280
          Exchange energy =      -21.464979322411
       Correlation energy =       -0.753956619054
 Nuclear repulsion energy =       60.946105788952

 Numeric. integr. density =       22.000000748993

     Total iterative time =      3.0s



                       DFT Final Molecular Orbital Analysis
                       ------------------------------------

 Vector    1  Occ=2.000000D+00  E=-1.907361D+01
              MO Center= -4.4D-17, -9.1D-17,  1.1D+00, r^2= 1.5D-02
   Bfn.  Coefficient  Atom+Function         Bfn.  Coefficient  Atom+Function  
  ----- ------------  ---------------      ----- ------------  ---------------
    91      0.550764  3 O  s                 92      0.470972  3 O  s          

 Vector    2  Occ=2.000000D+00  E=-1.439272D+01
              MO Center=  5.7D-17, -1.9D-17, -7.5D-02, r^2= 2.0D-02
   Bfn.  Coefficient  Atom+Function         Bfn.  Coefficient  Atom+Function  
  ----- ------------  ---------------      ----- ------------  ---------------
    46      0.556570  2 N  s                 47      0.467414  2 N  s          

 Vector    3  Occ=2.000000D+00  E=-1.427741D+01
              MO Center= -4.3D-16,  7.2D-18, -1.2D+00, r^2= 2.0D-02
   Bfn.  Coefficient  Atom+Function         Bfn.  Coefficient  Atom+Function  
  ----- ------------  ---------------      ----- ------------  ---------------
     1      0.556661  1 N  s                  2      0.467475  1 N  s          

 Vector    4  Occ=2.000000D+00  E=-1.238649D+00
              MO Center=  4.6D-15,  6.5D-16,  3.5D-01, r^2= 6.9D-01
   Bfn.  Coefficient  Atom+Function         Bfn.  Coefficient  Atom+Function  
  ----- ------------  ---------------      ----- ------------  ---------------
   100      0.374365  3 O  s                 51      0.365217  2 N  s          
    55      0.365025  2 N  s                 96      0.361998  3 O  s          
    14     -0.187652  1 N  s                 47     -0.152989  2 N  s          

 Vector    5  Occ=2.000000D+00  E=-1.084374D+00
              MO Center=  2.0D-17,  1.1D-15, -3.1D-01, r^2= 8.6D-01
   Bfn.  Coefficient  Atom+Function         Bfn.  Coefficient  Atom+Function  
  ----- ------------  ---------------      ----- ------------  ---------------
    55      0.716264  2 N  s                100     -0.559156  3 O  s          
     6      0.311884  1 N  s                 96     -0.283764  3 O  s          
    14      0.230162  1 N  s                 54     -0.217346  2 N  pz         
    59     -0.194871  2 N  s                 50     -0.181352  2 N  pz         
    51      0.178025  2 N  s                103      0.169215  3 O  pz         

 Vector    6  Occ=2.000000D+00  E=-6.314711D-01
              MO Center= -3.0D-15,  2.2D-15,  1.0D+00, r^2= 1.1D+00
   Bfn.  Coefficient  Atom+Function         Bfn.  Coefficient  Atom+Function  
  ----- ------------  ---------------      ----- ------------  ---------------
    10      0.742519  1 N  s                 14      0.630040  1 N  s          
    59     -0.563072  2 N  s                 58      0.531994  2 N  pz         
    55     -0.437403  2 N  s                103      0.429144  3 O  pz         
   100      0.387363  3 O  s                 96      0.313687  3 O  s          
    13      0.290349  1 N  pz                62      0.239539  2 N  pz         

 Vector    7  Occ=2.000000D+00  E=-6.007273D-01
              MO Center= -2.7D-16, -3.4D-15,  3.1D-02, r^2= 1.1D+00
   Bfn.  Coefficient  Atom+Function         Bfn.  Coefficient  Atom+Function  
  ----- ------------  ---------------      ----- ------------  ---------------
    53      0.283096  2 N  py               102      0.259902  3 O  py         
    49      0.234043  2 N  py                57      0.227840  2 N  py         
    79     -0.199283  2 N  dyz               98      0.187594  3 O  py         

 Vector    8  Occ=2.000000D+00  E=-6.007273D-01
              MO Center= -1.6D-18,  1.1D-15,  3.1D-02, r^2= 1.1D+00
   Bfn.  Coefficient  Atom+Function         Bfn.  Coefficient  Atom+Function  
  ----- ------------  ---------------      ----- ------------  ---------------
    52      0.283096  2 N  px               101      0.259902  3 O  px         
    48      0.234043  2 N  px                56      0.227840  2 N  px         
    77     -0.199283  2 N  dxz               97      0.187594  3 O  px         

 Vector    9  Occ=2.000000D+00  E=-5.013591D-01
              MO Center=  2.3D-15,  3.4D-15, -1.3D+00, r^2= 1.1D+00
   Bfn.  Coefficient  Atom+Function         Bfn.  Coefficient  Atom+Function  
  ----- ------------  ---------------      ----- ------------  ---------------
    10      0.767399  1 N  s                 55     -0.749250  2 N  s          
   100      0.523384  3 O  s                103     -0.476726  3 O  pz         
    58     -0.441580  2 N  pz                13     -0.304259  1 N  pz         
     6      0.280480  1 N  s                 80     -0.248332  2 N  dzz        
     9     -0.229277  1 N  pz                 5     -0.212362  1 N  pz         

 Vector   10  Occ=2.000000D+00  E=-3.885797D-01
              MO Center= -2.9D-15, -1.7D-15,  1.6D-01, r^2= 1.8D+00
   Bfn.  Coefficient  Atom+Function         Bfn.  Coefficient  Atom+Function  
  ----- ------------  ---------------      ----- ------------  ---------------
   101      0.306551  3 O  px                97      0.286545  3 O  px         
    93      0.219207  3 O  px                 7     -0.213212  1 N  px         
    11     -0.199623  1 N  px                 3     -0.173972  1 N  px         
   102      0.156069  3 O  py         

 Vector   11  Occ=2.000000D+00  E=-3.885797D-01
              MO Center=  4.1D-16, -2.5D-15,  1.6D-01, r^2= 1.8D+00
   Bfn.  Coefficient  Atom+Function         Bfn.  Coefficient  Atom+Function  
  ----- ------------  ---------------      ----- ------------  ---------------
   102      0.306551  3 O  py                98      0.286545  3 O  py         
    94      0.219207  3 O  py                 8     -0.213212  1 N  py         
    12     -0.199623  1 N  py                 4     -0.173972  1 N  py         
   101     -0.156069  3 O  px         

 Vector   12  Occ=0.000000D+00  E=-1.249779D-01
              MO Center=  3.8D-15, -6.6D-15, -3.8D-01, r^2= 1.7D+00
   Bfn.  Coefficient  Atom+Function         Bfn.  Coefficient  Atom+Function  
  ----- ------------  ---------------      ----- ------------  ---------------
    57     -0.372372  2 N  py                12      0.342759  1 N  py         
    56      0.334672  2 N  px                11     -0.308056  1 N  px         
    53     -0.243566  2 N  py               102      0.224202  3 O  py         
    52      0.218907  2 N  px                 8      0.203108  1 N  py         
   101     -0.201503  3 O  px                49     -0.188854  2 N  py         

 Vector   13  Occ=0.000000D+00  E=-1.249779D-01
              MO Center=  4.8D-15,  4.4D-15, -3.8D-01, r^2= 1.7D+00
   Bfn.  Coefficient  Atom+Function         Bfn.  Coefficient  Atom+Function  
  ----- ------------  ---------------      ----- ------------  ---------------
    56     -0.372372  2 N  px                11      0.342759  1 N  px         
    57     -0.334672  2 N  py                12      0.308056  1 N  py         
    52     -0.243566  2 N  px               101      0.224202  3 O  px         
    53     -0.218907  2 N  py                 7      0.203108  1 N  px         
   102      0.201503  3 O  py                48     -0.188854  2 N  px         

 Vector   14  Occ=0.000000D+00  E=-4.198574D-02
              MO Center=  1.5D-14,  3.5D-15,  1.8D-01, r^2= 3.9D+00
   Bfn.  Coefficient  Atom+Function         Bfn.  Coefficient  Atom+Function  
  ----- ------------  ---------------      ----- ------------  ---------------
    10      2.913306  1 N  s                104     -2.154756  3 O  s          
    55     -2.089069  2 N  s                 58      2.062857  2 N  pz         
    14      1.963676  1 N  s                 13      1.657948  1 N  pz         
    62      1.500954  2 N  pz                59      0.773335  2 N  s          
    80     -0.709638  2 N  dzz              107      0.459873  3 O  pz         

 Vector   15  Occ=0.000000D+00  E= 7.159028D-02
              MO Center=  1.5D-14,  1.3D-14, -1.0D+00, r^2= 1.0D+01
   Bfn.  Coefficient  Atom+Function         Bfn.  Coefficient  Atom+Function  
  ----- ------------  ---------------      ----- ------------  ---------------
    14     17.912637  1 N  s                 59    -15.034603  2 N  s          
    62      7.987873  2 N  pz                55      5.349648  2 N  s          
    17      5.126443  1 N  pz                10     -5.055056  1 N  s          
   104     -4.284443  3 O  s                 13     -2.712602  1 N  pz         
    58     -2.188372  2 N  pz                80      1.739359  2 N  dzz        

 Vector   16  Occ=0.000000D+00  E= 8.055805D-02
              MO Center= -1.3D-13,  5.4D-14, -3.9D-01, r^2= 6.6D+00
   Bfn.  Coefficient  Atom+Function         Bfn.  Coefficient  Atom+Function  
  ----- ------------  ---------------      ----- ------------  ---------------
    60      0.713734  2 N  px                15      0.415924  1 N  px         
    11     -0.379090  1 N  px                77     -0.303366  2 N  dxz        
    61     -0.293343  2 N  py                16     -0.170944  1 N  py         
    12      0.155805  1 N  py         

 Vector   17  Occ=0.000000D+00  E= 8.055805D-02
              MO Center=  2.8D-14,  6.3D-14, -3.9D-01, r^2= 6.6D+00
   Bfn.  Coefficient  Atom+Function         Bfn.  Coefficient  Atom+Function  
  ----- ------------  ---------------      ----- ------------  ---------------
    61      0.713734  2 N  py                16      0.415924  1 N  py         
    12     -0.379090  1 N  py                79     -0.303366  2 N  dyz        
    60      0.293343  2 N  px                15      0.170944  1 N  px         
    11     -0.155805  1 N  px         

 Vector   18  Occ=0.000000D+00  E= 8.697186D-02
              MO Center=  7.5D-14, -1.1D-13, -2.7D-01, r^2= 5.6D+00
   Bfn.  Coefficient  Atom+Function         Bfn.  Coefficient  Atom+Function  
  ----- ------------  ---------------      ----- ------------  ---------------
    14      6.819288  1 N  s                104     -4.751884  3 O  s          
    55     -4.635141  2 N  s                 10      4.588534  1 N  s          
    62      4.074602  2 N  pz                58      2.994302  2 N  pz         
    13      2.950171  1 N  pz                59     -1.818819  2 N  s          
    17      0.750513  1 N  pz               107      0.602751  3 O  pz         

 Vector   19  Occ=0.000000D+00  E= 1.143329D-01
              MO Center= -7.8D-15,  7.9D-15,  1.2D-01, r^2= 9.5D+00
   Bfn.  Coefficient  Atom+Function         Bfn.  Coefficient  Atom+Function  
  ----- ------------  ---------------      ----- ------------  ---------------
    10      6.006305  1 N  s                 59      5.609566  2 N  s          
    55     -5.338436  2 N  s                104     -3.385853  3 O  s          
    58      3.200367  2 N  pz                14     -3.106973  1 N  s          
    13      3.063083  1 N  pz                17     -2.307396  1 N  pz         
   107      1.451864  3 O  pz                62      1.396858  2 N  pz         

 Vector   20  Occ=0.000000D+00  E= 1.497386D-01
              MO Center= -2.3D-14, -3.4D-14, -7.7D-01, r^2= 8.7D+00
   Bfn.  Coefficient  Atom+Function         Bfn.  Coefficient  Atom+Function  
  ----- ------------  ---------------      ----- ------------  ---------------
    16      1.778977  1 N  py                61     -1.598301  2 N  py         
    15      1.135936  1 N  px                60     -1.020569  2 N  px         
    12     -0.293334  1 N  py                57      0.247682  2 N  py         
    11     -0.187303  1 N  px                56      0.158153  2 N  px         

 Vector   21  Occ=0.000000D+00  E= 1.497386D-01
              MO Center=  2.7D-14, -1.6D-14, -7.7D-01, r^2= 8.7D+00
   Bfn.  Coefficient  Atom+Function         Bfn.  Coefficient  Atom+Function  
  ----- ------------  ---------------      ----- ------------  ---------------
    15      1.778977  1 N  px                60     -1.598301  2 N  px         
    16     -1.135936  1 N  py                61      1.020569  2 N  py         
    11     -0.293334  1 N  px                56      0.247682  2 N  px         
    12      0.187303  1 N  py                57     -0.158153  2 N  py         

 Vector   22  Occ=0.000000D+00  E= 2.015174D-01
              MO Center=  2.6D-15,  1.5D-14, -7.7D-02, r^2= 8.8D+00
   Bfn.  Coefficient  Atom+Function         Bfn.  Coefficient  Atom+Function  
  ----- ------------  ---------------      ----- ------------  ---------------
    14     21.247932  1 N  s                 59    -20.474243  2 N  s          
    17      6.468136  1 N  pz                62      4.444998  2 N  pz         
    58      1.534278  2 N  pz               107      1.240450  3 O  pz         
   100     -0.895495  3 O  s                104     -0.899791  3 O  s          
    13      0.762053  1 N  pz               103      0.685511  3 O  pz         

 Vector   23  Occ=0.000000D+00  E= 2.499264D-01
              MO Center=  2.1D-15, -1.9D-13,  6.2D-01, r^2= 8.7D+00
   Bfn.  Coefficient  Atom+Function         Bfn.  Coefficient  Atom+Function  
  ----- ------------  ---------------      ----- ------------  ---------------
    61      4.338904  2 N  py               106     -2.947033  3 O  py         
    16     -2.410071  1 N  py               102      0.376342  3 O  py         
    79      0.175841  2 N  dyz               12      0.168227  1 N  py         

 Vector   24  Occ=0.000000D+00  E= 2.499264D-01
              MO Center=  6.3D-14,  5.1D-16,  6.2D-01, r^2= 8.7D+00
   Bfn.  Coefficient  Atom+Function         Bfn.  Coefficient  Atom+Function  
  ----- ------------  ---------------      ----- ------------  ---------------
    60      4.338904  2 N  px               105     -2.947033  3 O  px         
    15     -2.410071  1 N  px               101      0.376342  3 O  px         
    77      0.175841  2 N  dxz               11      0.168227  1 N  px         

 Vector   25  Occ=0.000000D+00  E= 2.848274D-01
              MO Center= -3.9D-14, -3.7D-14,  9.2D-01, r^2= 8.0D+00
   Bfn.  Coefficient  Atom+Function         Bfn.  Coefficient  Atom+Function  
  ----- ------------  ---------------      ----- ------------  ---------------
    14     40.867529  1 N  s                 59    -30.547717  2 N  s          
    62     19.023031  2 N  pz               104    -14.148226  3 O  s          
    17      9.070836  1 N  pz                55      3.547384  2 N  s          
    58      1.977250  2 N  pz               100     -1.905891  3 O  s          
   103      1.913029  3 O  pz                80      1.173316  2 N  dzz        

 Vector   26  Occ=0.000000D+00  E= 2.923828D-01
              MO Center= -3.1D-15, -4.3D-16, -3.7D-01, r^2= 2.3D+00
   Bfn.  Coefficient  Atom+Function         Bfn.  Coefficient  Atom+Function  
  ----- ------------  ---------------      ----- ------------  ---------------
    75      0.528745  2 N  dxx               78     -0.528745  2 N  dyy        
    30      0.355553  1 N  dxx               33     -0.355553  1 N  dyy        

 Vector   27  Occ=0.000000D+00  E= 2.923837D-01
              MO Center= -3.8D-16,  1.9D-15, -3.7D-01, r^2= 2.3D+00
   Bfn.  Coefficient  Atom+Function         Bfn.  Coefficient  Atom+Function  
  ----- ------------  ---------------      ----- ------------  ---------------
    76      1.057490  2 N  dxy               31      0.711106  1 N  dxy        
   121      0.225264  3 O  dxy        

 Vector   28  Occ=0.000000D+00  E= 3.133473D-01
              MO Center=  1.3D-14,  2.3D-13, -8.4D-01, r^2= 1.0D+01
   Bfn.  Coefficient  Atom+Function         Bfn.  Coefficient  Atom+Function  
  ----- ------------  ---------------      ----- ------------  ---------------
    59    -73.071561  2 N  s                 14     68.173941  1 N  s          
    62     20.178187  2 N  pz                17     16.886152  1 N  pz         
   104      7.251454  3 O  s                 58     -5.884200  2 N  pz         
    10     -5.601400  1 N  s                107     -4.820434  3 O  pz         
    13     -3.124869  1 N  pz               100      2.604706  3 O  s          

 Vector   29  Occ=0.000000D+00  E= 4.495908D-01
              MO Center=  1.2D-13, -1.8D-14, -6.1D-01, r^2= 6.2D+00
   Bfn.  Coefficient  Atom+Function         Bfn.  Coefficient  Atom+Function  
  ----- ------------  ---------------      ----- ------------  ---------------
    14     28.323366  1 N  s                 55    -26.457704  2 N  s          
    59    -25.947120  2 N  s                 10     23.199355  1 N  s          
    62     13.268796  2 N  pz                13     12.594024  1 N  pz         
    58      8.303165  2 N  pz               100      6.754260  3 O  s          
    80     -6.636415  2 N  dzz               17      4.625712  1 N  pz         

 Vector   30  Occ=0.000000D+00  E= 5.013268D-01
              MO Center= -2.5D-13, -4.3D-14, -1.2D+00, r^2= 5.6D+00
   Bfn.  Coefficient  Atom+Function         Bfn.  Coefficient  Atom+Function  
  ----- ------------  ---------------      ----- ------------  ---------------
    10     32.817287  1 N  s                 55    -31.404452  2 N  s          
    13     16.873160  1 N  pz                59    -16.548365  2 N  s          
    58     15.031305  2 N  pz                14     14.913576  1 N  s          
    80     -8.651940  2 N  dzz              104      5.191225  3 O  s          
   100      3.919630  3 O  s                 17      3.162503  1 N  pz         


 center of mass
 --------------
 x =   0.00000000 y =   0.00000000 z =  -0.00041062

 moments of inertia (a.u.)
 ------------------
         142.394173892021           0.000000000000           0.000000000000
           0.000000000000         142.394173892021           0.000000000000
           0.000000000000           0.000000000000           0.000000000000

     Multipole analysis of the density
     ---------------------------------

     L   x y z        total         alpha         beta         nuclear
     -   - - -        -----         -----         ----         -------
     0   0 0 0     -0.000000    -11.000000    -11.000000     22.000000

     1   1 0 0     -0.000000     -0.000000     -0.000000      0.000000
     1   0 1 0     -0.000000     -0.000000     -0.000000      0.000000
     1   0 0 1      0.028089      0.014044      0.014044     -0.000000

     2   2 0 0    -11.657144     -5.828572     -5.828572      0.000000
     2   1 1 0     -0.000000     -0.000000     -0.000000      0.000000
     2   1 0 1     -0.000000     -0.000000     -0.000000      0.000000
     2   0 2 0    -11.657144     -5.828572     -5.828572      0.000000
     2   0 1 1      0.000000      0.000000      0.000000      0.000000
     2   0 0 2    -14.074727    -42.637593    -42.637593     71.200460


 Parallel integral file used     245 records with       0 large values


            General Information
            -------------------
          SCF calculation type: DFT
          Wavefunction type:  closed shell.
          No. of atoms     :     3
          No. of electrons :    22
           Alpha electrons :    11
            Beta electrons :    11
          Charge           :     0
          Spin multiplicity:     1
          Use of symmetry is: off; symmetry adaption is: off
          Maximum number of iterations: ***
          AO basis - number of functions:   135
                     number of shells:    39
          Convergence on energy requested: 1.00D-06
          Convergence on density requested: 1.00D-05
          Convergence on gradient requested: 5.00D-04

              XC Information
              --------------
                  TPSS metaGGA Exchange Functional  1.000          
             TPSS03 metaGGA Correlation Functional  1.000          

             Grid Information
             ----------------
          Grid used for XC integration:  medium    
          Radial quadrature: Mura-Knowles        
          Angular quadrature: Lebedev. 
          Tag              B.-S. Rad. Rad. Pts. Rad. Cut. Ang. Pts.
          ---              ---------- --------- --------- ---------
          N                   0.65       49          10.0       434
          O                   0.60       49          10.0       434
          Grid pruning is: on 
          Number of quadrature shells:   147
          Spatial weights used:  Erf1

          Convergence Information
          -----------------------
          Convergence aids based upon iterative change in 
          total energy or number of iterations. 
          Levelshifting, if invoked, occurs when the 
          HOMO/LUMO gap drops below (HL_TOL): 1.00D-02
          DIIS, if invoked, will attempt to extrapolate 
          using up to (NFOCK): 10 stored Fock matrices.

                    Damping( 0%)  Levelshifting(0.5)       DIIS
                  --------------- ------------------- ---------------
          dE  on:    start            ASAP                start   
          dE off:    2 iters        *** iters           *** iters 


      Screening Tolerance Information
      -------------------------------
          Density screening/tol_rho: 1.00D-10
          AO Gaussian exp screening on grid/accAOfunc:  14
          CD Gaussian exp screening on grid/accCDfunc:  20
          XC Gaussian exp screening on grid/accXCfunc:  20
          Schwarz screening/accCoul: 1.00D-08



                            NWChem DFT Gradient Module
                            --------------------------



  charge          =   0.00
  wavefunction    = closed shell



                         DFT ENERGY GRADIENTS

    atom               coordinates                        gradient
                 x          y          z           x          y          z
   1 N       0.000000   0.000000  -2.259494   -0.000000   0.000000   0.010199
   2 N       0.000000   0.000000  -0.141942    0.000000   0.000000  -0.046781
   3 O       0.000000   0.000000   2.101257   -0.000000  -0.000000   0.036582

                 ----------------------------------------
                 |  Time  |  1-e(secs)   |  2-e(secs)   |
                 ----------------------------------------
                 |  CPU   |       0.00   |       0.68   |
                 ----------------------------------------
                 |  WALL  |       0.00   |       1.01   |
                 ----------------------------------------
                               NWChem STEPPER Module
                               ---------------------


   Step sought for minimum. 
   Update Hessian used. 
   Nuclear Hessian initialized with UNIT matrix. 
   Dependent rotation vector no.                    3
   found in ECKART; linear geometry  assumed. 
   Number of modes removed with force (in the spectral representation)
   less than:   0.000000 is:    2
   PARTIT has partitioned the input hessian 
   and gradient into two subspaces;  An 
   "external" hessian and gradient composed 
   of                     5  independent translations 
   and rotations, and an "internal" hessian 
   and gradient with a dimension of                     2
               e-diff         g-norm     g-max   
 value     -184.7594096517  0.060256  0.046781
 thres        0.0001000000  0.010000  0.000800
  trust radius =     0.10
   Calculating the Newton-Raphson step. 
  The length (norm) of the STEP is   0.060256

  The lowest few components in the bases 
  generated by the spectral decomposition 
  of the internal hessian (non-zero force). 

  Component  Hessian     Grad      Step   Scaled-Step
  ---------  --------  --------  -------- -----------
       1     0.10D+01  -.59D-01  0.59D-01  0.59D-01
       2     0.10D+01  0.12D-01  -.12D-01  -.12D-01

  Clean-up the step; truncate at:   0.000001
  In cartesian coordinates; norm of this step is:   0.060255
         Walk statistics for step:   1
     Previous actual total energy:   0.000000000000D+00
      Current actual total energy:  -0.184759409652D+03
         Actual energy difference:  -0.184759409652D+03 threshold:         0.100000D-03
    Second order energy predicted:   0.000000000000D+00
             Ratio of differences:   0.000000000000D+00
               Fixed trust radius:   0.100000000000D+00
   Number of negative eigenvalues:   0
   Max absolute value of Gradient:   0.467811877424D-01 threshold:         0.800000D-03
                    Gradient norm:   0.602556970119D-01 threshold:         0.100000D-01
                RMS Gradient norm:   0.347886428901D-01
  Largest component of step v-tor:   0.589470000000D-01
  New 2nd order energy prediction:  -0.181537451111D-02



  ------------------- New geometry -------------------


                         Geometry "g-1-step" -> "g-1-step"
                         ---------------------------------

 Output coordinates in angstroms (scale by  1.889725989 to convert to a.u.)

  No.       Tag          Charge          X              Y              Z
 ---- ---------------- ---------- -------------- -------------- --------------
    1 N                    7.0000     0.00000000     0.00000000    -1.20106981
    2 N                    7.0000     0.00000000     0.00000000    -0.05035729
    3 O                    8.0000     0.00000000     0.00000000     1.09257891

      Atomic Mass 
      ----------- 

      N                 14.003070
      O                 15.994910


 Effective nuclear repulsion energy (a.u.)      61.3814758950

            Nuclear Dipole moment (a.u.) 
            ----------------------------
        X                 Y               Z
 ---------------- ---------------- ----------------
     0.0000000000     0.0000000000    -0.0365820000

 ==============================================================================
                                internuclear distances
 ------------------------------------------------------------------------------
       center one      |      center two      | atomic units |  angstroms
 ------------------------------------------------------------------------------
    2 N                |   1 N                |     2.17453  |     1.15071
    3 O                |   2 N                |     2.15984  |     1.14294
 ------------------------------------------------------------------------------
                         number of included internuclear distances:          2
 ==============================================================================



 ==============================================================================
                                 internuclear angles
 ------------------------------------------------------------------------------
        center 1       |       center 2       |       center 3       |  degrees
 ------------------------------------------------------------------------------
    1 N                |   2 N                |   3 O                |   180.00
 ------------------------------------------------------------------------------
                            number of included internuclear angles:          1
 ==============================================================================




                                 NWChem DFT Module
                                 -----------------




 Summary of "ao basis" -> "ao basis" (cartesian)
 ------------------------------------------------------------------------------
       Tag                 Description            Shells   Functions and Types
 ---------------- ------------------------------  ------  ---------------------
 N                     6-311++G(3df,3pd)            13       45   5s4p3d1f
 O                     6-311++G(3df,3pd)            13       45   5s4p3d1f


  Caching 1-el integrals 

            General Information
            -------------------
          SCF calculation type: DFT
          Wavefunction type:  closed shell.
          No. of atoms     :     3
          No. of electrons :    22
           Alpha electrons :    11
            Beta electrons :    11
          Charge           :     0
          Spin multiplicity:     1
          Use of symmetry is: off; symmetry adaption is: off
          Maximum number of iterations: ***
          AO basis - number of functions:   135
                     number of shells:    39
          Convergence on energy requested: 1.00D-06
          Convergence on density requested: 1.00D-05
          Convergence on gradient requested: 5.00D-04

              XC Information
              --------------
                  TPSS metaGGA Exchange Functional  1.000          
             TPSS03 metaGGA Correlation Functional  1.000          

             Grid Information
             ----------------
          Grid used for XC integration:  medium    
          Radial quadrature: Mura-Knowles        
          Angular quadrature: Lebedev. 
          Tag              B.-S. Rad. Rad. Pts. Rad. Cut. Ang. Pts.
          ---              ---------- --------- --------- ---------
          N                   0.65       49          10.0       434
          O                   0.60       49          10.0       434
          Grid pruning is: on 
          Number of quadrature shells:   147
          Spatial weights used:  Erf1

          Convergence Information
          -----------------------
          Convergence aids based upon iterative change in 
          total energy or number of iterations. 
          Levelshifting, if invoked, occurs when the 
          HOMO/LUMO gap drops below (HL_TOL): 1.00D-02
          DIIS, if invoked, will attempt to extrapolate 
          using up to (NFOCK): 10 stored Fock matrices.

                    Damping( 0%)  Levelshifting(0.5)       DIIS
                  --------------- ------------------- ---------------
          dE  on:    start            ASAP                start   
          dE off:    2 iters        *** iters           *** iters 


      Screening Tolerance Information
      -------------------------------
          Density screening/tol_rho: 1.00D-10
          AO Gaussian exp screening on grid/accAOfunc:  14
          CD Gaussian exp screening on grid/accCDfunc:  20
          XC Gaussian exp screening on grid/accXCfunc:  20
          Schwarz screening/accCoul: 1.00D-08


 Loading old vectors from job with title :



   Time after variat. SCF:      4.6
   Time prior to 1st pass:      4.6

 Integral file          = ./N2O.xyz.aoints.00
 Record size in doubles =    65536    No. of integs per rec  =    43688
 Max. records in memory =       83    Max. records in file   = 11666035
 No. of bits per label  =        8    No. of bits per value  =       64


 #quartets = 2.914D+05 #integrals = 1.059D+07 #direct =  0.0% #cached =100.0%


File balance: exchanges=     8  moved=     7  time=   0.0


 Grid_pts file          = ./N2O.xyz.gridpts.00
 Record size in doubles =  12289        No. of grid_pts per rec  =   3070
 Max. records in memory =      3        Max. recs in file   =  62213795


           Memory utilization after 1st SCF pass: 
           Heap Space remaining (MW):        7.63             7627340
          Stack Space remaining (MW):       13.11            13106396

   convergence    iter        energy       DeltaE   RMS-Dens  Diis-err    time
 ---------------- ----- ----------------- --------- --------- ---------  ------
 d= 0,ls=0.0,diis     1   -184.7474384766 -2.46D+02  6.23D-03  6.99D-02     5.2
 d= 0,ls=0.0,diis     2   -184.7520952857 -4.66D-03  2.27D-03  8.16D-02     5.4
 d= 0,ls=0.0,diis     3   -184.7426341300  9.46D-03  2.09D-03  1.25D-01     5.6
 d= 0,ls=0.0,diis     4   -184.7543621224 -1.17D-02  1.13D-03  1.36D-02     5.8
 d= 0,ls=0.0,diis     5   -184.7561866383 -1.82D-03  2.36D-04  6.79D-04     6.0
 d= 0,ls=0.0,diis     6   -184.7563427368 -1.56D-04  6.40D-05  1.70D-05     6.2
 d= 0,ls=0.0,diis     7   -184.7562261379  1.17D-04  1.66D-05  1.23D-06     6.4
 d= 0,ls=0.0,diis     8   -184.7562589575 -3.28D-05  3.88D-06  2.10D-08     6.6
 d= 0,ls=0.0,diis     9   -184.7562551592  3.80D-06  6.96D-07  2.40D-09     6.8
 d= 0,ls=0.0,diis    10   -184.7562554409 -2.82D-07  2.08D-07  6.47D-11     7.0


         Total DFT energy =     -184.756255440859
      One electron energy =     -371.345463764993
           Coulomb energy =      147.435107057851
          Exchange energy =      -21.472034904924
       Correlation energy =       -0.755339723752
 Nuclear repulsion energy =       61.381475894960

 Numeric. integr. density =       22.000001841255

     Total iterative time =      2.4s



                       DFT Final Molecular Orbital Analysis
                       ------------------------------------

 Vector    1  Occ=2.000000D+00  E=-1.907897D+01
              MO Center=  3.0D-17,  1.0D-17,  1.1D+00, r^2= 1.5D-02
   Bfn.  Coefficient  Atom+Function         Bfn.  Coefficient  Atom+Function  
  ----- ------------  ---------------      ----- ------------  ---------------
    91      0.550729  3 O  s                 92      0.470979  3 O  s          

 Vector    2  Occ=2.000000D+00  E=-1.439378D+01
              MO Center=  2.1D-16, -4.2D-17, -5.0D-02, r^2= 2.0D-02
   Bfn.  Coefficient  Atom+Function         Bfn.  Coefficient  Atom+Function  
  ----- ------------  ---------------      ----- ------------  ---------------
    46      0.556569  2 N  s                 47      0.467429  2 N  s          

 Vector    3  Occ=2.000000D+00  E=-1.427350D+01
              MO Center=  3.5D-16, -2.5D-17, -1.2D+00, r^2= 2.0D-02
   Bfn.  Coefficient  Atom+Function         Bfn.  Coefficient  Atom+Function  
  ----- ------------  ---------------      ----- ------------  ---------------
     1      0.556721  1 N  s                  2      0.467474  1 N  s          

 Vector    4  Occ=2.000000D+00  E=-1.267724D+00
              MO Center=  5.6D-16,  2.8D-15,  4.9D-01, r^2= 5.6D-01
   Bfn.  Coefficient  Atom+Function         Bfn.  Coefficient  Atom+Function  
  ----- ------------  ---------------      ----- ------------  ---------------
   100      0.458125  3 O  s                 96      0.391494  3 O  s          
    51      0.341796  2 N  s                 55      0.225688  2 N  s          
    14     -0.190002  1 N  s                 92     -0.151760  3 O  s          

 Vector    5  Occ=2.000000D+00  E=-1.069213D+00
              MO Center= -4.9D-16, -1.1D-17, -4.5D-01, r^2= 7.2D-01
   Bfn.  Coefficient  Atom+Function         Bfn.  Coefficient  Atom+Function  
  ----- ------------  ---------------      ----- ------------  ---------------
    55      0.715686  2 N  s                100     -0.501846  3 O  s          
     6      0.333566  1 N  s                 96     -0.227890  3 O  s          
    51      0.218689  2 N  s                 54     -0.208358  2 N  pz         
    14      0.195119  1 N  s                 50     -0.174860  2 N  pz         
    59     -0.162149  2 N  s          

 Vector    6  Occ=2.000000D+00  E=-6.362072D-01
              MO Center= -1.3D-14, -1.3D-14,  1.1D+00, r^2= 9.7D-01
   Bfn.  Coefficient  Atom+Function         Bfn.  Coefficient  Atom+Function  
  ----- ------------  ---------------      ----- ------------  ---------------
    10      0.717148  1 N  s                 58      0.566225  2 N  pz         
    14      0.555917  1 N  s                 59     -0.480142  2 N  s          
   103      0.452273  3 O  pz               100      0.362452  3 O  s          
    55     -0.329396  2 N  s                 96      0.310423  3 O  s          
    13      0.292812  1 N  pz                99      0.247084  3 O  pz         

 Vector    7  Occ=2.000000D+00  E=-6.087791D-01
              MO Center=  6.3D-15, -2.4D-15,  1.7D-01, r^2= 1.1D+00
   Bfn.  Coefficient  Atom+Function         Bfn.  Coefficient  Atom+Function  
  ----- ------------  ---------------      ----- ------------  ---------------
   101      0.281078  3 O  px                52      0.260743  2 N  px         
    48      0.215911  2 N  px                77     -0.204986  2 N  dxz        
    97      0.199990  3 O  px                56      0.193157  2 N  px         
    93      0.155809  3 O  px         

 Vector    8  Occ=2.000000D+00  E=-6.087791D-01
              MO Center=  3.2D-15,  9.5D-15,  1.7D-01, r^2= 1.1D+00
   Bfn.  Coefficient  Atom+Function         Bfn.  Coefficient  Atom+Function  
  ----- ------------  ---------------      ----- ------------  ---------------
   102      0.281078  3 O  py                53      0.260743  2 N  py         
    49      0.215911  2 N  py                79     -0.204986  2 N  dyz        
    98      0.199990  3 O  py                57      0.193157  2 N  py         
    94      0.155809  3 O  py         

 Vector    9  Occ=2.000000D+00  E=-4.975815D-01
              MO Center= -6.0D-15, -1.4D-15, -1.3D+00, r^2= 1.0D+00
   Bfn.  Coefficient  Atom+Function         Bfn.  Coefficient  Atom+Function  
  ----- ------------  ---------------      ----- ------------  ---------------
    55      0.869204  2 N  s                 10     -0.787653  1 N  s          
   100     -0.582008  3 O  s                103      0.471892  3 O  pz         
    58      0.445968  2 N  pz                 6     -0.292558  1 N  s          
    13      0.272820  1 N  pz                80      0.230132  2 N  dzz        
     9      0.221216  1 N  pz                 5      0.206303  1 N  pz         

 Vector   10  Occ=2.000000D+00  E=-3.851288D-01
              MO Center= -2.6D-15, -6.2D-17, -1.5D-02, r^2= 1.8D+00
   Bfn.  Coefficient  Atom+Function         Bfn.  Coefficient  Atom+Function  
  ----- ------------  ---------------      ----- ------------  ---------------
   102      0.237487  3 O  py                98      0.225330  3 O  py         
   101     -0.212421  3 O  px                97     -0.201547  3 O  px         
     8     -0.189955  1 N  py                12     -0.179210  1 N  py         
    94      0.172078  3 O  py                 7      0.169906  1 N  px         
    11      0.160295  1 N  px                 4     -0.154574  1 N  py         

 Vector   11  Occ=2.000000D+00  E=-3.851288D-01
              MO Center=  4.3D-16,  1.7D-15, -1.5D-02, r^2= 1.8D+00
   Bfn.  Coefficient  Atom+Function         Bfn.  Coefficient  Atom+Function  
  ----- ------------  ---------------      ----- ------------  ---------------
   101      0.237487  3 O  px                97      0.225330  3 O  px         
   102      0.212421  3 O  py                98      0.201547  3 O  py         
     7     -0.189955  1 N  px                11     -0.179210  1 N  px         
    93      0.172078  3 O  px                 8     -0.169906  1 N  py         
    12     -0.160295  1 N  py                 3     -0.154574  1 N  px         

 Vector   12  Occ=0.000000D+00  E=-1.239775D-01
              MO Center= -2.2D-15,  3.9D-15, -3.4D-01, r^2= 1.7D+00
   Bfn.  Coefficient  Atom+Function         Bfn.  Coefficient  Atom+Function  
  ----- ------------  ---------------      ----- ------------  ---------------
    57     -0.484503  2 N  py                12      0.441677  1 N  py         
    53     -0.314541  2 N  py               102      0.297039  3 O  py         
     8      0.257232  1 N  py                49     -0.243459  2 N  py         
     4      0.208005  1 N  py                98      0.205597  3 O  py         
    94      0.156044  3 O  py                56      0.150234  2 N  px         

 Vector   13  Occ=0.000000D+00  E=-1.239775D-01
              MO Center= -7.8D-16,  4.0D-16, -3.4D-01, r^2= 1.7D+00
   Bfn.  Coefficient  Atom+Function         Bfn.  Coefficient  Atom+Function  
  ----- ------------  ---------------      ----- ------------  ---------------
    56     -0.484503  2 N  px                11      0.441677  1 N  px         
    52     -0.314541  2 N  px               101      0.297039  3 O  px         
     7      0.257232  1 N  px                48     -0.243459  2 N  px         
     3      0.208005  1 N  px                97      0.205597  3 O  px         
    93      0.156044  3 O  px                57     -0.150234  2 N  py         

 Vector   14  Occ=0.000000D+00  E=-3.543458D-02
              MO Center=  1.1D-14,  4.9D-15,  1.3D-01, r^2= 4.3D+00
   Bfn.  Coefficient  Atom+Function         Bfn.  Coefficient  Atom+Function  
  ----- ------------  ---------------      ----- ------------  ---------------
    10      2.644937  1 N  s                104     -2.403508  3 O  s          
    14      1.974922  1 N  s                 58      1.968468  2 N  pz         
    55     -1.831586  2 N  s                 62      1.594372  2 N  pz         
    13      1.573578  1 N  pz                59      1.037638  2 N  s          
    80     -0.699275  2 N  dzz              107      0.464238  3 O  pz         

 Vector   15  Occ=0.000000D+00  E= 7.228735D-02
              MO Center=  1.2D-14,  1.2D-14, -9.2D-01, r^2= 1.0D+01
   Bfn.  Coefficient  Atom+Function         Bfn.  Coefficient  Atom+Function  
  ----- ------------  ---------------      ----- ------------  ---------------
    14     15.909227  1 N  s                 59    -13.095155  2 N  s          
    62      7.500633  2 N  pz                55      4.779819  2 N  s          
    17      4.716730  1 N  pz                10     -4.435632  1 N  s          
   104     -4.268866  3 O  s                 13     -2.494265  1 N  pz         
    58     -1.943445  2 N  pz                80      1.676027  2 N  dzz        

 Vector   16  Occ=0.000000D+00  E= 8.083378D-02
              MO Center= -9.5D-16, -4.4D-15, -3.0D-01, r^2= 6.6D+00
   Bfn.  Coefficient  Atom+Function         Bfn.  Coefficient  Atom+Function  
  ----- ------------  ---------------      ----- ------------  ---------------
    61      0.836405  2 N  py                12     -0.416723  1 N  py         
    16      0.377355  1 N  py                79     -0.377194  2 N  dyz        

 Vector   17  Occ=0.000000D+00  E= 8.083378D-02
              MO Center=  1.3D-14, -3.5D-15, -3.0D-01, r^2= 6.6D+00
   Bfn.  Coefficient  Atom+Function         Bfn.  Coefficient  Atom+Function  
  ----- ------------  ---------------      ----- ------------  ---------------
    60      0.836405  2 N  px                11     -0.416723  1 N  px         
    15      0.377355  1 N  px                77     -0.377194  2 N  dxz        

 Vector   18  Occ=0.000000D+00  E= 1.024756D-01
              MO Center= -2.6D-14,  4.3D-16, -3.1D-01, r^2= 6.1D+00
   Bfn.  Coefficient  Atom+Function         Bfn.  Coefficient  Atom+Function  
  ----- ------------  ---------------      ----- ------------  ---------------
    14      6.430264  1 N  s                104     -5.706537  3 O  s          
    10      5.149105  1 N  s                 55     -4.672235  2 N  s          
    62      4.334231  2 N  pz                58      3.617977  2 N  pz         
    13      3.337721  1 N  pz               107      0.895250  3 O  pz         
    59     -0.835269  2 N  s                 35      0.650398  1 N  dzz        

 Vector   19  Occ=0.000000D+00  E= 1.145507D-01
              MO Center=  1.1D-14,  6.9D-15, -3.9D-02, r^2= 8.8D+00
   Bfn.  Coefficient  Atom+Function         Bfn.  Coefficient  Atom+Function  
  ----- ------------  ---------------      ----- ------------  ---------------
    59      6.439939  2 N  s                 14     -4.974111  1 N  s          
    10      4.735596  1 N  s                 55     -4.054257  2 N  s          
    17     -2.606157  1 N  pz                58      2.488683  2 N  pz         
    13      2.400263  1 N  pz               104     -2.274388  3 O  s          
   107      1.297737  3 O  pz                80     -1.101650  2 N  dzz        

 Vector   20  Occ=0.000000D+00  E= 1.491395D-01
              MO Center= -4.4D-15, -3.6D-15, -8.3D-01, r^2= 8.6D+00
   Bfn.  Coefficient  Atom+Function         Bfn.  Coefficient  Atom+Function  
  ----- ------------  ---------------      ----- ------------  ---------------
    15      1.609462  1 N  px                60     -1.399862  2 N  px         
    16      1.294767  1 N  py                61     -1.126149  2 N  py         
    11     -0.247379  1 N  px                56      0.201431  2 N  px         
    12     -0.199010  1 N  py                57      0.162046  2 N  py         

 Vector   21  Occ=0.000000D+00  E= 1.491395D-01
              MO Center=  2.7D-14, -3.3D-14, -8.3D-01, r^2= 8.6D+00
   Bfn.  Coefficient  Atom+Function         Bfn.  Coefficient  Atom+Function  
  ----- ------------  ---------------      ----- ------------  ---------------
    16      1.609462  1 N  py                61     -1.399862  2 N  py         
    15     -1.294767  1 N  px                60      1.126149  2 N  px         
    12     -0.247379  1 N  py                57      0.201431  2 N  py         
    11      0.199010  1 N  px                56     -0.162046  2 N  px         

 Vector   22  Occ=0.000000D+00  E= 2.020218D-01
              MO Center= -2.7D-14,  1.7D-14,  1.5D-02, r^2= 8.7D+00
   Bfn.  Coefficient  Atom+Function         Bfn.  Coefficient  Atom+Function  
  ----- ------------  ---------------      ----- ------------  ---------------
    14     17.442218  1 N  s                 59    -17.359592  2 N  s          
    17      5.696801  1 N  pz                62      3.056309  2 N  pz         
   107      1.258244  3 O  pz                58      1.179567  2 N  pz         
    55      1.075581  2 N  s                100     -0.990826  3 O  s          
   103      0.661742  3 O  pz                80      0.595398  2 N  dzz        

 Vector   23  Occ=0.000000D+00  E= 2.503101D-01
              MO Center= -7.8D-14,  5.1D-15,  5.8D-01, r^2= 8.7D+00
   Bfn.  Coefficient  Atom+Function         Bfn.  Coefficient  Atom+Function  
  ----- ------------  ---------------      ----- ------------  ---------------
    60      4.388017  2 N  px               105     -3.032724  3 O  px         
    15     -2.378366  1 N  px               101      0.366836  3 O  px         
    61     -0.276558  2 N  py               106      0.191140  3 O  py         
    77      0.186687  2 N  dxz               11      0.165517  1 N  px         

 Vector   24  Occ=0.000000D+00  E= 2.503101D-01
              MO Center= -4.2D-15, -3.9D-14,  5.8D-01, r^2= 8.7D+00
   Bfn.  Coefficient  Atom+Function         Bfn.  Coefficient  Atom+Function  
  ----- ------------  ---------------      ----- ------------  ---------------
    61      4.388017  2 N  py               106     -3.032724  3 O  py         
    16     -2.378366  1 N  py               102      0.366836  3 O  py         
    60      0.276558  2 N  px               105     -0.191140  3 O  px         
    79      0.186687  2 N  dyz               12      0.165517  1 N  py         

 Vector   25  Occ=0.000000D+00  E= 2.849472D-01
              MO Center= -8.2D-14, -7.2D-14,  7.4D-01, r^2= 8.3D+00
   Bfn.  Coefficient  Atom+Function         Bfn.  Coefficient  Atom+Function  
  ----- ------------  ---------------      ----- ------------  ---------------
    14     38.891402  1 N  s                 59    -28.793139  2 N  s          
    62     18.390108  2 N  pz               104    -13.889991  3 O  s          
    17      9.034288  1 N  pz                55      4.221248  2 N  s          
   100     -2.281285  3 O  s                 58      2.053885  2 N  pz         
   103      2.020176  3 O  pz                80      1.214970  2 N  dzz        

 Vector   26  Occ=0.000000D+00  E= 2.923697D-01
              MO Center= -1.2D-15,  1.4D-15, -3.4D-01, r^2= 2.3D+00
   Bfn.  Coefficient  Atom+Function         Bfn.  Coefficient  Atom+Function  
  ----- ------------  ---------------      ----- ------------  ---------------
    75      0.534732  2 N  dxx               78     -0.534732  2 N  dyy        
    30      0.351799  1 N  dxx               33     -0.351799  1 N  dyy        

 Vector   27  Occ=0.000000D+00  E= 2.923706D-01
              MO Center=  1.3D-16,  9.7D-16, -3.4D-01, r^2= 2.3D+00
   Bfn.  Coefficient  Atom+Function         Bfn.  Coefficient  Atom+Function  
  ----- ------------  ---------------      ----- ------------  ---------------
    76      1.069464  2 N  dxy               31      0.703598  1 N  dxy        
   121      0.224690  3 O  dxy        

 Vector   28  Occ=0.000000D+00  E= 3.134527D-01
              MO Center=  1.4D-13,  1.2D-13, -7.5D-01, r^2= 1.0D+01
   Bfn.  Coefficient  Atom+Function         Bfn.  Coefficient  Atom+Function  
  ----- ------------  ---------------      ----- ------------  ---------------
    59    -69.571990  2 N  s                 14     64.191647  1 N  s          
    62     19.607203  2 N  pz                17     16.188580  1 N  pz         
   104      8.105150  3 O  s                 58     -5.796115  2 N  pz         
   107     -5.125902  3 O  pz                10     -4.257720  1 N  s          
   100      3.475449  3 O  s                 13     -2.421692  1 N  pz         

 Vector   29  Occ=0.000000D+00  E= 4.503755D-01
              MO Center= -5.7D-14, -5.9D-14, -4.4D-01, r^2= 6.1D+00
   Bfn.  Coefficient  Atom+Function         Bfn.  Coefficient  Atom+Function  
  ----- ------------  ---------------      ----- ------------  ---------------
    14     24.709720  1 N  s                 59    -22.004396  2 N  s          
    55    -21.532883  2 N  s                 10     17.697472  1 N  s          
    62     12.680082  2 N  pz                13     10.110258  1 N  pz         
   100      6.789120  3 O  s                 58      5.723886  2 N  pz         
    80     -5.581172  2 N  dzz              104     -4.849297  3 O  s          

 Vector   30  Occ=0.000000D+00  E= 5.107720D-01
              MO Center=  9.0D-15,  6.2D-14, -1.3D+00, r^2= 5.4D+00
   Bfn.  Coefficient  Atom+Function         Bfn.  Coefficient  Atom+Function  
  ----- ------------  ---------------      ----- ------------  ---------------
    10     33.089237  1 N  s                 55    -31.808434  2 N  s          
    59    -20.170023  2 N  s                 14     19.075621  1 N  s          
    13     17.678804  1 N  pz                58     15.293373  2 N  pz         
    80     -9.440243  2 N  dzz              100      4.878019  3 O  s          
    62      4.499589  2 N  pz               104      4.339464  3 O  s          


 center of mass
 --------------
 x =   0.00000000 y =   0.00000000 z =  -0.00206662

 moments of inertia (a.u.)
 ------------------
         140.447924151738           0.000000000000           0.000000000000
           0.000000000000         140.447924151738           0.000000000000
           0.000000000000           0.000000000000           0.000000000000

     Multipole analysis of the density
     ---------------------------------

     L   x y z        total         alpha         beta         nuclear
     -   - - -        -----         -----         ----         -------
     0   0 0 0     -0.000000    -11.000000    -11.000000     22.000000

     1   1 0 0      0.000000      0.000000      0.000000      0.000000
     1   0 1 0      0.000000      0.000000      0.000000      0.000000
     1   0 0 1      0.170715      0.103648      0.103648     -0.036582

     2   2 0 0    -11.660995     -5.830498     -5.830498      0.000000
     2   1 1 0     -0.000000     -0.000000     -0.000000      0.000000
     2   1 0 1     -0.000000     -0.000000     -0.000000      0.000000
     2   0 2 0    -11.660995     -5.830498     -5.830498      0.000000
     2   0 1 1      0.000000      0.000000      0.000000      0.000000
     2   0 0 2    -14.112709    -42.169846    -42.169846     70.226984


 Parallel integral file used     248 records with       0 large values


            General Information
            -------------------
          SCF calculation type: DFT
          Wavefunction type:  closed shell.
          No. of atoms     :     3
          No. of electrons :    22
           Alpha electrons :    11
            Beta electrons :    11
          Charge           :     0
          Spin multiplicity:     1
          Use of symmetry is: off; symmetry adaption is: off
          Maximum number of iterations: ***
          AO basis - number of functions:   135
                     number of shells:    39
          Convergence on energy requested: 1.00D-06
          Convergence on density requested: 1.00D-05
          Convergence on gradient requested: 5.00D-04

              XC Information
              --------------
                  TPSS metaGGA Exchange Functional  1.000          
             TPSS03 metaGGA Correlation Functional  1.000          

             Grid Information
             ----------------
          Grid used for XC integration:  medium    
          Radial quadrature: Mura-Knowles        
          Angular quadrature: Lebedev. 
          Tag              B.-S. Rad. Rad. Pts. Rad. Cut. Ang. Pts.
          ---              ---------- --------- --------- ---------
          N                   0.65       49          10.0       434
          O                   0.60       49          10.0       434
          Grid pruning is: on 
          Number of quadrature shells:   147
          Spatial weights used:  Erf1

          Convergence Information
          -----------------------
          Convergence aids based upon iterative change in 
          total energy or number of iterations. 
          Levelshifting, if invoked, occurs when the 
          HOMO/LUMO gap drops below (HL_TOL): 1.00D-02
          DIIS, if invoked, will attempt to extrapolate 
          using up to (NFOCK): 10 stored Fock matrices.

                    Damping( 0%)  Levelshifting(0.5)       DIIS
                  --------------- ------------------- ---------------
          dE  on:    start            ASAP                start   
          dE off:    2 iters        *** iters           *** iters 


      Screening Tolerance Information
      -------------------------------
          Density screening/tol_rho: 1.00D-10
          AO Gaussian exp screening on grid/accAOfunc:  14
          CD Gaussian exp screening on grid/accCDfunc:  20
          XC Gaussian exp screening on grid/accXCfunc:  20
          Schwarz screening/accCoul: 1.00D-08



                            NWChem DFT Gradient Module
                            --------------------------



  charge          =   0.00
  wavefunction    = closed shell



                         DFT ENERGY GRADIENTS

    atom               coordinates                        gradient
                 x          y          z           x          y          z
   1 N       0.000000   0.000000  -2.269693    0.000000   0.000000  -0.050599
   2 N       0.000000   0.000000  -0.095161   -0.000000   0.000000   0.089323
   3 O       0.000000   0.000000   2.064675   -0.000000  -0.000000  -0.038724

                 ----------------------------------------
                 |  Time  |  1-e(secs)   |  2-e(secs)   |
                 ----------------------------------------
                 |  CPU   |       0.00   |       0.74   |
                 ----------------------------------------
                 |  WALL  |       0.00   |       0.74   |
                 ----------------------------------------
                               NWChem STEPPER Module
                               ---------------------


   Step sought for minimum. 
  Energy ratio, actual to predicted =   0.575540
   Update Hessian used. 
   Dependent rotation vector no.                    3
   found in ECKART; linear geometry  assumed. 
   Number of modes removed with force (in the spectral representation)
   less than:   0.000000 is:    2
   PARTIT has partitioned the input hessian 
   and gradient into two subspaces;  An 
   "external" hessian and gradient composed 
   of                     5  independent translations 
   and rotations, and an "internal" hessian 
   and gradient with a dimension of                     2
               e-diff         g-norm     g-max   
 value        0.0031542108  0.109720  0.089323
 thres        0.0001000000  0.010000  0.000800
  trust radius =     0.10
   Calculating the Newton-Raphson step. 
  The length (norm) of the STEP is   0.037190

  The lowest few components in the bases 
  generated by the spectral decomposition 
  of the internal hessian (non-zero force). 

  Component  Hessian     Grad      Step   Scaled-Step
  ---------  --------  --------  -------- -----------
       1     0.91D+00  -.20D-02  0.22D-02  0.22D-02
       2     0.30D+01  0.11D+00  -.37D-01  -.37D-01

  Clean-up the step; truncate at:   0.000001
  In cartesian coordinates; norm of this step is:   0.037190
         Walk statistics for step:   2
     Previous actual total energy:  -0.184759409652D+03
      Current actual total energy:  -0.184756255441D+03
         Actual energy difference:   0.315421084105D-02 threshold:         0.100000D-03
    Second order energy predicted:  -0.181537451111D-02
             Ratio of differences:   0.575540001157D+00
               Fixed trust radius:   0.100000000000D+00
   Number of negative eigenvalues:   0
   Max absolute value of Gradient:   0.893233777213D-01 threshold:         0.800000D-03
                    Gradient norm:   0.109720155956D+00 threshold:         0.100000D-01
                RMS Gradient norm:   0.633469615770D-01
  Largest component of step v-tor:   0.371240000000D-01
  New 2nd order energy prediction:  -0.203850930427D-02



  ------------------- New geometry -------------------


                         Geometry "g-2-step" -> "g-2-step"
                         ---------------------------------

 Output coordinates in angstroms (scale by  1.889725989 to convert to a.u.)

  No.       Tag          Charge          X              Y              Z
 ---- ---------------- ---------- -------------- -------------- --------------
    1 N                    7.0000     0.00000000     0.00000000    -1.19145254
    2 N                    7.0000     0.00000000     0.00000000    -0.06631410
    3 O                    8.0000     0.00000000     0.00000000     1.09891845

      Atomic Mass 
      ----------- 

      N                 14.003070
      O                 15.994910


 Effective nuclear repulsion energy (a.u.)      61.4160257296

            Nuclear Dipole moment (a.u.) 
            ----------------------------
        X                 Y               Z
 ---------------- ---------------- ----------------
     0.0000000000     0.0000000000    -0.0246020000

 ==============================================================================
                                internuclear distances
 ------------------------------------------------------------------------------
       center one      |      center two      | atomic units |  angstroms
 ------------------------------------------------------------------------------
    2 N                |   1 N                |     2.12620  |     1.12514
    3 O                |   2 N                |     2.20197  |     1.16523
 ------------------------------------------------------------------------------
                         number of included internuclear distances:          2
 ==============================================================================



 ==============================================================================
                                 internuclear angles
 ------------------------------------------------------------------------------
        center 1       |       center 2       |       center 3       |  degrees
 ------------------------------------------------------------------------------
    1 N                |   2 N                |   3 O                |   180.00
 ------------------------------------------------------------------------------
                            number of included internuclear angles:          1
 ==============================================================================




                                 NWChem DFT Module
                                 -----------------




 Summary of "ao basis" -> "ao basis" (cartesian)
 ------------------------------------------------------------------------------
       Tag                 Description            Shells   Functions and Types
 ---------------- ------------------------------  ------  ---------------------
 N                     6-311++G(3df,3pd)            13       45   5s4p3d1f
 O                     6-311++G(3df,3pd)            13       45   5s4p3d1f


  Caching 1-el integrals 

            General Information
            -------------------
          SCF calculation type: DFT
          Wavefunction type:  closed shell.
          No. of atoms     :     3
          No. of electrons :    22
           Alpha electrons :    11
            Beta electrons :    11
          Charge           :     0
          Spin multiplicity:     1
          Use of symmetry is: off; symmetry adaption is: off
          Maximum number of iterations: ***
          AO basis - number of functions:   135
                     number of shells:    39
          Convergence on energy requested: 1.00D-06
          Convergence on density requested: 1.00D-05
          Convergence on gradient requested: 5.00D-04

              XC Information
              --------------
                  TPSS metaGGA Exchange Functional  1.000          
             TPSS03 metaGGA Correlation Functional  1.000          

             Grid Information
             ----------------
          Grid used for XC integration:  medium    
          Radial quadrature: Mura-Knowles        
          Angular quadrature: Lebedev. 
          Tag              B.-S. Rad. Rad. Pts. Rad. Cut. Ang. Pts.
          ---              ---------- --------- --------- ---------
          N                   0.65       49          10.0       434
          O                   0.60       49          10.0       434
          Grid pruning is: on 
          Number of quadrature shells:   147
          Spatial weights used:  Erf1

          Convergence Information
          -----------------------
          Convergence aids based upon iterative change in 
          total energy or number of iterations. 
          Levelshifting, if invoked, occurs when the 
          HOMO/LUMO gap drops below (HL_TOL): 1.00D-02
          DIIS, if invoked, will attempt to extrapolate 
          using up to (NFOCK): 10 stored Fock matrices.

                    Damping( 0%)  Levelshifting(0.5)       DIIS
                  --------------- ------------------- ---------------
          dE  on:    start            ASAP                start   
          dE off:    2 iters        *** iters           *** iters 


      Screening Tolerance Information
      -------------------------------
          Density screening/tol_rho: 1.00D-10
          AO Gaussian exp screening on grid/accAOfunc:  14
          CD Gaussian exp screening on grid/accCDfunc:  20
          XC Gaussian exp screening on grid/accXCfunc:  20
          Schwarz screening/accCoul: 1.00D-08


 Loading old vectors from job with title :



   Time after variat. SCF:      8.2
   Time prior to 1st pass:      8.2

 Integral file          = ./N2O.xyz.aoints.00
 Record size in doubles =    65536    No. of integs per rec  =    43688
 Max. records in memory =       83    Max. records in file   = 11666014
 No. of bits per label  =        8    No. of bits per value  =       64


 #quartets = 2.914D+05 #integrals = 1.060D+07 #direct =  0.0% #cached =100.0%


File balance: exchanges=     8  moved=     9  time=   0.0


 Grid_pts file          = ./N2O.xyz.gridpts.00
 Record size in doubles =  12289        No. of grid_pts per rec  =   3070
 Max. records in memory =      3        Max. recs in file   =  62213684


           Memory utilization after 1st SCF pass: 
           Heap Space remaining (MW):        7.63             7627340
          Stack Space remaining (MW):       13.11            13106396

   convergence    iter        energy       DeltaE   RMS-Dens  Diis-err    time
 ---------------- ----- ----------------- --------- --------- ---------  ------
[...]
    14      7.775507  1 N  s                104     -5.643313  3 O  s          
    10      5.047130  1 N  s                 55     -4.789973  2 N  s          
    62      4.812199  2 N  pz                58      3.420636  2 N  pz         
    13      3.205716  1 N  pz                59     -2.205460  2 N  s          
    17      0.883727  1 N  pz               107      0.805981  3 O  pz         

 Vector   19  Occ=0.000000D+00  E= 1.149402D-01
              MO Center=  1.1D-17,  1.2D-14,  4.9D-02, r^2= 9.0D+00
   Bfn.  Coefficient  Atom+Function         Bfn.  Coefficient  Atom+Function  
  ----- ------------  ---------------      ----- ------------  ---------------
    59      6.393508  2 N  s                 10      5.423104  1 N  s          
    55     -4.737445  2 N  s                 14     -4.609645  1 N  s          
    58      2.845987  2 N  pz                13      2.717150  1 N  pz         
   104     -2.632201  3 O  s                 17     -2.563830  1 N  pz         
   107      1.357325  3 O  pz                80     -1.140057  2 N  dzz        

 Vector   20  Occ=0.000000D+00  E= 1.495673D-01
              MO Center=  1.4D-16, -1.3D-14, -7.9D-01, r^2= 8.6D+00
   Bfn.  Coefficient  Atom+Function         Bfn.  Coefficient  Atom+Function  
  ----- ------------  ---------------      ----- ------------  ---------------
    16      2.103928  1 N  py                61     -1.868815  2 N  py         
    12     -0.339842  1 N  py                57      0.282311  2 N  py         
   106     -0.171462  3 O  py         

 Vector   21  Occ=0.000000D+00  E= 1.495673D-01
              MO Center=  3.7D-14, -7.1D-16, -7.9D-01, r^2= 8.6D+00
   Bfn.  Coefficient  Atom+Function         Bfn.  Coefficient  Atom+Function  
  ----- ------------  ---------------      ----- ------------  ---------------
    15      2.103928  1 N  px                60     -1.868815  2 N  px         
    11     -0.339842  1 N  px                56      0.282311  2 N  px         
   105     -0.171462  3 O  px         

 Vector   22  Occ=0.000000D+00  E= 2.021088D-01
              MO Center= -3.3D-14,  7.6D-15, -5.1D-02, r^2= 8.7D+00
   Bfn.  Coefficient  Atom+Function         Bfn.  Coefficient  Atom+Function  
  ----- ------------  ---------------      ----- ------------  ---------------
    14     20.129962  1 N  s                 59    -19.625161  2 N  s          
    17      6.252775  1 N  pz                62      3.962656  2 N  pz         
    58      1.437321  2 N  pz               107      1.246893  3 O  pz         
   100     -0.955805  3 O  s                103      0.686766  3 O  pz         
    55      0.657602  2 N  s                 13      0.646635  1 N  pz         

 Vector   23  Occ=0.000000D+00  E= 2.505883D-01
              MO Center= -3.8D-18,  9.5D-15,  6.0D-01, r^2= 8.7D+00
   Bfn.  Coefficient  Atom+Function         Bfn.  Coefficient  Atom+Function  
  ----- ------------  ---------------      ----- ------------  ---------------
    61      4.403762  2 N  py               106     -3.003118  3 O  py         
    16     -2.425394  1 N  py               102      0.373307  3 O  py         
    79      0.180953  2 N  dyz               12      0.168576  1 N  py         

 Vector   24  Occ=0.000000D+00  E= 2.505883D-01
              MO Center=  4.7D-15, -4.6D-16,  6.0D-01, r^2= 8.7D+00
   Bfn.  Coefficient  Atom+Function         Bfn.  Coefficient  Atom+Function  
  ----- ------------  ---------------      ----- ------------  ---------------
    60      4.403762  2 N  px               105     -3.003118  3 O  px         
    15     -2.425394  1 N  px               101      0.373307  3 O  px         
    77      0.180953  2 N  dxz               11      0.168576  1 N  px         

 Vector   25  Occ=0.000000D+00  E= 2.864626D-01
              MO Center=  9.8D-14,  2.1D-14,  8.6D-01, r^2= 8.0D+00
   Bfn.  Coefficient  Atom+Function         Bfn.  Coefficient  Atom+Function  
  ----- ------------  ---------------      ----- ------------  ---------------
    14     39.837324  1 N  s                 59    -29.580025  2 N  s          
    62     18.638252  2 N  pz               104    -14.121410  3 O  s          
    17      8.932904  1 N  pz                55      3.897807  2 N  s          
   100     -2.161773  3 O  s                 58      2.110643  2 N  pz         
   103      2.015874  3 O  pz                80      1.210057  2 N  dzz        

 Vector   26  Occ=0.000000D+00  E= 2.924532D-01
              MO Center= -2.7D-15, -1.6D-15, -3.6D-01, r^2= 2.3D+00
   Bfn.  Coefficient  Atom+Function         Bfn.  Coefficient  Atom+Function  
  ----- ------------  ---------------      ----- ------------  ---------------
    75      0.530218  2 N  dxx               78     -0.530218  2 N  dyy        
    30      0.353195  1 N  dxx               33     -0.353195  1 N  dyy        

 Vector   27  Occ=0.000000D+00  E= 2.924541D-01
              MO Center=  9.2D-16,  6.9D-16, -3.6D-01, r^2= 2.3D+00
   Bfn.  Coefficient  Atom+Function         Bfn.  Coefficient  Atom+Function  
  ----- ------------  ---------------      ----- ------------  ---------------
    76      1.060436  2 N  dxy               31      0.706390  1 N  dxy        
   121      0.225777  3 O  dxy        

 Vector   28  Occ=0.000000D+00  E= 3.135032D-01
              MO Center= -9.3D-14, -1.9D-14, -8.2D-01, r^2= 1.0D+01
   Bfn.  Coefficient  Atom+Function         Bfn.  Coefficient  Atom+Function  
  ----- ------------  ---------------      ----- ------------  ---------------
    59    -73.538645  2 N  s                 14     68.512643  1 N  s          
    62     20.518568  2 N  pz                17     16.972480  1 N  pz         
   104      7.517497  3 O  s                 58     -5.999759  2 N  pz         
    10     -5.264894  1 N  s                107     -4.997680  3 O  pz         
   100      3.030903  3 O  s                 13     -2.948784  1 N  pz         

 Vector   29  Occ=0.000000D+00  E= 4.507631D-01
              MO Center=  2.5D-14,  8.0D-15, -5.5D-01, r^2= 6.2D+00
   Bfn.  Coefficient  Atom+Function         Bfn.  Coefficient  Atom+Function  
  ----- ------------  ---------------      ----- ------------  ---------------
    14     27.298670  1 N  s                 55    -25.154542  2 N  s          
    59    -24.762673  2 N  s                 10     21.631621  1 N  s          
    62     13.152130  2 N  pz                13     11.891376  1 N  pz         
    58      7.580376  2 N  pz               100      6.822627  3 O  s          
    80     -6.262949  2 N  dzz              104     -4.449839  3 O  s          

 Vector   30  Occ=0.000000D+00  E= 5.059836D-01
              MO Center= -2.8D-14,  3.0D-14, -1.3D+00, r^2= 5.5D+00
   Bfn.  Coefficient  Atom+Function         Bfn.  Coefficient  Atom+Function  
  ----- ------------  ---------------      ----- ------------  ---------------
    10     34.610279  1 N  s                 55    -33.227321  2 N  s          
    59    -19.141593  2 N  s                 13     17.977902  1 N  pz         
    14     17.804788  1 N  s                 58     15.955148  2 N  pz         
    80     -9.183208  2 N  dzz              104      4.720340  3 O  s          
   100      4.384784  3 O  s                 17      3.719793  1 N  pz         


 center of mass
 --------------
 x =   0.00000000 y =   0.00000000 z =  -0.00154422

 moments of inertia (a.u.)
 ------------------
         140.187358009560           0.000000000000           0.000000000000
           0.000000000000         140.187358009560           0.000000000000
           0.000000000000           0.000000000000           0.000000000000

     Multipole analysis of the density
     ---------------------------------

     L   x y z        total         alpha         beta         nuclear
     -   - - -        -----         -----         ----         -------
     0   0 0 0     -0.000000    -11.000000    -11.000000     22.000000

     1   1 0 0      0.000000      0.000000      0.000000      0.000000
     1   0 1 0     -0.000000     -0.000000     -0.000000      0.000000
     1   0 0 1      0.087847      0.056444      0.056444     -0.025042

     2   2 0 0    -11.634077     -5.817039     -5.817039      0.000000
     2   1 1 0      0.000000      0.000000      0.000000      0.000000
     2   1 0 1      0.000000      0.000000      0.000000      0.000000
     2   0 2 0    -11.634077     -5.817039     -5.817039      0.000000
     2   0 1 1      0.000000      0.000000      0.000000      0.000000
     2   0 0 2    -14.113085    -42.104989    -42.104989     70.096893


 Parallel integral file used     251 records with       0 large values


            General Information
            -------------------
          SCF calculation type: DFT
          Wavefunction type:  closed shell.
          No. of atoms     :     3
          No. of electrons :    22
           Alpha electrons :    11
            Beta electrons :    11
          Charge           :     0
          Spin multiplicity:     1
          Use of symmetry is: off; symmetry adaption is: off
          Maximum number of iterations: ***
          AO basis - number of functions:   135
                     number of shells:    39
          Convergence on energy requested: 1.00D-06
          Convergence on density requested: 1.00D-05
          Convergence on gradient requested: 5.00D-04

              XC Information
              --------------
                  TPSS metaGGA Exchange Functional  1.000          
             TPSS03 metaGGA Correlation Functional  1.000          

             Grid Information
             ----------------
          Grid used for XC integration:  medium    
          Radial quadrature: Mura-Knowles        
          Angular quadrature: Lebedev. 
          Tag              B.-S. Rad. Rad. Pts. Rad. Cut. Ang. Pts.
          ---              ---------- --------- --------- ---------
          N                   0.65       49          10.0       434
          O                   0.60       49          10.0       434
          Grid pruning is: on 
          Number of quadrature shells:   147
          Spatial weights used:  Erf1

          Convergence Information
          -----------------------
          Convergence aids based upon iterative change in 
          total energy or number of iterations. 
          Levelshifting, if invoked, occurs when the 
          HOMO/LUMO gap drops below (HL_TOL): 1.00D-02
          DIIS, if invoked, will attempt to extrapolate 
          using up to (NFOCK): 10 stored Fock matrices.

                    Damping( 0%)  Levelshifting(0.5)       DIIS
                  --------------- ------------------- ---------------
          dE  on:    start            ASAP                start   
          dE off:    2 iters        *** iters           *** iters 


      Screening Tolerance Information
      -------------------------------
          Density screening/tol_rho: 1.00D-10
          AO Gaussian exp screening on grid/accAOfunc:  14
          CD Gaussian exp screening on grid/accCDfunc:  20
          XC Gaussian exp screening on grid/accXCfunc:  20
          Schwarz screening/accCoul: 1.00D-08



                            NWChem DFT Gradient Module
                            --------------------------



  charge          =   0.00
  wavefunction    = closed shell



                         DFT ENERGY GRADIENTS

    atom               coordinates                        gradient
                 x          y          z           x          y          z
   1 N       0.000000   0.000000  -2.252091   -0.000000  -0.000000  -0.000157
   2 N       0.000000   0.000000  -0.124303   -0.000000   0.000000   0.000053
   3 O       0.000000   0.000000   2.076215    0.000000   0.000000   0.000104

                 ----------------------------------------
                 |  Time  |  1-e(secs)   |  2-e(secs)   |
                 ----------------------------------------
                 |  CPU   |       0.00   |       0.74   |
                 ----------------------------------------
                 |  WALL  |       0.00   |       0.74   |
                 ----------------------------------------
                               NWChem STEPPER Module
                               ---------------------


   Step sought for minimum. 
   Actual energy difference is :    2.3050317167871981E-005
   2nd order predicted energy difference  was :   -2.3608919889781433E-006
   One of these is below the energy  tolerance:    1.0000000000000000E-004
   Backstepping possibilities are NO 
   longer considered appropriate. 
   Update Hessian used. 
   Dependent rotation vector no.                    3
   found in ECKART; linear geometry  assumed. 
   Number of modes removed with force (in the spectral representation)
   less than:   0.000000 is:    2
   PARTIT has partitioned the input hessian 
   and gradient into two subspaces;  An 
   "external" hessian and gradient composed 
   of                     5  independent translations 
   and rotations, and an "internal" hessian 
   and gradient with a dimension of                     2
               e-diff         g-norm     g-max   
 value        0.0000230503  0.000196  0.000157
 thres        0.0001000000  0.010000  0.000800
   ENERGY =   -184.75886903575287     
   The hessian exhibits the "proper" 
   structure, and the gradient and energy 
   convergence criterion has been met.  
   This geometry walk is HISTORY.
   Calculating the Newton-Raphson step. 
  The length (norm) of the STEP is   0.000195

  The lowest few components in the bases 
  generated by the spectral decomposition 
  of the internal hessian (non-zero force). 

  Component  Hessian     Grad      Step   Scaled-Step
  ---------  --------  --------  -------- -----------
       1     0.91D+00  -.18D-03  0.19D-03  0.19D-03
       2     0.31D+01  0.88D-04  -.28D-04  -.28D-04

  Clean-up the step; truncate at:   0.000001
  In cartesian coordinates; norm of this step is:   0.000196



  ---------------- Converged geometry ----------------


                         Geometry "g-4-step" -> "g-4-step"
                         ---------------------------------

 Output coordinates in angstroms (scale by  1.889725989 to convert to a.u.)

  No.       Tag          Charge          X              Y              Z
 ---- ---------------- ---------- -------------- -------------- --------------
    1 N                    7.0000     0.00000000     0.00000000    -1.19175523
    2 N                    7.0000     0.00000000     0.00000000    -0.06577857
    3 O                    8.0000     0.00000000     0.00000000     1.09868562

      Atomic Mass 
      ----------- 

      N                 14.003070
      O                 15.994910


 Effective nuclear repulsion energy (a.u.)      61.4152560740

            Nuclear Dipole moment (a.u.) 
            ----------------------------
        X                 Y               Z
 ---------------- ---------------- ----------------
     0.0000000000     0.0000000000    -0.0250420000

 ==============================================================================
                                internuclear distances
 ------------------------------------------------------------------------------
       center one      |      center two      | atomic units |  angstroms
 ------------------------------------------------------------------------------
    2 N                |   1 N                |     2.12779  |     1.12598
    3 O                |   2 N                |     2.20052  |     1.16446
 ------------------------------------------------------------------------------
                         number of included internuclear distances:          2
 ==============================================================================



 ==============================================================================
                                 internuclear angles
 ------------------------------------------------------------------------------
        center 1       |       center 2       |       center 3       |  degrees
 ------------------------------------------------------------------------------
    1 N                |   2 N                |   3 O                |   180.00
 ------------------------------------------------------------------------------
                            number of included internuclear angles:          1
 ==============================================================================




 Task  times  cpu:       14.5s     wall:       17.7s


                                NWChem Input Module
                                -------------------


 Summary of allocated global arrays
-----------------------------------
  No active global arrays



                         GA Statistics for process    0
                         ------------------------------

       create   destroy   get      put      acc     scatter   gather  read&inc
calls:  654      654     4.53e+04 4967     1250        0        0      303     
number of processes/call 1.33e+00 2.09e+00 4.48e+00 0.00e+00 0.00e+00
bytes total:             1.65e+08 2.27e+07 7.60e+07 0.00e+00 0.00e+00 2.42e+03
bytes remote:            1.39e+08 1.42e+07 6.65e+07 0.00e+00 0.00e+00 0.00e+00
Max memory consumed for GA by this process: 666040 bytes

MA_summarize_allocated_blocks: starting scan ...
MA_summarize_allocated_blocks: scan completed: 0 heap blocks, 0 stack blocks
MA usage statistics:

	allocation statistics:
					      heap	     stack
					      ----	     -----
	current number of blocks	         0	         0
	maximum number of blocks	        23	        51
	current total bytes		         0	         0
	maximum total bytes		  43838528	  42441576
	maximum total K-bytes		     43839	     42442
	maximum total M-bytes		        44	        43


                                     CITATION
                                     --------
                Please cite the following reference when publishing
                           results obtained with NWChem:

                 M. Valiev, E.J. Bylaska, N. Govind, K. Kowalski,
              T.P. Straatsma, H.J.J. van Dam, D. Wang, J. Nieplocha,
                        E. Apra, T.L. Windus, W.A. de Jong
                 "NWChem: a comprehensive and scalable open-source
                  solution for large scale molecular simulations"
                      Comput. Phys. Commun. 181, 1477 (2010)
                           doi:10.1016/j.cpc.2010.04.018

                                      AUTHORS
                                      -------
          E. Apra, E. J. Bylaska, W. A. de Jong, N. Govind, K. Kowalski,
       T. P. Straatsma, M. Valiev, H. J. J. van Dam, D. Wang, T. L. Windus,
        J. Hammond, J. Autschbach, K. Bhaskaran-Nair, J. Brabec, K. Lopata,
       S. A. Fischer, S. Krishnamoorthy, W. Ma, M. Klemm, O. Villa, Y. Chen,
    V. Anisimov, F. Aquino, S. Hirata, M. T. Hackler, T. Risthaus, M. Malagoli,
       A. Marenich, A. Otero-de-la-Roza, J. Mullin, P. Nichols, R. Peverati,
     J. Pittner, Y. Zhao, P.-D. Fan, A. Fonari, M. Williamson, R. J. Harrison,
       J. R. Rehr, M. Dupuis, D. Silverstein, D. M. A. Smith, J. Nieplocha,
        V. Tipparaju, M. Krishnan, B. E. Van Kuiken, A. Vazquez-Mayagoitia,
        L. Jensen, M. Swart, Q. Wu, T. Van Voorhis, A. A. Auer, M. Nooijen,
      L. D. Crosby, E. Brown, G. Cisneros, G. I. Fann, H. Fruchtl, J. Garza,
        K. Hirao, R. A. Kendall, J. A. Nichols, K. Tsemekhman, K. Wolinski,
     J. Anchell, D. E. Bernholdt, P. Borowski, T. Clark, D. Clerc, H. Dachsel,
   M. J. O. Deegan, K. Dyall, D. Elwood, E. Glendening, M. Gutowski, A. C. Hess,
         J. Jaffe, B. G. Johnson, J. Ju, R. Kobayashi, R. Kutteh, Z. Lin,
   R. Littlefield, X. Long, B. Meng, T. Nakajima, S. Niu, L. Pollack, M. Rosing,
   K. Glaesemann, G. Sandrone, M. Stave, H. Taylor, G. Thomas, J. H. van Lenthe,
                               A. T. Wong, Z. Zhang.

 Total times  cpu:       14.6s     wall:       17.9s
