[1537857345.114278] [r8n4:12677:0]         sys.c:744  MXM  WARN  Conflicting CPU frequencies detected, using: 1694.81
[1537857345.123740] [r8n4:12678:0]         sys.c:744  MXM  WARN  Conflicting CPU frequencies detected, using: 1797.05
[1537857345.124080] [r8n4:12681:0]         sys.c:744  MXM  WARN  Conflicting CPU frequencies detected, using: 1797.05
[1537857345.125227] [r8n4:12682:0]         sys.c:744  MXM  WARN  Conflicting CPU frequencies detected, using: 1797.05
[1537857345.125467] [r8n4:12679:0]         sys.c:744  MXM  WARN  Conflicting CPU frequencies detected, using: 1797.05
[1537857345.125558] [r8n4:12680:0]         sys.c:744  MXM  WARN  Conflicting CPU frequencies detected, using: 1797.05
[1537857345.125727] [r8n4:12683:0]         sys.c:744  MXM  WARN  Conflicting CPU frequencies detected, using: 1797.05
[1537857345.133148] [r8n4:12685:0]         sys.c:744  MXM  WARN  Conflicting CPU frequencies detected, using: 1897.41
[1537857345.133626] [r8n4:12687:0]         sys.c:744  MXM  WARN  Conflicting CPU frequencies detected, using: 1897.41
[1537857345.164940] [r8n4:12693:0]         sys.c:744  MXM  WARN  Conflicting CPU frequencies detected, using: 2197.67
[1537857345.165209] [r8n4:12697:0]         sys.c:744  MXM  WARN  Conflicting CPU frequencies detected, using: 2197.67
[1537857345.166283] [r8n4:12695:0]         sys.c:744  MXM  WARN  Conflicting CPU frequencies detected, using: 2197.67
[1537857345.166710] [r8n4:12691:0]         sys.c:744  MXM  WARN  Conflicting CPU frequencies detected, using: 2197.67
[1537857345.166873] [r8n4:12700:0]         sys.c:744  MXM  WARN  Conflicting CPU frequencies detected, using: 2197.67
[1537857345.167126] [r8n4:12699:0]         sys.c:744  MXM  WARN  Conflicting CPU frequencies detected, using: 2197.67
[1537857345.167317] [r8n4:12689:0]         sys.c:744  MXM  WARN  Conflicting CPU frequencies detected, using: 2197.67
 argument  1 = /storage/home/bikashp/nwchem_run/rabeet/mgbl19/nwmgbl19/NH.xyz.nw
                                         
                                         


              Northwest Computational Chemistry Package (NWChem) 6.6
              ------------------------------------------------------


                    Environmental Molecular Sciences Laboratory
                       Pacific Northwest National Laboratory
                                Richland, WA 99352

                              Copyright (c) 1994-2015
                       Pacific Northwest National Laboratory
                            Battelle Memorial Institute

             NWChem is an open-source computational chemistry package
                        distributed under the terms of the
                      Educational Community License (ECL) 2.0
             A copy of the license is included with this distribution
                              in the LICENSE.TXT file

                                  ACKNOWLEDGMENT
                                  --------------

            This software and its documentation were developed at the
            EMSL at Pacific Northwest National Laboratory, a multiprogram
            national laboratory, operated for the U.S. Department of Energy
            by Battelle under Contract Number DE-AC05-76RL01830. Support
            for this work was provided by the Department of Energy Office
            of Biological and Environmental Research, Office of Basic
            Energy Sciences, and the Office of Advanced Scientific Computing.


           Job information
           ---------------

    hostname        = r8n4.niserhpc.org
    program         = /home/bikashp/Code/nwchem-6.6_tpssloc/bin/LINUX64/nwchem
    date            = Tue Sep 25 12:05:48 2018

    compiled        = Tue_Sep_18_16:24:59_2018
    source          = /home/bikashp/Code/nwchem-6.6_tpssloc
    nwchem branch   = 6.6
    nwchem revision = 27746
    ga revision     = 10594
    input           = /storage/home/bikashp/nwchem_run/rabeet/mgbl19/nwmgbl19/NH.xyz.nw
    prefix          = NH.xyz.
    data base       = ./NH.xyz.db
    status          = startup
    nproc           =       16
    time left       =     -1s



           Memory information
           ------------------

    heap     =   13107196 doubles =    100.0 Mbytes
    stack    =   13107201 doubles =    100.0 Mbytes
    global   =   26214400 doubles =    200.0 Mbytes (distinct from heap & stack)
    total    =   52428797 doubles =    400.0 Mbytes
    verify   = yes
    hardfail = no 


           Directory information
           ---------------------

  0 permanent = .
  0 scratch   = .




                                NWChem Input Module
                                -------------------



 Scaling coordinates for geometry "geometry" by  1.889725989
 (inverse scale =  0.529177249)



                             Geometry "geometry" -> ""
                             -------------------------

 Output coordinates in angstroms (scale by  1.889725989 to convert to a.u.)

  No.       Tag          Charge          X              Y              Z
 ---- ---------------- ---------- -------------- -------------- --------------
    1 N                    7.0000     0.00000000     0.00000000    -0.12959125
    2 H                    1.0000     0.00000000     0.00000000     0.90713875

      Atomic Mass 
      ----------- 

      N                 14.003070
      H                  1.007825


 Effective nuclear repulsion energy (a.u.)       3.5730042952

            Nuclear Dipole moment (a.u.) 
            ----------------------------
        X                 Y               Z
 ---------------- ---------------- ----------------
     0.0000000000     0.0000000000     0.0000000000


            XYZ format geometry
            -------------------
     2
 geometry
 N                     0.00000000     0.00000000    -0.12959125
 H                     0.00000000     0.00000000     0.90713875

 ==============================================================================
                                internuclear distances
 ------------------------------------------------------------------------------
       center one      |      center two      | atomic units |  angstroms
 ------------------------------------------------------------------------------
    2 H                |   1 N                |     1.95914  |     1.03673
 ------------------------------------------------------------------------------
                         number of included internuclear distances:          1
 ==============================================================================





 Summary of "ao basis" -> "" (cartesian)
 ------------------------------------------------------------------------------
       Tag                 Description            Shells   Functions and Types
 ---------------- ------------------------------  ------  ---------------------
 *                     6-311++G(3df,3pd)              on all atoms 




                           NWChem Geometry Optimization
                           ----------------------------



                                 NWChem DFT Module
                                 -----------------


                      Basis "ao basis" -> "ao basis" (cartesian)
                      -----
  N (Nitrogen)
  ------------
            Exponent  Coefficients 
       -------------- ---------------------------------------------------------
  1 S  6.29348000E+03  0.001970
  1 S  9.49044000E+02  0.014961
  1 S  2.18776000E+02  0.073501
  1 S  6.36916000E+01  0.248937
  1 S  1.88282000E+01  0.602460
  1 S  2.72023000E+00  0.256202

  2 S  3.06331000E+01  0.111906
  2 S  7.02614000E+00  0.921666
  2 S  2.11205000E+00 -0.002569

  3 P  3.06331000E+01  0.038312
  3 P  7.02614000E+00  0.237403
  3 P  2.11205000E+00  0.817592

  4 S  6.84009000E-01  1.000000

  5 P  6.84009000E-01  1.000000

  6 S  2.00878000E-01  1.000000

  7 P  2.00878000E-01  1.000000

  8 S  6.39000000E-02  1.000000

  9 P  6.39000000E-02  1.000000

 10 D  3.65200000E+00  1.000000

 11 D  9.13000000E-01  1.000000

 12 D  2.28250000E-01  1.000000

 13 F  1.00000000E+00  1.000000

  H (Hydrogen)
  ------------
            Exponent  Coefficients 
       -------------- ---------------------------------------------------------
  1 S  3.38650000E+01  0.025494
  1 S  5.09479000E+00  0.190373
  1 S  1.15879000E+00  0.852161

  2 S  3.25840000E-01  1.000000

  3 S  1.02741000E-01  1.000000

  4 S  3.60000000E-02  1.000000

  5 P  3.00000000E+00  1.000000

  6 P  7.50000000E-01  1.000000

  7 P  1.87500000E-01  1.000000

  8 D  1.00000000E+00  1.000000



 Summary of "ao basis" -> "ao basis" (cartesian)
 ------------------------------------------------------------------------------
       Tag                 Description            Shells   Functions and Types
 ---------------- ------------------------------  ------  ---------------------
 N                     6-311++G(3df,3pd)            13       45   5s4p3d1f
 H                     6-311++G(3df,3pd)             8       19   4s3p1d




 Summary of "ao basis" -> "ao basis" (cartesian)
 ------------------------------------------------------------------------------
       Tag                 Description            Shells   Functions and Types
 ---------------- ------------------------------  ------  ---------------------
 N                     6-311++G(3df,3pd)            13       45   5s4p3d1f
 H                     6-311++G(3df,3pd)             8       19   4s3p1d


  Caching 1-el integrals 

            General Information
            -------------------
          SCF calculation type: DFT
          Wavefunction type:  closed shell.
          No. of atoms     :     2
          No. of electrons :     8
           Alpha electrons :     4
            Beta electrons :     4
          Charge           :     0
          Spin multiplicity:     1
          Use of symmetry is: off; symmetry adaption is: off
          Maximum number of iterations: ***
          AO basis - number of functions:    64
                     number of shells:    21
          Convergence on energy requested: 1.00D-06
          Convergence on density requested: 1.00D-05
          Convergence on gradient requested: 5.00D-04

              XC Information
              --------------
                  TPSS metaGGA Exchange Functional  1.000          
             TPSS03 metaGGA Correlation Functional  1.000          

             Grid Information
             ----------------
          Grid used for XC integration:  medium    
          Radial quadrature: Mura-Knowles        
          Angular quadrature: Lebedev. 
          Tag              B.-S. Rad. Rad. Pts. Rad. Cut. Ang. Pts.
          ---              ---------- --------- --------- ---------
          N                   0.65       49           9.0       434
          H                   0.35       45           9.0       434
          Grid pruning is: on 
          Number of quadrature shells:    94
          Spatial weights used:  Erf1

          Convergence Information
          -----------------------
          Convergence aids based upon iterative change in 
          total energy or number of iterations. 
          Levelshifting, if invoked, occurs when the 
          HOMO/LUMO gap drops below (HL_TOL): 1.00D-02
          DIIS, if invoked, will attempt to extrapolate 
          using up to (NFOCK): 10 stored Fock matrices.

                    Damping( 0%)  Levelshifting(0.5)       DIIS
                  --------------- ------------------- ---------------
          dE  on:    start            ASAP                start   
          dE off:    2 iters        *** iters           *** iters 


      Screening Tolerance Information
      -------------------------------
          Density screening/tol_rho: 1.00D-10
          AO Gaussian exp screening on grid/accAOfunc:  14
          CD Gaussian exp screening on grid/accCDfunc:  20
          XC Gaussian exp screening on grid/accXCfunc:  20
          Schwarz screening/accCoul: 1.00D-08


      Superposition of Atomic Density Guess
      -------------------------------------

 Sum of atomic energies:         -54.80778618

      Non-variational initial energy
      ------------------------------

 Total energy =     -54.571568
 1-e energy   =     -81.149538
 2-e energy   =      23.004966
 HOMO         =      -0.246855
 LUMO         =      -0.246855

   Time after variat. SCF:      0.2
   Time prior to 1st pass:      0.2

 #quartets = 2.680D+04 #integrals = 5.635D+05 #direct =  0.0% #cached =100.0%


 Integral file          = ./NH.xyz.aoints.00
 Record size in doubles =    65536    No. of integs per rec  =    43688
 Max. records in memory =        6    Max. records in file   = 11666411
 No. of bits per label  =        8    No. of bits per value  =       64


File balance: exchanges=     0  moved=     0  time=   0.0


 Grid_pts file          = ./NH.xyz.gridpts.00
 Record size in doubles =  12289        No. of grid_pts per rec  =   3070
 Max. records in memory =      2        Max. recs in file   =  62215802


           Memory utilization after 1st SCF pass: 
           Heap Space remaining (MW):       12.69            12686796
          Stack Space remaining (MW):       13.11            13106756

   convergence    iter        energy       DeltaE   RMS-Dens  Diis-err    time
 ---------------- ----- ----------------- --------- --------- ---------  ------
 d= 0,ls=0.0,diis     1    -55.1436440707 -5.87D+01  2.04D-02  3.50D-01     0.5
 d= 0,ls=0.0,diis     2    -55.1363780117  7.27D-03  1.92D-02  4.72D-01     0.5
 d= 0,ls=0.5,diis     3    -55.1533893341 -1.70D-02  1.15D-03  8.76D-02     0.6
 d= 0,ls=0.5,diis     4    -55.1533970181 -7.68D-06  1.10D-03  3.40D-02     0.6
 d= 0,ls=0.5,diis     5    -55.1534992636 -1.02D-04  5.14D-04  4.76D-03     0.7
  Resetting Diis
 d= 0,ls=0.5,diis     6    -55.1519839648  1.52D-03  2.04D-04  2.91D-04     0.7
 d= 0,ls=0.5,diis     7    -55.1517731993  2.11D-04  8.33D-05  3.37D-05     0.7
 d= 0,ls=0.5,diis     8    -55.1516677221  1.05D-04  5.51D-05  9.66D-06     0.8
 d= 0,ls=0.5,diis     9    -55.1517139388 -4.62D-05  2.92D-05  3.36D-06     0.8
 d= 0,ls=0.5,diis    10    -55.1517008975  1.30D-05  1.59D-05  7.88D-07     0.9
 d= 0,ls=0.5,diis    11    -55.1517001807  7.17D-07  8.06D-06  2.50D-07     0.9


         Total DFT energy =      -55.151699227120
      One electron energy =      -81.224484133635
           Coulomb energy =       29.575336894856
          Exchange energy =       -6.843632389556
       Correlation energy =       -0.231923894019
 Nuclear repulsion energy =        3.573004295234

 Numeric. integr. density =        8.000000067540

     Total iterative time =      0.7s



                       DFT Final Molecular Orbital Analysis
                       ------------------------------------

 Vector    1  Occ=2.000000D+00  E=-1.427765D+01
              MO Center=  8.9D-17, -1.5D-16, -1.3D-01, r^2= 2.0D-02
   Bfn.  Coefficient  Atom+Function         Bfn.  Coefficient  Atom+Function  
  ----- ------------  ---------------      ----- ------------  ---------------
     1      0.556711  1 N  s                  2      0.467182  1 N  s          

 Vector    2  Occ=2.000000D+00  E=-8.190175D-01
              MO Center= -3.7D-15, -2.4D-15,  1.6D-01, r^2= 6.1D-01
   Bfn.  Coefficient  Atom+Function         Bfn.  Coefficient  Atom+Function  
  ----- ------------  ---------------      ----- ------------  ---------------
    10      0.608479  1 N  s                  6      0.482592  1 N  s          
     2     -0.193118  1 N  s          

 Vector    3  Occ=2.000000D+00  E=-4.170947D-01
              MO Center= -2.9D-15, -6.9D-15, -1.1D-01, r^2= 9.5D-01
   Bfn.  Coefficient  Atom+Function         Bfn.  Coefficient  Atom+Function  
  ----- ------------  ---------------      ----- ------------  ---------------
    10      0.365104  1 N  s                 13     -0.348611  1 N  pz         
     9     -0.298233  1 N  pz                 5     -0.245803  1 N  pz         
     6      0.179470  1 N  s          

 Vector    4  Occ=2.000000D+00  E=-2.941747D-01
              MO Center= -1.7D-15,  4.0D-15, -7.9D-02, r^2= 9.0D-01
   Bfn.  Coefficient  Atom+Function         Bfn.  Coefficient  Atom+Function  
  ----- ------------  ---------------      ----- ------------  ---------------
    12      0.431070  1 N  py                 8      0.339413  1 N  py         
     4      0.277764  1 N  py                11     -0.184693  1 N  px         

 Vector    5  Occ=0.000000D+00  E=-3.464596D-01
              MO Center=  4.5D-15,  1.5D-15, -8.6D-02, r^2= 7.9D-01
   Bfn.  Coefficient  Atom+Function         Bfn.  Coefficient  Atom+Function  
  ----- ------------  ---------------      ----- ------------  ---------------
    11      0.385421  1 N  px                 7      0.345963  1 N  px         
     3      0.285196  1 N  px                12      0.165129  1 N  py         

 Vector    6  Occ=0.000000D+00  E=-2.784861D-02
              MO Center= -2.4D-14,  1.2D-14,  1.2D+00, r^2= 5.3D+00
   Bfn.  Coefficient  Atom+Function         Bfn.  Coefficient  Atom+Function  
  ----- ------------  ---------------      ----- ------------  ---------------
    49      1.187774  2 H  s                 14     -0.762334  1 N  s          
    48      0.620056  2 H  s                 10     -0.356054  1 N  s          
    17     -0.269982  1 N  pz                13     -0.202835  1 N  pz         
     6     -0.193184  1 N  s                 47      0.155215  2 H  s          
     9     -0.154088  1 N  pz         

 Vector    7  Occ=0.000000D+00  E= 8.909613D-02
              MO Center= -1.2D-14, -2.7D-13, -3.1D-01, r^2= 5.7D+00
   Bfn.  Coefficient  Atom+Function         Bfn.  Coefficient  Atom+Function  
  ----- ------------  ---------------      ----- ------------  ---------------
    48      2.025249  2 H  s                 14     -1.382048  1 N  s          
    13     -0.884214  1 N  pz                49     -0.631907  2 H  s          
    10     -0.589818  1 N  s                 47      0.480300  2 H  s          
    17      0.230141  1 N  pz                 9     -0.215417  1 N  pz         
    58     -0.201993  2 H  pz                 5     -0.168036  1 N  pz         

 Vector    8  Occ=0.000000D+00  E= 9.648874D-02
              MO Center=  8.9D-14,  3.6D-14, -8.1D-02, r^2= 6.3D+00
   Bfn.  Coefficient  Atom+Function         Bfn.  Coefficient  Atom+Function  
  ----- ------------  ---------------      ----- ------------  ---------------
    15      1.085941  1 N  px                16      0.465506  1 N  py         
    11     -0.373013  1 N  px                12     -0.159897  1 N  py         
     7     -0.153340  1 N  px         

 Vector    9  Occ=0.000000D+00  E= 9.846056D-02
              MO Center=  8.9D-14, -1.5D-13,  5.9D-01, r^2= 9.1D+00
   Bfn.  Coefficient  Atom+Function         Bfn.  Coefficient  Atom+Function  
  ----- ------------  ---------------      ----- ------------  ---------------
    48      2.298710  2 H  s                 49     -1.740219  2 H  s          
    14      1.209767  1 N  s                 17     -0.883318  1 N  pz         
    10     -0.846172  1 N  s                 13     -0.473051  1 N  pz         
    47      0.453953  2 H  s                 35     -0.425249  1 N  dzz        
    30     -0.373741  1 N  dxx               33     -0.357913  1 N  dyy        

 Vector   10  Occ=0.000000D+00  E= 9.928342D-02
              MO Center= -1.5D-13,  3.5D-13, -8.5D-02, r^2= 6.3D+00
   Bfn.  Coefficient  Atom+Function         Bfn.  Coefficient  Atom+Function  
  ----- ------------  ---------------      ----- ------------  ---------------
    16      1.086616  1 N  py                15     -0.465799  1 N  px         
    12     -0.392087  1 N  py                 8     -0.168098  1 N  py         
    11      0.168076  1 N  px         

 Vector   11  Occ=0.000000D+00  E= 1.408298D-01
              MO Center= -5.0D-15,  2.5D-14,  1.7D-01, r^2= 9.1D+00
   Bfn.  Coefficient  Atom+Function         Bfn.  Coefficient  Atom+Function  
  ----- ------------  ---------------      ----- ------------  ---------------
    14      6.225643  1 N  s                 48     -4.611371  2 H  s          
    17      2.833293  1 N  pz                49     -2.502777  2 H  s          
    10      1.005675  1 N  s                 13      0.869061  1 N  pz         
    58      0.720921  2 H  pz                47     -0.629501  2 H  s          
    30     -0.196112  1 N  dxx                6     -0.192320  1 N  s          

 Vector   12  Occ=0.000000D+00  E= 2.803828D-01
              MO Center=  5.3D-15, -1.2D-14,  6.2D-01, r^2= 2.8D+00
   Bfn.  Coefficient  Atom+Function         Bfn.  Coefficient  Atom+Function  
  ----- ------------  ---------------      ----- ------------  ---------------
    57      1.157964  2 H  py                56     -0.496178  2 H  px         
    12     -0.451406  1 N  py                16     -0.408468  1 N  py         
    11      0.193428  1 N  px                34      0.184034  1 N  dyz        
    15      0.175022  1 N  px         

 Vector   13  Occ=0.000000D+00  E= 2.844122D-01
              MO Center= -2.6D-15, -1.7D-15,  6.3D-01, r^2= 2.8D+00
   Bfn.  Coefficient  Atom+Function         Bfn.  Coefficient  Atom+Function  
  ----- ------------  ---------------      ----- ------------  ---------------
    56      1.154802  2 H  px                57      0.494825  2 H  py         
    11     -0.450626  1 N  px                15     -0.405314  1 N  px         
    12     -0.193086  1 N  py                16     -0.173677  1 N  py         
    32      0.170226  1 N  dxz        

 Vector   14  Occ=0.000000D+00  E= 3.683358D-01
              MO Center=  1.4D-14, -8.1D-15,  5.3D-01, r^2= 5.9D+00
   Bfn.  Coefficient  Atom+Function         Bfn.  Coefficient  Atom+Function  
  ----- ------------  ---------------      ----- ------------  ---------------
    48     10.651579  2 H  s                 14     -4.895065  1 N  s          
    10     -4.436622  1 N  s                 58     -2.904436  2 H  pz         
    13     -2.774949  1 N  pz                17     -2.681365  1 N  pz         
    35     -1.683994  1 N  dzz               47      1.195474  2 H  s          
    30     -0.250743  1 N  dxx               46     -0.221803  2 H  s          

 Vector   15  Occ=0.000000D+00  E= 4.246848D-01
              MO Center=  1.4D-14,  4.7D-15, -1.3D-01, r^2= 2.1D+00
   Bfn.  Coefficient  Atom+Function         Bfn.  Coefficient  Atom+Function  
  ----- ------------  ---------------      ----- ------------  ---------------
    31      1.184019  1 N  dxy               30     -0.621421  1 N  dxx        
    33      0.621438  1 N  dyy        

 Vector   16  Occ=0.000000D+00  E= 4.330104D-01
              MO Center= -5.7D-15,  8.1D-16, -1.1D-01, r^2= 2.3D+00
   Bfn.  Coefficient  Atom+Function         Bfn.  Coefficient  Atom+Function  
  ----- ------------  ---------------      ----- ------------  ---------------
    31      1.226546  1 N  dxy               33     -0.879515  1 N  dyy        
    14      0.783164  1 N  s                 49     -0.346454  2 H  s          
    30      0.288963  1 N  dxx               35     -0.265816  1 N  dzz        
    10      0.200632  1 N  s          

 Vector   17  Occ=0.000000D+00  E= 5.431907D-01
              MO Center= -6.8D-14,  6.0D-14,  1.4D-01, r^2= 5.3D+00
   Bfn.  Coefficient  Atom+Function         Bfn.  Coefficient  Atom+Function  
  ----- ------------  ---------------      ----- ------------  ---------------
    14      4.935861  1 N  s                 10      3.558189  1 N  s          
    48     -2.350640  2 H  s                 30     -1.755137  1 N  dxx        
    33     -1.577629  1 N  dyy               49     -1.554366  2 H  s          
    58      1.439192  2 H  pz                35     -1.318853  1 N  dzz        
    13      1.236133  1 N  pz                47     -1.156349  2 H  s          


 center of mass
 --------------
 x =   0.00000000 y =   0.00000000 z =  -0.11335643

 moments of inertia (a.u.)
 ------------------
           3.608534014599           0.000000000000           0.000000000000
           0.000000000000           3.608534014599           0.000000000000
           0.000000000000           0.000000000000           0.000000000000

     Multipole analysis of the density
     ---------------------------------

     L   x y z        total         alpha         beta         nuclear
     -   - - -        -----         -----         ----         -------
     0   0 0 0     -0.000000     -4.000000     -4.000000      8.000000

     1   1 0 0      0.000000      0.000000      0.000000      0.000000
     1   0 1 0      0.000000      0.000000      0.000000      0.000000
     1   0 0 1      0.603522      0.301761      0.301761      0.000000

     2   2 0 0     -4.302725     -2.151362     -2.151362      0.000000
     2   1 1 0      0.862973      0.431487      0.431487      0.000000
     2   1 0 1     -0.000000     -0.000000     -0.000000      0.000000
     2   0 2 0     -5.947133     -2.973567     -2.973567      0.000000
     2   0 1 1      0.000000      0.000000      0.000000      0.000000
     2   0 0 2     -4.507532     -3.932984     -3.932984      3.358436


 Parallel integral file used      18 records with       0 large values


            General Information
            -------------------
          SCF calculation type: DFT
          Wavefunction type:  closed shell.
          No. of atoms     :     2
          No. of electrons :     8
           Alpha electrons :     4
            Beta electrons :     4
          Charge           :     0
          Spin multiplicity:     1
          Use of symmetry is: off; symmetry adaption is: off
          Maximum number of iterations: ***
          AO basis - number of functions:    64
                     number of shells:    21
          Convergence on energy requested: 1.00D-06
          Convergence on density requested: 1.00D-05
          Convergence on gradient requested: 5.00D-04

              XC Information
              --------------
                  TPSS metaGGA Exchange Functional  1.000          
             TPSS03 metaGGA Correlation Functional  1.000          

             Grid Information
             ----------------
          Grid used for XC integration:  medium    
          Radial quadrature: Mura-Knowles        
          Angular quadrature: Lebedev. 
          Tag              B.-S. Rad. Rad. Pts. Rad. Cut. Ang. Pts.
          ---              ---------- --------- --------- ---------
          N                   0.65       49           9.0       434
          H                   0.35       45           9.0       434
          Grid pruning is: on 
          Number of quadrature shells:    94
          Spatial weights used:  Erf1

          Convergence Information
          -----------------------
          Convergence aids based upon iterative change in 
          total energy or number of iterations. 
          Levelshifting, if invoked, occurs when the 
          HOMO/LUMO gap drops below (HL_TOL): 1.00D-02
          DIIS, if invoked, will attempt to extrapolate 
          using up to (NFOCK): 10 stored Fock matrices.

                    Damping( 0%)  Levelshifting(0.5)       DIIS
                  --------------- ------------------- ---------------
          dE  on:    start            ASAP                start   
          dE off:    2 iters        *** iters           *** iters 


      Screening Tolerance Information
      -------------------------------
          Density screening/tol_rho: 1.00D-10
          AO Gaussian exp screening on grid/accAOfunc:  14
          CD Gaussian exp screening on grid/accCDfunc:  20
          XC Gaussian exp screening on grid/accXCfunc:  20
          Schwarz screening/accCoul: 1.00D-08



                            NWChem DFT Gradient Module
                            --------------------------



  charge          =   0.00
  wavefunction    = closed shell



                         DFT ENERGY GRADIENTS

    atom               coordinates                        gradient
                 x          y          z           x          y          z
   1 N       0.000000   0.000000  -0.244892   -0.000000  -0.000000   0.008946
   2 H       0.000000   0.000000   1.714244    0.000000   0.000000  -0.008946

                 ----------------------------------------
                 |  Time  |  1-e(secs)   |  2-e(secs)   |
                 ----------------------------------------
                 |  CPU   |       0.00   |       0.08   |
                 ----------------------------------------
                 |  WALL  |       0.00   |       0.08   |
                 ----------------------------------------
                               NWChem STEPPER Module
                               ---------------------


   Step sought for minimum. 
   Update Hessian used. 
   Nuclear Hessian initialized with UNIT matrix. 
   Dependent rotation vector no.                    3
   found in ECKART; linear geometry  assumed. 
   Number of modes removed with force (in the spectral representation)
   less than:   0.000000 is:    0
   PARTIT has partitioned the input hessian 
   and gradient into two subspaces;  An 
   "external" hessian and gradient composed 
   of                     5  independent translations 
   and rotations, and an "internal" hessian 
   and gradient with a dimension of                     1
               e-diff         g-norm     g-max   
 value      -55.1516992271  0.012652  0.008946
 thres        0.0001000000  0.010000  0.000800
  trust radius =     0.10
   Calculating the Newton-Raphson step. 
  The length (norm) of the STEP is   0.012652

  The lowest few components in the bases 
  generated by the spectral decomposition 
  of the internal hessian (non-zero force). 

  Component  Hessian     Grad      Step   Scaled-Step
  ---------  --------  --------  -------- -----------
       1     0.10D+01  0.13D-01  -.13D-01  -.13D-01

  Clean-up the step; truncate at:   0.000001
  In cartesian coordinates; norm of this step is:   0.012652
         Walk statistics for step:   1
     Previous actual total energy:   0.000000000000D+00
      Current actual total energy:  -0.551516992271D+02
         Actual energy difference:  -0.551516992271D+02 threshold:         0.100000D-03
    Second order energy predicted:   0.000000000000D+00
             Ratio of differences:   0.000000000000D+00
               Fixed trust radius:   0.100000000000D+00
   Number of negative eigenvalues:   0
   Max absolute value of Gradient:   0.894601008666D-02 threshold:         0.800000D-03
                    Gradient norm:   0.126515687937D-01 threshold:         0.100000D-01
                RMS Gradient norm:   0.894601008666D-02
  Largest component of step v-tor:   0.126520000000D-01
  New 2nd order energy prediction:  -0.800310963776D-04



  ------------------- New geometry -------------------


                         Geometry "g-1-step" -> "g-1-step"
                         ---------------------------------

 Output coordinates in angstroms (scale by  1.889725989 to convert to a.u.)

  No.       Tag          Charge          X              Y              Z
 ---- ---------------- ---------- -------------- -------------- --------------
    1 N                    7.0000     0.00000000     0.00000000    -0.13432527
    2 H                    1.0000     0.00000000     0.00000000     0.91187277

      Atomic Mass 
      ----------- 

      N                 14.003070
      H                  1.007825


 Effective nuclear repulsion energy (a.u.)       3.5406687871

            Nuclear Dipole moment (a.u.) 
            ----------------------------
        X                 Y               Z
 ---------------- ---------------- ----------------
     0.0000000000     0.0000000000    -0.0536760000

 ==============================================================================
                                internuclear distances
 ------------------------------------------------------------------------------
       center one      |      center two      | atomic units |  angstroms
 ------------------------------------------------------------------------------
    2 H                |   1 N                |     1.97703  |     1.04620
 ------------------------------------------------------------------------------
                         number of included internuclear distances:          1
 ==============================================================================




                                 NWChem DFT Module
                                 -----------------




 Summary of "ao basis" -> "ao basis" (cartesian)
 ------------------------------------------------------------------------------
       Tag                 Description            Shells   Functions and Types
 ---------------- ------------------------------  ------  ---------------------
 N                     6-311++G(3df,3pd)            13       45   5s4p3d1f
 H                     6-311++G(3df,3pd)             8       19   4s3p1d


  Caching 1-el integrals 

            General Information
            -------------------
          SCF calculation type: DFT
          Wavefunction type:  closed shell.
          No. of atoms     :     2
          No. of electrons :     8
           Alpha electrons :     4
            Beta electrons :     4
          Charge           :     0
          Spin multiplicity:     1
          Use of symmetry is: off; symmetry adaption is: off
          Maximum number of iterations: ***
          AO basis - number of functions:    64
                     number of shells:    21
          Convergence on energy requested: 1.00D-06
          Convergence on density requested: 1.00D-05
          Convergence on gradient requested: 5.00D-04

              XC Information
              --------------
                  TPSS metaGGA Exchange Functional  1.000          
             TPSS03 metaGGA Correlation Functional  1.000          

             Grid Information
             ----------------
          Grid used for XC integration:  medium    
          Radial quadrature: Mura-Knowles        
          Angular quadrature: Lebedev. 
          Tag              B.-S. Rad. Rad. Pts. Rad. Cut. Ang. Pts.
          ---              ---------- --------- --------- ---------
          N                   0.65       49           9.0       434
          H                   0.35       45           9.0       434
          Grid pruning is: on 
          Number of quadrature shells:    94
          Spatial weights used:  Erf1

          Convergence Information
          -----------------------
          Convergence aids based upon iterative change in 
          total energy or number of iterations. 
          Levelshifting, if invoked, occurs when the 
          HOMO/LUMO gap drops below (HL_TOL): 1.00D-02
          DIIS, if invoked, will attempt to extrapolate 
          using up to (NFOCK): 10 stored Fock matrices.

                    Damping( 0%)  Levelshifting(0.5)       DIIS
                  --------------- ------------------- ---------------
          dE  on:    start            ASAP                start   
          dE off:    2 iters        *** iters           *** iters 


      Screening Tolerance Information
      -------------------------------
          Density screening/tol_rho: 1.00D-10
          AO Gaussian exp screening on grid/accAOfunc:  14
          CD Gaussian exp screening on grid/accCDfunc:  20
          XC Gaussian exp screening on grid/accXCfunc:  20
          Schwarz screening/accCoul: 1.00D-08


 Loading old vectors from job with title :



   Time after variat. SCF:      1.1
   Time prior to 1st pass:      1.1

 #quartets = 2.680D+04 #integrals = 5.635D+05 #direct =  0.0% #cached =100.0%


 Integral file          = ./NH.xyz.aoints.00
 Record size in doubles =    65536    No. of integs per rec  =    43688
 Max. records in memory =        6    Max. records in file   = 11665904
 No. of bits per label  =        8    No. of bits per value  =       64


File balance: exchanges=     0  moved=     0  time=   0.0


 Grid_pts file          = ./NH.xyz.gridpts.00
 Record size in doubles =  12289        No. of grid_pts per rec  =   3070
 Max. records in memory =      2        Max. recs in file   =  62213096


           Memory utilization after 1st SCF pass: 
           Heap Space remaining (MW):       12.69            12686796
          Stack Space remaining (MW):       13.11            13106756

   convergence    iter        energy       DeltaE   RMS-Dens  Diis-err    time
 ---------------- ----- ----------------- --------- --------- ---------  ------
 d= 0,ls=0.5,diis     1    -55.1521528768 -5.87D+01  1.68D-04  2.31D-04     1.5
 d= 0,ls=0.5,diis     2    -55.1517193319  4.34D-04  5.45D-05  2.43D-05     1.5
 d= 0,ls=0.5,diis     3    -55.1517804445 -6.11D-05  1.65D-05  2.69D-06     1.5
 d= 0,ls=0.5,diis     4    -55.1517560652  2.44D-05  9.18D-06  4.59D-07     1.6
 d= 0,ls=0.5,diis     5    -55.1517573181 -1.25D-06  4.22D-06  9.23D-08     1.6
 d= 0,ls=0.5,diis     6    -55.1517573580 -3.98D-08  2.27D-06  2.51D-08     1.6


         Total DFT energy =      -55.151757159915
      One electron energy =      -81.166520992097
           Coulomb energy =       29.545695904631
          Exchange energy =       -6.839814454674
       Correlation energy =       -0.231786404859
 Nuclear repulsion energy =        3.540668787085

 Numeric. integr. density =        8.000000045302

     Total iterative time =      0.5s



                       DFT Final Molecular Orbital Analysis
                       ------------------------------------

 Vector    1  Occ=2.000000D+00  E=-1.427854D+01
              MO Center=  2.0D-17, -4.0D-16, -1.3D-01, r^2= 2.0D-02
   Bfn.  Coefficient  Atom+Function         Bfn.  Coefficient  Atom+Function  
  ----- ------------  ---------------      ----- ------------  ---------------
     1      0.556717  1 N  s                  2      0.467181  1 N  s          

 Vector    2  Occ=2.000000D+00  E=-8.167140D-01
              MO Center=  6.7D-15,  3.6D-15,  1.5D-01, r^2= 6.1D-01
   Bfn.  Coefficient  Atom+Function         Bfn.  Coefficient  Atom+Function  
  ----- ------------  ---------------      ----- ------------  ---------------
    10      0.611996  1 N  s                  6      0.483398  1 N  s          
     2     -0.193323  1 N  s          

 Vector    3  Occ=2.000000D+00  E=-4.165291D-01
              MO Center=  1.8D-16,  1.1D-15, -1.1D-01, r^2= 9.6D-01
   Bfn.  Coefficient  Atom+Function         Bfn.  Coefficient  Atom+Function  
  ----- ------------  ---------------      ----- ------------  ---------------
    10      0.359651  1 N  s                 13     -0.351561  1 N  pz         
     9     -0.297315  1 N  pz                 5     -0.245484  1 N  pz         
     6      0.178383  1 N  s          

 Vector    4  Occ=2.000000D+00  E=-2.939893D-01
              MO Center=  9.0D-16,  2.1D-15, -8.4D-02, r^2= 9.0D-01
   Bfn.  Coefficient  Atom+Function         Bfn.  Coefficient  Atom+Function  
  ----- ------------  ---------------      ----- ------------  ---------------
    12      0.430899  1 N  py                 8      0.339495  1 N  py         
     4      0.277804  1 N  py                11     -0.184596  1 N  px         

 Vector    5  Occ=0.000000D+00  E=-3.461825D-01
              MO Center= -1.1D-15,  1.3D-15, -9.1D-02, r^2= 7.9D-01
   Bfn.  Coefficient  Atom+Function         Bfn.  Coefficient  Atom+Function  
  ----- ------------  ---------------      ----- ------------  ---------------
    11      0.385644  1 N  px                 7      0.345913  1 N  px         
     3      0.285239  1 N  px                12      0.165202  1 N  py         

 Vector    6  Occ=0.000000D+00  E=-2.923855D-02
              MO Center=  3.0D-14,  1.1D-14,  1.2D+00, r^2= 5.2D+00
   Bfn.  Coefficient  Atom+Function         Bfn.  Coefficient  Atom+Function  
  ----- ------------  ---------------      ----- ------------  ---------------
    49      1.163247  2 H  s                 14     -0.750600  1 N  s          
    48      0.633497  2 H  s                 10     -0.359768  1 N  s          
    17     -0.271252  1 N  pz                13     -0.211759  1 N  pz         
     6     -0.194425  1 N  s                 47      0.163959  2 H  s          
     9     -0.158111  1 N  pz         

 Vector    7  Occ=0.000000D+00  E= 8.756736D-02
              MO Center= -1.5D-13,  2.3D-13, -7.8D-02, r^2= 6.0D+00
   Bfn.  Coefficient  Atom+Function         Bfn.  Coefficient  Atom+Function  
  ----- ------------  ---------------      ----- ------------  ---------------
    48      2.216496  2 H  s                 14     -1.233435  1 N  s          
    13     -0.909038  1 N  pz                49     -0.824436  2 H  s          
    10     -0.638858  1 N  s                 47      0.505249  2 H  s          
     9     -0.219190  1 N  pz                58     -0.215065  2 H  pz         
     5     -0.171687  1 N  pz         

 Vector    8  Occ=0.000000D+00  E= 9.638157D-02
              MO Center= -2.6D-14, -1.1D-14, -8.3D-02, r^2= 6.3D+00
   Bfn.  Coefficient  Atom+Function         Bfn.  Coefficient  Atom+Function  
  ----- ------------  ---------------      ----- ------------  ---------------
    15      1.084893  1 N  px                16      0.464995  1 N  py         
    11     -0.374223  1 N  px                12     -0.160395  1 N  py         
     7     -0.153497  1 N  px         

 Vector    9  Occ=0.000000D+00  E= 9.726131D-02
              MO Center=  7.5D-14,  2.6D-14,  3.6D-01, r^2= 9.2D+00
   Bfn.  Coefficient  Atom+Function         Bfn.  Coefficient  Atom+Function  
  ----- ------------  ---------------      ----- ------------  ---------------
    48      1.990220  2 H  s                 49     -1.666305  2 H  s          
    14      1.394770  1 N  s                 17     -0.884611  1 N  pz         
    10     -0.746680  1 N  s                 35     -0.413840  1 N  dzz        
    47      0.385913  2 H  s                 30     -0.373859  1 N  dxx        
    13     -0.355458  1 N  pz                33     -0.357004  1 N  dyy        

 Vector   10  Occ=0.000000D+00  E= 9.915964D-02
              MO Center=  9.5D-14, -2.2D-13, -8.7D-02, r^2= 6.3D+00
   Bfn.  Coefficient  Atom+Function         Bfn.  Coefficient  Atom+Function  
  ----- ------------  ---------------      ----- ------------  ---------------
    16      1.085427  1 N  py                15     -0.465228  1 N  px         
    12     -0.393452  1 N  py                 8     -0.168428  1 N  py         
    11      0.168639  1 N  px         

 Vector   11  Occ=0.000000D+00  E= 1.409369D-01
              MO Center= -2.5D-15, -3.5D-14,  1.6D-01, r^2= 9.1D+00
   Bfn.  Coefficient  Atom+Function         Bfn.  Coefficient  Atom+Function  
  ----- ------------  ---------------      ----- ------------  ---------------
    14      6.127963  1 N  s                 48     -4.495196  2 H  s          
    17      2.816318  1 N  pz                49     -2.477583  2 H  s          
    10      0.942405  1 N  s                 13      0.832125  1 N  pz         
    58      0.701260  2 H  pz                47     -0.592259  2 H  s          
    30     -0.197991  1 N  dxx                6     -0.193767  1 N  s          

 Vector   12  Occ=0.000000D+00  E= 2.789662D-01
              MO Center= -1.0D-14,  2.4D-14,  6.2D-01, r^2= 2.9D+00
   Bfn.  Coefficient  Atom+Function         Bfn.  Coefficient  Atom+Function  
  ----- ------------  ---------------      ----- ------------  ---------------
    57      1.149405  2 H  py                56     -0.492450  2 H  px         
    12     -0.438333  1 N  py                16     -0.411973  1 N  py         
    11      0.187803  1 N  px                34      0.187647  1 N  dyz        
    15      0.176503  1 N  px         

 Vector   13  Occ=0.000000D+00  E= 2.829477D-01
              MO Center= -2.9D-14, -1.2D-14,  6.3D-01, r^2= 2.8D+00
   Bfn.  Coefficient  Atom+Function         Bfn.  Coefficient  Atom+Function  
  ----- ------------  ---------------      ----- ------------  ---------------
    56      1.145808  2 H  px                57      0.490911  2 H  py         
    11     -0.437138  1 N  px                15     -0.408753  1 N  px         
    12     -0.187284  1 N  py                16     -0.175129  1 N  py         
    32      0.174360  1 N  dxz        

 Vector   14  Occ=0.000000D+00  E= 3.674862D-01
              MO Center=  2.6D-14, -3.0D-15,  5.5D-01, r^2= 5.9D+00
   Bfn.  Coefficient  Atom+Function         Bfn.  Coefficient  Atom+Function  
  ----- ------------  ---------------      ----- ------------  ---------------
    48     10.470512  2 H  s                 14     -4.758303  1 N  s          
    10     -4.274912  1 N  s                 58     -2.850624  2 H  pz         
    13     -2.721861  1 N  pz                17     -2.641674  1 N  pz         
    35     -1.667567  1 N  dzz               47      1.085075  2 H  s          
    30     -0.252483  1 N  dxx               46     -0.216523  2 H  s          

 Vector   15  Occ=0.000000D+00  E= 4.246738D-01
              MO Center=  1.1D-14,  3.4D-15, -1.3D-01, r^2= 2.1D+00
   Bfn.  Coefficient  Atom+Function         Bfn.  Coefficient  Atom+Function  
  ----- ------------  ---------------      ----- ------------  ---------------
    31      1.184184  1 N  dxy               30     -0.621387  1 N  dxx        
    33      0.621399  1 N  dyy        

 Vector   16  Occ=0.000000D+00  E= 4.330047D-01
              MO Center= -7.5D-15,  4.6D-15, -1.1D-01, r^2= 2.3D+00
   Bfn.  Coefficient  Atom+Function         Bfn.  Coefficient  Atom+Function  
  ----- ------------  ---------------      ----- ------------  ---------------
    31      1.226312  1 N  dxy               33     -0.880945  1 N  dyy        
    14      0.793260  1 N  s                 49     -0.346256  2 H  s          
    30      0.287542  1 N  dxx               35     -0.264315  1 N  dzz        
    10      0.211724  1 N  s          

 Vector   17  Occ=0.000000D+00  E= 5.423175D-01
              MO Center=  5.7D-14,  1.1D-14,  1.5D-01, r^2= 5.3D+00
   Bfn.  Coefficient  Atom+Function         Bfn.  Coefficient  Atom+Function  
  ----- ------------  ---------------      ----- ------------  ---------------
    14      4.926193  1 N  s                 10      3.549208  1 N  s          
    48     -2.390670  2 H  s                 30     -1.743761  1 N  dxx        
    33     -1.565129  1 N  dyy               49     -1.540911  2 H  s          
    58      1.464838  2 H  pz                35     -1.306110  1 N  dzz        
    13      1.242383  1 N  pz                47     -1.136248  2 H  s          


 center of mass
 --------------
 x =   0.00000000 y =   0.00000000 z =  -0.12110117

 moments of inertia (a.u.)
 ------------------
           3.674745570196           0.000000000000           0.000000000000
           0.000000000000           3.674745570196           0.000000000000
           0.000000000000           0.000000000000           0.000000000000

     Multipole analysis of the density
     ---------------------------------

     L   x y z        total         alpha         beta         nuclear
     -   - - -        -----         -----         ----         -------
     0   0 0 0     -0.000000     -4.000000     -4.000000      8.000000

     1   1 0 0     -0.000000     -0.000000     -0.000000      0.000000
     1   0 1 0     -0.000000     -0.000000     -0.000000      0.000000
     1   0 0 1      0.602682      0.328179      0.328179     -0.053676

     2   2 0 0     -4.311386     -2.155693     -2.155693      0.000000
     2   1 1 0      0.863785      0.431892      0.431892      0.000000
     2   1 0 1     -0.000000     -0.000000     -0.000000      0.000000
     2   0 2 0     -5.957656     -2.978828     -2.978828      0.000000
     2   0 1 1     -0.000000     -0.000000     -0.000000      0.000000
     2   0 0 2     -4.508872     -3.964645     -3.964645      3.420419


 Parallel integral file used      17 records with       0 large values


            General Information
            -------------------
          SCF calculation type: DFT
          Wavefunction type:  closed shell.
          No. of atoms     :     2
          No. of electrons :     8
           Alpha electrons :     4
            Beta electrons :     4
          Charge           :     0
          Spin multiplicity:     1
          Use of symmetry is: off; symmetry adaption is: off
          Maximum number of iterations: ***
          AO basis - number of functions:    64
                     number of shells:    21
          Convergence on energy requested: 1.00D-06
          Convergence on density requested: 1.00D-05
          Convergence on gradient requested: 5.00D-04

              XC Information
              --------------
                  TPSS metaGGA Exchange Functional  1.000          
             TPSS03 metaGGA Correlation Functional  1.000          

             Grid Information
             ----------------
          Grid used for XC integration:  medium    
          Radial quadrature: Mura-Knowles        
          Angular quadrature: Lebedev. 
          Tag              B.-S. Rad. Rad. Pts. Rad. Cut. Ang. Pts.
          ---              ---------- --------- --------- ---------
          N                   0.65       49           9.0       434
          H                   0.35       45           9.0       434
          Grid pruning is: on 
          Number of quadrature shells:    94
          Spatial weights used:  Erf1

          Convergence Information
          -----------------------
          Convergence aids based upon iterative change in 
          total energy or number of iterations. 
          Levelshifting, if invoked, occurs when the 
          HOMO/LUMO gap drops below (HL_TOL): 1.00D-02
          DIIS, if invoked, will attempt to extrapolate 
          using up to (NFOCK): 10 stored Fock matrices.

                    Damping( 0%)  Levelshifting(0.5)       DIIS
                  --------------- ------------------- ---------------
          dE  on:    start            ASAP                start   
          dE off:    2 iters        *** iters           *** iters 


      Screening Tolerance Information
      -------------------------------
          Density screening/tol_rho: 1.00D-10
          AO Gaussian exp screening on grid/accAOfunc:  14
          CD Gaussian exp screening on grid/accCDfunc:  20
          XC Gaussian exp screening on grid/accXCfunc:  20
          Schwarz screening/accCoul: 1.00D-08



                            NWChem DFT Gradient Module
                            --------------------------



  charge          =   0.00
  wavefunction    = closed shell



                         DFT ENERGY GRADIENTS

    atom               coordinates                        gradient
                 x          y          z           x          y          z
   1 N       0.000000   0.000000  -0.253838    0.000000   0.000000   0.002240
   2 H       0.000000   0.000000   1.723190   -0.000000  -0.000000  -0.002240

                 ----------------------------------------
                 |  Time  |  1-e(secs)   |  2-e(secs)   |
                 ----------------------------------------
                 |  CPU   |       0.00   |       0.08   |
                 ----------------------------------------
                 |  WALL  |       0.00   |       0.08   |
                 ----------------------------------------
                               NWChem STEPPER Module
                               ---------------------


   Step sought for minimum. 
   Actual energy difference is :   -5.7932794831572210E-005
   2nd order predicted energy difference  was :   -8.0031096377641402E-005
   One of these is below the energy  tolerance:    1.0000000000000000E-004
   Backstepping possibilities are NO 
   longer considered appropriate. 
   Update Hessian used. 
   Dependent rotation vector no.                    3
   found in ECKART; linear geometry  assumed. 
   Number of modes removed with force (in the spectral representation)
   less than:   0.000000 is:    0
   PARTIT has partitioned the input hessian 
   and gradient into two subspaces;  An 
   "external" hessian and gradient composed 
   of                     5  independent translations 
   and rotations, and an "internal" hessian 
   and gradient with a dimension of                     1
               e-diff         g-norm     g-max   
 value       -0.0000579328  0.003168  0.002240
 thres        0.0001000000  0.010000  0.000800
  trust radius =     0.10
   Calculating the Newton-Raphson step. 
  The length (norm) of the STEP is   0.004227

  The lowest few components in the bases 
  generated by the spectral decomposition 
  of the internal hessian (non-zero force). 

  Component  Hessian     Grad      Step   Scaled-Step
  ---------  --------  --------  -------- -----------
       1     0.75D+00  0.32D-02  -.42D-02  -.42D-02

  Clean-up the step; truncate at:   0.000001
  In cartesian coordinates; norm of this step is:   0.004227
         Walk statistics for step:   2
     Previous actual total energy:  -0.551516992271D+02
      Current actual total energy:  -0.551517571599D+02
         Actual energy difference:  -0.579327948316D-04 threshold:         0.100000D-03
    Second order energy predicted:  -0.800310963776D-04
             Ratio of differences:   0.723878560381D+00
               Fixed trust radius:   0.100000000000D+00
   Number of negative eigenvalues:   0
   Max absolute value of Gradient:   0.224038482149D-02 threshold:         0.800000D-03
                    Gradient norm:   0.316838259949D-02 threshold:         0.100000D-01
                RMS Gradient norm:   0.224038482149D-02
  Largest component of step v-tor:   0.422700000000D-02
  New 2nd order energy prediction:  -0.669629930837D-05



  ------------------- New geometry -------------------


                         Geometry "g-2-step" -> "g-2-step"
                         ---------------------------------

 Output coordinates in angstroms (scale by  1.889725989 to convert to a.u.)

  No.       Tag          Charge          X              Y              Z
 ---- ---------------- ---------- -------------- -------------- --------------
    1 N                    7.0000     0.00000000     0.00000000    -0.13590698
    2 H                    1.0000     0.00000000     0.00000000     0.91345448

      Atomic Mass 
      ----------- 

      N                 14.003070
      H                  1.007825


 Effective nuclear repulsion energy (a.u.)       3.5299950312

            Nuclear Dipole moment (a.u.) 
            ----------------------------
        X                 Y               Z
 ---------------- ---------------- ----------------
     0.0000000000     0.0000000000    -0.0716100000

 ==============================================================================
                                internuclear distances
 ------------------------------------------------------------------------------
       center one      |      center two      | atomic units |  angstroms
 ------------------------------------------------------------------------------
    2 H                |   1 N                |     1.98301  |     1.04936
 ------------------------------------------------------------------------------
                         number of included internuclear distances:          1
 ==============================================================================




                                 NWChem DFT Module
                                 -----------------




 Summary of "ao basis" -> "ao basis" (cartesian)
 ------------------------------------------------------------------------------
       Tag                 Description            Shells   Functions and Types
 ---------------- ------------------------------  ------  ---------------------
 N                     6-311++G(3df,3pd)            13       45   5s4p3d1f
 H                     6-311++G(3df,3pd)             8       19   4s3p1d


  Caching 1-el integrals 

            General Information
            -------------------
          SCF calculation type: DFT
          Wavefunction type:  closed shell.
          No. of atoms     :     2
          No. of electrons :     8
           Alpha electrons :     4
            Beta electrons :     4
          Charge           :     0
          Spin multiplicity:     1
          Use of symmetry is: off; symmetry adaption is: off
          Maximum number of iterations: ***
          AO basis - number of functions:    64
                     number of shells:    21
          Convergence on energy requested: 1.00D-06
          Convergence on density requested: 1.00D-05
          Convergence on gradient requested: 5.00D-04

              XC Information
              --------------
                  TPSS metaGGA Exchange Functional  1.000          
             TPSS03 metaGGA Correlation Functional  1.000          

             Grid Information
             ----------------
          Grid used for XC integration:  medium    
          Radial quadrature: Mura-Knowles        
          Angular quadrature: Lebedev. 
          Tag              B.-S. Rad. Rad. Pts. Rad. Cut. Ang. Pts.
          ---              ---------- --------- --------- ---------
          N                   0.65       49           9.0       434
          H                   0.35       45           9.0       434
          Grid pruning is: on 
          Number of quadrature shells:    94
          Spatial weights used:  Erf1

          Convergence Information
          -----------------------
          Convergence aids based upon iterative change in 
          total energy or number of iterations. 
          Levelshifting, if invoked, occurs when the 
          HOMO/LUMO gap drops below (HL_TOL): 1.00D-02
          DIIS, if invoked, will attempt to extrapolate 
          using up to (NFOCK): 10 stored Fock matrices.

                    Damping( 0%)  Levelshifting(0.5)       DIIS
                  --------------- ------------------- ---------------
          dE  on:    start            ASAP                start   
          dE off:    2 iters        *** iters           *** iters 


      Screening Tolerance Information
      -------------------------------
          Density screening/tol_rho: 1.00D-10
          AO Gaussian exp screening on grid/accAOfunc:  14
          CD Gaussian exp screening on grid/accCDfunc:  20
          XC Gaussian exp screening on grid/accXCfunc:  20
          Schwarz screening/accCoul: 1.00D-08


 Loading old vectors from job with title :



   Time after variat. SCF:      1.9
   Time prior to 1st pass:      1.9

 #quartets = 2.680D+04 #integrals = 5.635D+05 #direct =  0.0% #cached =100.0%


 Integral file          = ./NH.xyz.aoints.00
 Record size in doubles =    65536    No. of integs per rec  =    43688
 Max. records in memory =        6    Max. records in file   = 11665433
 No. of bits per label  =        8    No. of bits per value  =       64


File balance: exchanges=     0  moved=     0  time=   0.0


 Grid_pts file          = ./NH.xyz.gridpts.00
 Record size in doubles =  12289        No. of grid_pts per rec  =   3070
 Max. records in memory =      2        Max. recs in file   =  62210583


           Memory utilization after 1st SCF pass: 
           Heap Space remaining (MW):       12.69            12686796
          Stack Space remaining (MW):       13.11            13106756

   convergence    iter        energy       DeltaE   RMS-Dens  Diis-err    time
 ---------------- ----- ----------------- --------- --------- ---------  ------
 d= 0,ls=0.5,diis     1    -55.1518872007 -5.87D+01  5.29D-05  2.49D-05     2.3
 d= 0,ls=0.5,diis     2    -55.1517378902  1.49D-04  1.76D-05  2.83D-06     2.3
 d= 0,ls=0.5,diis     3    -55.1517580503 -2.02D-05  5.91D-06  3.35D-07     2.3
 d= 0,ls=0.5,diis     4    -55.1517499614  8.09D-06  3.42D-06  6.03D-08     2.4
 d= 0,ls=0.5,diis     5    -55.1517502809 -3.19D-07  1.59D-06  1.29D-08     2.4


         Total DFT energy =      -55.151750223748
      One electron energy =      -81.147416897612
           Coulomb energy =       29.535985829856
          Exchange energy =       -6.838572908185
       Correlation energy =       -0.231741278979
 Nuclear repulsion energy =        3.529995031171

 Numeric. integr. density =        8.000000021283

     Total iterative time =      0.5s



                       DFT Final Molecular Orbital Analysis
                       ------------------------------------

 Vector    1  Occ=2.000000D+00  E=-1.427882D+01
              MO Center= -1.4D-16, -3.6D-16, -1.4D-01, r^2= 2.0D-02
   Bfn.  Coefficient  Atom+Function         Bfn.  Coefficient  Atom+Function  
  ----- ------------  ---------------      ----- ------------  ---------------
     1      0.556719  1 N  s                  2      0.467181  1 N  s          

 Vector    2  Occ=2.000000D+00  E=-8.159559D-01
              MO Center= -1.3D-15,  3.1D-15,  1.5D-01, r^2= 6.1D-01
   Bfn.  Coefficient  Atom+Function         Bfn.  Coefficient  Atom+Function  
  ----- ------------  ---------------      ----- ------------  ---------------
    10      0.613104  1 N  s                  6      0.483650  1 N  s          
     2     -0.193393  1 N  s          

 Vector    3  Occ=2.000000D+00  E=-4.163339D-01
              MO Center=  1.6D-15,  2.8D-15, -1.1D-01, r^2= 9.6D-01
   Bfn.  Coefficient  Atom+Function         Bfn.  Coefficient  Atom+Function  
  ----- ------------  ---------------      ----- ------------  ---------------
    10      0.357930  1 N  s                 13     -0.352488  1 N  pz         
     9     -0.296993  1 N  pz                 5     -0.245364  1 N  pz         
     6      0.178032  1 N  s          

 Vector    4  Occ=2.000000D+00  E=-2.939251D-01
              MO Center=  4.3D-17,  3.3D-15, -8.5D-02, r^2= 9.0D-01
   Bfn.  Coefficient  Atom+Function         Bfn.  Coefficient  Atom+Function  
  ----- ------------  ---------------      ----- ------------  ---------------
    12      0.430876  1 N  py                 8      0.339540  1 N  py         
     4      0.277830  1 N  py                11     -0.184566  1 N  px         

 Vector    5  Occ=0.000000D+00  E=-3.460885D-01
              MO Center=  1.7D-15, -2.6D-15, -9.3D-02, r^2= 7.9D-01
   Bfn.  Coefficient  Atom+Function         Bfn.  Coefficient  Atom+Function  
  ----- ------------  ---------------      ----- ------------  ---------------
    11      0.385724  1 N  px                 7      0.345901  1 N  px         
     3      0.285256  1 N  px                12      0.165218  1 N  py         

 Vector    6  Occ=0.000000D+00  E=-2.971550D-02
              MO Center= -5.4D-15,  5.0D-15,  1.2D+00, r^2= 5.1D+00
   Bfn.  Coefficient  Atom+Function         Bfn.  Coefficient  Atom+Function  
  ----- ------------  ---------------      ----- ------------  ---------------
    49      1.154960  2 H  s                 14     -0.746678  1 N  s          
    48      0.637963  2 H  s                 10     -0.360948  1 N  s          
    17     -0.271642  1 N  pz                13     -0.214780  1 N  pz         
     6     -0.194821  1 N  s                 47      0.166891  2 H  s          
     9     -0.159491  1 N  pz         

 Vector    7  Occ=0.000000D+00  E= 8.701043D-02
              MO Center= -6.1D-14, -1.2D-13, -2.6D-03, r^2= 6.1D+00
   Bfn.  Coefficient  Atom+Function         Bfn.  Coefficient  Atom+Function  
  ----- ------------  ---------------      ----- ------------  ---------------
    48      2.265165  2 H  s                 14     -1.181733  1 N  s          
    13     -0.913028  1 N  pz                49     -0.882638  2 H  s          
    10     -0.650175  1 N  s                 47      0.510671  2 H  s          
     9     -0.219681  1 N  pz                58     -0.217942  2 H  pz         
     5     -0.172308  1 N  pz         

 Vector    8  Occ=0.000000D+00  E= 9.634675D-02
              MO Center=  8.4D-14,  3.8D-14, -8.3D-02, r^2= 6.3D+00
   Bfn.  Coefficient  Atom+Function         Bfn.  Coefficient  Atom+Function  
  ----- ------------  ---------------      ----- ------------  ---------------
    15      1.084546  1 N  px                16      0.464800  1 N  py         
    11     -0.374619  1 N  px                12     -0.160549  1 N  py         
     7     -0.153552  1 N  px         

 Vector    9  Occ=0.000000D+00  E= 9.692001D-02
              MO Center= -2.7D-15,  6.0D-15,  2.9D-01, r^2= 9.2D+00
   Bfn.  Coefficient  Atom+Function         Bfn.  Coefficient  Atom+Function  
  ----- ------------  ---------------      ----- ------------  ---------------
    48      1.890436  2 H  s                 49     -1.639640  2 H  s          
    14      1.449745  1 N  s                 17     -0.881822  1 N  pz         
    10     -0.715415  1 N  s                 35     -0.409656  1 N  dzz        
    30     -0.373142  1 N  dxx               47      0.364745  2 H  s          
    33     -0.355983  1 N  dyy                6     -0.317800  1 N  s          

 Vector   10  Occ=0.000000D+00  E= 9.912052D-02
              MO Center= -2.8D-14,  6.6D-14, -8.7D-02, r^2= 6.2D+00
   Bfn.  Coefficient  Atom+Function         Bfn.  Coefficient  Atom+Function  
  ----- ------------  ---------------      ----- ------------  ---------------
    16      1.085038  1 N  py                15     -0.465015  1 N  px         
    12     -0.393864  1 N  py                 8     -0.168514  1 N  py         
    11      0.168799  1 N  px         

 Vector   11  Occ=0.000000D+00  E= 1.409738D-01
              MO Center=  3.3D-15,  1.0D-14,  1.6D-01, r^2= 9.1D+00
   Bfn.  Coefficient  Atom+Function         Bfn.  Coefficient  Atom+Function  
  ----- ------------  ---------------      ----- ------------  ---------------
    14      6.095828  1 N  s                 48     -4.457907  2 H  s          
    17      2.810866  1 N  pz                49     -2.468909  2 H  s          
    10      0.922116  1 N  s                 13      0.820183  1 N  pz         
    58      0.694875  2 H  pz                47     -0.580343  2 H  s          
    30     -0.198533  1 N  dxx                6     -0.194150  1 N  s          

 Vector   12  Occ=0.000000D+00  E= 2.784991D-01
              MO Center=  8.6D-15, -1.4D-14,  6.2D-01, r^2= 2.9D+00
   Bfn.  Coefficient  Atom+Function         Bfn.  Coefficient  Atom+Function  
  ----- ------------  ---------------      ----- ------------  ---------------
    57      1.146611  2 H  py                56     -0.491207  2 H  px         
    12     -0.434031  1 N  py                16     -0.413148  1 N  py         
    34      0.188836  1 N  dyz               11      0.185942  1 N  px         
    15      0.176989  1 N  px         

 Vector   13  Occ=0.000000D+00  E= 2.824617D-01
              MO Center= -1.0D-14, -4.7D-15,  6.3D-01, r^2= 2.8D+00
   Bfn.  Coefficient  Atom+Function         Bfn.  Coefficient  Atom+Function  
  ----- ------------  ---------------      ----- ------------  ---------------
    56      1.142877  2 H  px                57      0.489608  2 H  py         
    11     -0.432698  1 N  px                15     -0.409914  1 N  px         
    12     -0.185364  1 N  py                16     -0.175610  1 N  py         
    32      0.175717  1 N  dxz        

 Vector   14  Occ=0.000000D+00  E= 3.672184D-01
              MO Center=  4.5D-15,  1.3D-14,  5.5D-01, r^2= 5.9D+00
   Bfn.  Coefficient  Atom+Function         Bfn.  Coefficient  Atom+Function  
  ----- ------------  ---------------      ----- ------------  ---------------
    48     10.410210  2 H  s                 14     -4.713189  1 N  s          
    10     -4.221521  1 N  s                 58     -2.832413  2 H  pz         
    13     -2.703894  1 N  pz                17     -2.628397  1 N  pz         
    35     -1.661884  1 N  dzz               47      1.048661  2 H  s          
    30     -0.252940  1 N  dxx               46     -0.214677  2 H  s          

 Vector   15  Occ=0.000000D+00  E= 4.246712D-01
              MO Center=  3.0D-16, -1.1D-15, -1.3D-01, r^2= 2.1D+00
   Bfn.  Coefficient  Atom+Function         Bfn.  Coefficient  Atom+Function  
  ----- ------------  ---------------      ----- ------------  ---------------
    31      1.184287  1 N  dxy               30     -0.621353  1 N  dxx        
    33      0.621364  1 N  dyy        

 Vector   16  Occ=0.000000D+00  E= 4.330048D-01
              MO Center= -1.0D-14,  2.3D-14, -1.1D-01, r^2= 2.3D+00
   Bfn.  Coefficient  Atom+Function         Bfn.  Coefficient  Atom+Function  
  ----- ------------  ---------------      ----- ------------  ---------------
    31      1.226188  1 N  dxy               33     -0.881446  1 N  dyy        
    14      0.796468  1 N  s                 49     -0.346157  2 H  s          
    30      0.287089  1 N  dxx               35     -0.263839  1 N  dzz        
    10      0.215278  1 N  s          

 Vector   17  Occ=0.000000D+00  E= 5.420244D-01
              MO Center= -1.3D-14,  3.0D-14,  1.5D-01, r^2= 5.3D+00
   Bfn.  Coefficient  Atom+Function         Bfn.  Coefficient  Atom+Function  
  ----- ------------  ---------------      ----- ------------  ---------------
    14      4.922844  1 N  s                 10      3.546628  1 N  s          
    48     -2.404540  2 H  s                 30     -1.739795  1 N  dxx        
    33     -1.560783  1 N  dyy               49     -1.536320  2 H  s          
    58      1.473847  2 H  pz                35     -1.301629  1 N  dzz        
    13      1.244866  1 N  pz                47     -1.130011  2 H  s          


 center of mass
 --------------
 x =   0.00000000 y =   0.00000000 z =  -0.12368881

 moments of inertia (a.u.)
 ------------------
           3.697002053466           0.000000000000           0.000000000000
           0.000000000000           3.697002053466           0.000000000000
           0.000000000000           0.000000000000           0.000000000000

     Multipole analysis of the density
     ---------------------------------

     L   x y z        total         alpha         beta         nuclear
     -   - - -        -----         -----         ----         -------
     0   0 0 0     -0.000000     -4.000000     -4.000000      8.000000

     1   1 0 0     -0.000000     -0.000000     -0.000000      0.000000
     1   0 1 0     -0.000000     -0.000000     -0.000000      0.000000
     1   0 0 1      0.602176      0.336893      0.336893     -0.071610

     2   2 0 0     -4.314037     -2.157018     -2.157018      0.000000
     2   1 1 0      0.863867      0.431933      0.431933      0.000000
     2   1 0 1      0.000000      0.000000      0.000000      0.000000
     2   0 2 0     -5.960727     -2.980364     -2.980364      0.000000
     2   0 1 1      0.000000      0.000000      0.000000      0.000000
     2   0 0 2     -4.509518     -3.975465     -3.975465      3.441413


 Parallel integral file used      17 records with       0 large values


            General Information
            -------------------
          SCF calculation type: DFT
          Wavefunction type:  closed shell.
          No. of atoms     :     2
          No. of electrons :     8
           Alpha electrons :     4
            Beta electrons :     4
          Charge           :     0
          Spin multiplicity:     1
          Use of symmetry is: off; symmetry adaption is: off
          Maximum number of iterations: ***
          AO basis - number of functions:    64
                     number of shells:    21
          Convergence on energy requested: 1.00D-06
          Convergence on density requested: 1.00D-05
          Convergence on gradient requested: 5.00D-04

              XC Information
              --------------
                  TPSS metaGGA Exchange Functional  1.000          
             TPSS03 metaGGA Correlation Functional  1.000          

             Grid Information
             ----------------
          Grid used for XC integration:  medium    
          Radial quadrature: Mura-Knowles        
          Angular quadrature: Lebedev. 
          Tag              B.-S. Rad. Rad. Pts. Rad. Cut. Ang. Pts.
          ---              ---------- --------- --------- ---------
          N                   0.65       49           9.0       434
          H                   0.35       45           9.0       434
          Grid pruning is: on 
          Number of quadrature shells:    94
          Spatial weights used:  Erf1

          Convergence Information
          -----------------------
          Convergence aids based upon iterative change in 
          total energy or number of iterations. 
          Levelshifting, if invoked, occurs when the 
          HOMO/LUMO gap drops below (HL_TOL): 1.00D-02
          DIIS, if invoked, will attempt to extrapolate 
          using up to (NFOCK): 10 stored Fock matrices.

                    Damping( 0%)  Levelshifting(0.5)       DIIS
                  --------------- ------------------- ---------------
          dE  on:    start            ASAP                start   
          dE off:    2 iters        *** iters           *** iters 


      Screening Tolerance Information
      -------------------------------
          Density screening/tol_rho: 1.00D-10
          AO Gaussian exp screening on grid/accAOfunc:  14
          CD Gaussian exp screening on grid/accCDfunc:  20
          XC Gaussian exp screening on grid/accXCfunc:  20
          Schwarz screening/accCoul: 1.00D-08



                            NWChem DFT Gradient Module
                            --------------------------



  charge          =   0.00
  wavefunction    = closed shell



                         DFT ENERGY GRADIENTS

    atom               coordinates                        gradient
                 x          y          z           x          y          z
   1 N       0.000000   0.000000  -0.256827   -0.000000  -0.000000   0.000111
   2 H       0.000000   0.000000   1.726179    0.000000   0.000000  -0.000111

                 ----------------------------------------
                 |  Time  |  1-e(secs)   |  2-e(secs)   |
                 ----------------------------------------
                 |  CPU   |       0.00   |       0.08   |
                 ----------------------------------------
                 |  WALL  |       0.00   |       0.08   |
                 ----------------------------------------
                               NWChem STEPPER Module
                               ---------------------


   Step sought for minimum. 
   Actual energy difference is :    6.9361665921974236E-006
   2nd order predicted energy difference  was :   -6.6962993083671907E-006
   One of these is below the energy  tolerance:    1.0000000000000000E-004
   Backstepping possibilities are NO 
   longer considered appropriate. 
   Update Hessian used. 
   Dependent rotation vector no.                    3
   found in ECKART; linear geometry  assumed. 
   Number of modes removed with force (in the spectral representation)
   less than:   0.000000 is:    0
   PARTIT has partitioned the input hessian 
   and gradient into two subspaces;  An 
   "external" hessian and gradient composed 
   of                     5  independent translations 
   and rotations, and an "internal" hessian 
   and gradient with a dimension of                     1
               e-diff         g-norm     g-max   
 value        0.0000069362  0.000157  0.000111
 thres        0.0001000000  0.010000  0.000800
   ENERGY =   -55.151750223748408     
   The hessian exhibits the "proper" 
   structure, and the gradient and energy 
   convergence criterion has been met.  
   This geometry walk is HISTORY.
   Calculating the Newton-Raphson step. 
  The length (norm) of the STEP is   0.000221

  The lowest few components in the bases 
  generated by the spectral decomposition 
  of the internal hessian (non-zero force). 

  Component  Hessian     Grad      Step   Scaled-Step
  ---------  --------  --------  -------- -----------
       1     0.71D+00  0.16D-03  -.22D-03  -.22D-03

  Clean-up the step; truncate at:   0.000001
  In cartesian coordinates; norm of this step is:   0.000221



  ---------------- Converged geometry ----------------


                         Geometry "g-3-step" -> "g-3-step"
                         ---------------------------------

 Output coordinates in angstroms (scale by  1.889725989 to convert to a.u.)

  No.       Tag          Charge          X              Y              Z
 ---- ---------------- ---------- -------------- -------------- --------------
    1 N                    7.0000     0.00000000     0.00000000    -0.13590698
    2 H                    1.0000     0.00000000     0.00000000     0.91345448

      Atomic Mass 
      ----------- 

      N                 14.003070
      H                  1.007825


 Effective nuclear repulsion energy (a.u.)       3.5299950312

            Nuclear Dipole moment (a.u.) 
            ----------------------------
        X                 Y               Z
 ---------------- ---------------- ----------------
     0.0000000000     0.0000000000    -0.0716100000

 ==============================================================================
                                internuclear distances
 ------------------------------------------------------------------------------
       center one      |      center two      | atomic units |  angstroms
 ------------------------------------------------------------------------------
    2 H                |   1 N                |     1.98301  |     1.04936
 ------------------------------------------------------------------------------
                         number of included internuclear distances:          1
 ==============================================================================




 Task  times  cpu:        2.5s     wall:        4.7s


                                NWChem Input Module
                                -------------------


 Summary of allocated global arrays
-----------------------------------
  No active global arrays



                         GA Statistics for process    0
                         ------------------------------

       create   destroy   get      put      acc     scatter   gather  read&inc
calls:  431      431     1.81e+04 2286      606        0        0      292     
number of processes/call 1.19e+00 1.49e+00 3.10e+00 0.00e+00 0.00e+00
bytes total:             2.64e+07 6.23e+06 1.08e+07 0.00e+00 0.00e+00 2.34e+03
bytes remote:            1.19e+07 1.48e+06 6.24e+06 0.00e+00 0.00e+00 0.00e+00
Max memory consumed for GA by this process: 583200 bytes

MA_summarize_allocated_blocks: starting scan ...
MA_summarize_allocated_blocks: scan completed: 0 heap blocks, 0 stack blocks
MA usage statistics:

	allocation statistics:
					      heap	     stack
					      ----	     -----
	current number of blocks	         0	         0
	maximum number of blocks	        23	        51
	current total bytes		         0	         0
	maximum total bytes		   3362616	  42161832
	maximum total K-bytes		      3363	     42162
	maximum total M-bytes		         4	        43


                                     CITATION
                                     --------
                Please cite the following reference when publishing
                           results obtained with NWChem:

                 M. Valiev, E.J. Bylaska, N. Govind, K. Kowalski,
              T.P. Straatsma, H.J.J. van Dam, D. Wang, J. Nieplocha,
                        E. Apra, T.L. Windus, W.A. de Jong
                 "NWChem: a comprehensive and scalable open-source
                  solution for large scale molecular simulations"
                      Comput. Phys. Commun. 181, 1477 (2010)
                           doi:10.1016/j.cpc.2010.04.018

                                      AUTHORS
                                      -------
          E. Apra, E. J. Bylaska, W. A. de Jong, N. Govind, K. Kowalski,
       T. P. Straatsma, M. Valiev, H. J. J. van Dam, D. Wang, T. L. Windus,
        J. Hammond, J. Autschbach, K. Bhaskaran-Nair, J. Brabec, K. Lopata,
       S. A. Fischer, S. Krishnamoorthy, W. Ma, M. Klemm, O. Villa, Y. Chen,
    V. Anisimov, F. Aquino, S. Hirata, M. T. Hackler, T. Risthaus, M. Malagoli,
       A. Marenich, A. Otero-de-la-Roza, J. Mullin, P. Nichols, R. Peverati,
     J. Pittner, Y. Zhao, P.-D. Fan, A. Fonari, M. Williamson, R. J. Harrison,
       J. R. Rehr, M. Dupuis, D. Silverstein, D. M. A. Smith, J. Nieplocha,
        V. Tipparaju, M. Krishnan, B. E. Van Kuiken, A. Vazquez-Mayagoitia,
        L. Jensen, M. Swart, Q. Wu, T. Van Voorhis, A. A. Auer, M. Nooijen,
      L. D. Crosby, E. Brown, G. Cisneros, G. I. Fann, H. Fruchtl, J. Garza,
        K. Hirao, R. A. Kendall, J. A. Nichols, K. Tsemekhman, K. Wolinski,
     J. Anchell, D. E. Bernholdt, P. Borowski, T. Clark, D. Clerc, H. Dachsel,
   M. J. O. Deegan, K. Dyall, D. Elwood, E. Glendening, M. Gutowski, A. C. Hess,
         J. Jaffe, B. G. Johnson, J. Ju, R. Kobayashi, R. Kutteh, Z. Lin,
   R. Littlefield, X. Long, B. Meng, T. Nakajima, S. Niu, L. Pollack, M. Rosing,
   K. Glaesemann, G. Sandrone, M. Stave, H. Taylor, G. Thomas, J. H. van Lenthe,
                               A. T. Wong, Z. Zhang.

 Total times  cpu:        2.5s     wall:        4.9s
