 argument  1 = /home/kohn/work/DATASETS/NWCHEM/rabeet/tm10/nwtpss/CoH.nw
  NWChem w/ OpenMP: maximum threads =  1
                                         
                                         
 
 
              Northwest Computational Chemistry Package (NWChem) 6.8
              ------------------------------------------------------
 
 
                    Environmental Molecular Sciences Laboratory
                       Pacific Northwest National Laboratory
                                Richland, WA 99352
 
                              Copyright (c) 1994-2017
                       Pacific Northwest National Laboratory
                            Battelle Memorial Institute
 
             NWChem is an open-source computational chemistry package
                        distributed under the terms of the
                      Educational Community License (ECL) 2.0
             A copy of the license is included with this distribution
                              in the LICENSE.TXT file
 
                                  ACKNOWLEDGMENT
                                  --------------

            This software and its documentation were developed at the
            EMSL at Pacific Northwest National Laboratory, a multiprogram
            national laboratory, operated for the U.S. Department of Energy
            by Battelle under Contract Number DE-AC05-76RL01830. Support
            for this work was provided by the Department of Energy Office
            of Biological and Environmental Research, Office of Basic
            Energy Sciences, and the Office of Advanced Scientific Computing.


           Job information
           ---------------

    hostname        = kohn
    program         = nwchem
    date            = Thu Sep 27 15:18:18 2018

    compiled        = Wed_Sep_26_21:04:37_2018
    source          = /home/kohn/softwares/nwchem/nwchem-6.8
    nwchem branch   = 6.8
    nwchem revision = v6.8-47-gdf6c956
    ga revision     = ga-5.6.3
    use scalapack   = F
    input           = /home/kohn/work/DATASETS/NWCHEM/rabeet/tm10/nwtpss/CoH.nw
    prefix          = CoH.
    data base       = ./CoH.db
    status          = startup
    nproc           =        4
    time left       =     -1s



           Memory information
           ------------------

    heap     =   13107198 doubles =    100.0 Mbytes
    stack    =   13107195 doubles =    100.0 Mbytes
    global   =   26214400 doubles =    200.0 Mbytes (distinct from heap & stack)
    total    =   52428793 doubles =    400.0 Mbytes
    verify   = yes
    hardfail = no 


           Directory information
           ---------------------
 
  0 permanent = .
  0 scratch   = .
 
 
 
 
                                NWChem Input Module
                                -------------------
 
 

 Scaling coordinates for geometry "geometry" by  1.889725989
 (inverse scale =  0.529177249)


          ------
          auto-z
          ------
     1 autoz failed with cvr_scaling = 1.2 changing to 1.3
     2 autoz failed with cvr_scaling = 1.3 changing to 1.4
     3 autoz failed with cvr_scaling = 1.4 changing to 1.5
     4 autoz failed with cvr_scaling = 1.5 changing to 1.6
     5 autoz failed with cvr_scaling = 1.6 changing to 1.7

 AUTOZ failed to generate good internal coordinates.
 Cartesian coordinates will be used in optimizations.

 
 
                             Geometry "geometry" -> ""
                             -------------------------
 
 Output coordinates in angstroms (scale by  1.889725989 to convert to a.u.)
 
  No.       Tag          Charge          X              Y              Z
 ---- ---------------- ---------- -------------- -------------- --------------
    1 Co                  27.0000     0.00000000     0.00000000    -0.10288964
    2 H                    1.0000     0.00000000     0.00000000     2.77802036
 
      Atomic Mass 
      ----------- 
 
      Co                58.933200
      H                  1.007825
 

 Effective nuclear repulsion energy (a.u.)       4.9594696547

            Nuclear Dipole moment (a.u.) 
            ----------------------------
        X                 Y               Z
 ---------------- ---------------- ----------------
     0.0000000000     0.0000000000     0.0000000000
 
 
            XYZ format geometry
            -------------------
     2
 geometry
 Co                    0.00000000     0.00000000    -0.10288964
 H                     0.00000000     0.00000000     2.77802036
 


 Summary of "ao basis" -> "" (cartesian)
 ------------------------------------------------------------------------------
       Tag                 Description            Shells   Functions and Types
 ---------------- ------------------------------  ------  ---------------------
 *                         def2-TZVPP                 on all atoms 


 
                                 NWChem DFT Module
                                 -----------------
 
 
                      Basis "ao basis" -> "ao basis" (cartesian)
                      -----
  Co (Cobalt)
  -----------
            Exponent  Coefficients 
       -------------- ---------------------------------------------------------
  1 S  3.25817016E+05  0.000226
  1 S  4.88396365E+04  0.001750
  1 S  1.11149373E+04  0.009100
  1 S  3.14616036E+03  0.036996
  1 S  1.02443785E+03  0.120443
  1 S  3.68025088E+02  0.285987
  1 S  1.42912292E+02  0.409083
  1 S  5.64826492E+01  0.215001
 
  2 S  3.56402983E+02 -0.024767
  2 S  1.10311652E+02 -0.117021
  2 S  1.76596348E+01  0.552155
  2 S  7.50590305E+00  0.532469
 
  3 S  1.15018072E+01 -0.229425
  3 S  1.90819946E+00  0.711809
 
  4 S  7.93966969E-01  1.000000
 
  5 S  1.24444488E-01  1.000000
 
  6 S  4.44446454E-02  1.000000
 
  7 P  1.73113691E+03  0.002391
  7 P  4.09917504E+02  0.019383
  7 P  1.31456486E+02  0.090905
  7 P  4.89874397E+01  0.261467
  7 P  1.95370790E+01  0.421573
  7 P  7.92872816E+00  0.245718
 
  8 P  3.10760176E+01 -0.029438
  8 P  4.28351807E+00  0.556156
  8 P  1.70229216E+00  0.967722
 
  9 P  6.42029086E-01  1.000000
 
 10 P  2.42100000E-01  1.000000
 
 11 P  9.13200000E-02  1.000000
 
 12 D  6.81407452E+01  0.011984
 12 D  1.96852410E+01  0.073689
 12 D  6.93221288E+00  0.230855
 12 D  2.60251257E+00  0.392811
 
 13 D  9.40168373E-01  1.000000
 
 14 D  3.03814578E-01  1.000000
 
 15 D  9.80000000E-02  1.000000
 
 16 F  3.95500000E+00  1.000000
 
 17 F  9.65000000E-01  1.000000
 
 18 G  2.50000000E+00  1.000000
 
  H (Hydrogen)
  ------------
            Exponent  Coefficients 
       -------------- ---------------------------------------------------------
  1 S  3.40613410E+01  0.006025
  1 S  5.12357460E+00  0.045021
  1 S  1.16466260E+00  0.201897
 
  2 S  3.27230410E-01  1.000000
 
  3 S  1.03072410E-01  1.000000
 
  4 P  1.40700000E+00  1.000000
 
  5 P  3.88000000E-01  1.000000
 
  6 D  1.05700000E+00  1.000000
 


 Summary of "ao basis" -> "ao basis" (cartesian)
 ------------------------------------------------------------------------------
       Tag                 Description            Shells   Functions and Types
 ---------------- ------------------------------  ------  ---------------------
 Co                        def2-TZVPP               18       80   6s5p4d2f1g
 H                         def2-TZVPP                6       15   3s2p1d




 Summary of "ao basis" -> "ao basis" (cartesian)
 ------------------------------------------------------------------------------
       Tag                 Description            Shells   Functions and Types
 ---------------- ------------------------------  ------  ---------------------
 Co                        def2-TZVPP               18       80   6s5p4d2f1g
 H                         def2-TZVPP                6       15   3s2p1d


  Caching 1-el integrals 
 
            General Information
            -------------------
          SCF calculation type: DFT
          Wavefunction type:  spin polarized.
          No. of atoms     :     2
          No. of electrons :    28
           Alpha electrons :    15
            Beta electrons :    13
          Charge           :     0
          Spin multiplicity:     3
          Use of symmetry is: off; symmetry adaption is: off
          Maximum number of iterations: ***
          AO basis - number of functions:    95
                     number of shells:    24
          Convergence on energy requested:  1.00D-06
          Convergence on density requested:  1.00D-05
          Convergence on gradient requested:  5.00D-04
 
              XC Information
              --------------
                  TPSS metaGGA Exchange Functional  1.000          
             TPSS03 metaGGA Correlation Functional  1.000          
 
             Grid Information
             ----------------
          Grid used for XC integration:  medium    
          Radial quadrature: Mura-Knowles        
          Angular quadrature: Lebedev. 
          Tag              B.-S. Rad. Rad. Pts. Rad. Cut. Ang. Pts.
          ---              ---------- --------- --------- ---------
          Co                  1.35      112          10.0       590
          H                   0.35       45          11.0       434
          Grid pruning is: on 
          Number of quadrature shells:   157
          Spatial weights used:  Erf1
 
          Convergence Information
          -----------------------
          Convergence aids based upon iterative change in 
          total energy or number of iterations. 
          Levelshifting, if invoked, occurs when the 
          HOMO/LUMO gap drops below (HL_TOL):  1.00D-02
          DIIS, if invoked, will attempt to extrapolate 
          using up to (NFOCK): 10 stored Fock matrices.

                    Damping( 0%)  Levelshifting(0.5)       DIIS
                  --------------- ------------------- ---------------
          dE  on:    start            ASAP                start   
          dE off:    2 iters        *** iters           *** iters 

 
      Screening Tolerance Information
      -------------------------------
          Density screening/tol_rho:  1.00D-10
          AO Gaussian exp screening on grid/accAOfunc:  14
          CD Gaussian exp screening on grid/accCDfunc:  20
          XC Gaussian exp screening on grid/accXCfunc:  20
          Schwarz screening/accCoul:  1.00D-08

 
      Superposition of Atomic Density Guess
      -------------------------------------
 
 Sum of atomic energies:       -1381.80191887
 
      Non-variational initial energy
      ------------------------------

 Total energy =   -1380.703220
 1-e energy   =   -1923.953272
 2-e energy   =     538.290582
 HOMO         =      -0.386987
 LUMO         =      -0.301562
 
   Time after variat. SCF:      8.3
   Time prior to 1st pass:      8.5

 Integral file          = ./CoH.aoints.0
 Record size in doubles =    65536    No. of integs per rec  =    43688
 Max. records in memory =       82    Max. records in file   =  1479060
 No. of bits per label  =        8    No. of bits per value  =       64


 #quartets = 3.946D+04 #integrals = 1.649D+06 #direct =  0.0% #cached =100.0%


File balance: exchanges=     0  moved=     0  time=   0.0


 Grid_pts file          = ./CoH.gridpts.0
 Record size in doubles =  12289        No. of grid_pts per rec  =   3070
 Max. records in memory =     10        Max. recs in file   =   7887682


           Memory utilization after 1st SCF pass: 
           Heap Space remaining (MW):        7.60             7601790
          Stack Space remaining (MW):       13.11            13106316

   convergence    iter        energy       DeltaE   RMS-Dens  Diis-err    time
 ---------------- ----- ----------------- --------- --------- ---------  ------
 d= 0,ls=0.0,diis     1  -1382.5253402215 -1.39D+03  3.23D-01  1.98D+00    13.6
                                                     3.36D-01  1.64D+00
 d= 0,ls=0.5,diis     2  -1362.1064922079  2.04D+01  2.93D-02  2.95D+01    19.2
                                                     3.13D-02  2.78D+01
 d= 0,ls=0.5,diis     3  -1365.4488340256 -3.34D+00  3.54D-02  2.10D+01    25.1
                                                     5.09D-02  1.85D+01
 d= 0,ls=0.5,diis     4  -1368.0345114485 -2.59D+00  4.93D-02  2.40D+01    30.8
                                                     4.54D-02  1.87D+01
 d= 0,ls=0.5,diis     5  -1369.9863318211 -1.95D+00  8.66D-02  2.79D+01    35.2
                                                     5.66D-02  2.03D+01
 d= 0,ls=0.5,diis     6  -1373.2132908864 -3.23D+00  7.39D-02  2.72D+01    40.5
                                                     5.78D-02  1.95D+01
 d= 0,ls=0.5,diis     7  -1376.1711915840 -2.96D+00  2.60D-02  2.07D+01    45.3
                                                     2.73D-02  1.58D+01
 d= 0,ls=0.5,diis     8  -1377.1464866112 -9.75D-01  1.35D-02  1.81D+01    50.2
                                                     1.69D-02  1.40D+01
 d= 0,ls=0.5,diis     9  -1377.6734092608 -5.27D-01  9.75D-03  1.67D+01    54.2
                                                     1.42D-02  1.30D+01
 d= 0,ls=0.5,diis    10  -1378.1984318794 -5.25D-01  1.69D-02  1.50D+01    61.1
                                                     2.15D-02  1.17D+01
 d= 0,ls=0.5,diis    11  -1379.6183137328 -1.42D+00  4.84D-02  9.87D+00    65.8
                                                     4.23D-02  7.33D+00
 d= 0,ls=0.5,diis    12  -1379.7704134175 -1.52D-01  6.99D-03  1.88D+01    69.7
                                                     6.32D-03  1.59D+01
 d= 0,ls=0.5,diis    13  -1380.6446109745 -8.74D-01  5.25D-03  1.14D+01    74.2
                                                     4.10D-03  9.48D+00
 d= 0,ls=0.5,diis    14  -1381.5850280397 -9.40D-01  4.52D-03  5.88D+00    78.7
                                                     3.32D-03  4.84D+00
 d= 0,ls=0.5,diis    15  -1382.1791970773 -5.94D-01  3.08D-03  3.17D+00    82.1
                                                     2.01D-03  2.60D+00
 d= 0,ls=0.5,diis    16  -1382.4938216974 -3.15D-01  3.17D-03  2.08D+00    88.8
                                                     1.88D-03  1.69D+00
 d= 0,ls=0.5,diis    17  -1382.7847480990 -2.91D-01  2.22D-03  1.36D+00    93.1
                                                     1.12D-03  1.12D+00
 d= 0,ls=0.5,diis    18  -1382.9171821098 -1.32D-01  1.79D-03  8.80D-01    98.2
                                                     1.69D-03  7.33D-01
 d= 0,ls=0.5,diis    19  -1383.0438257729 -1.27D-01  2.17D-03  3.24D-01   105.5
                                                     2.39D-03  2.56D-01
 d= 0,ls=0.5,diis    20  -1383.1758551087 -1.32D-01  1.21D-03  3.12D-02   114.1
                                                     1.99D-03  2.94D-02
  Resetting Diis
 d= 0,ls=0.5,diis    21  -1383.2129135576 -3.71D-02  6.42D-04  1.29D-02   119.9
                                                     1.43D-03  1.08D-02
 d= 0,ls=0.5,diis    22  -1383.2205467963 -7.63D-03  2.18D-03  2.43D-02   124.5
                                                     1.76D-03  1.76D-02
 d= 0,ls=0.5,diis    23  -1383.2136670145  6.88D-03  8.23D-04  1.09D-01   131.4
                                                     1.14D-03  1.04D-01
 d= 0,ls=0.5,diis    24  -1383.2287912700 -1.51D-02  3.98D-04  2.08D-02   138.9
                                                     1.08D-03  2.45D-02
 d= 0,ls=0.5,diis    25  -1383.2371053748 -8.31D-03  4.01D-04  1.32D-03   145.4
                                                     9.67D-04  3.96D-03
 d= 0,ls=0.5,diis    26  -1383.2416297285 -4.52D-03  3.87D-04  2.09D-04   149.0
                                                     9.61D-04  2.09D-03
 d= 0,ls=0.5,diis    27  -1383.2458271904 -4.20D-03  4.01D-04  3.35D-04   153.3
                                                     9.43D-04  1.82D-03
 d= 0,ls=0.5,diis    28  -1383.2499250149 -4.10D-03  5.13D-04  3.37D-04   158.4
                                                     9.70D-04  1.74D-03
 d= 0,ls=0.5,diis    29  -1383.2541237455 -4.20D-03  3.71D-04  5.99D-04   162.6
                                                     9.07D-04  2.12D-03
 d= 0,ls=0.5,diis    30  -1383.2579997974 -3.88D-03  5.73D-04  3.62D-04   167.6
                                                     1.02D-03  1.78D-03
 d= 0,ls=0.5,diis    31  -1383.2619762476 -3.98D-03  4.30D-04  2.67D-03   172.7
                                                     9.71D-04  2.94D-03
 d= 0,ls=0.5,diis    32  -1383.2658727719 -3.90D-03  3.27D-04  2.55D-03   178.1
                                                     8.46D-04  2.36D-03
 d= 0,ls=0.5,diis    33  -1383.2692349535 -3.36D-03  3.29D-04  1.42D-03   182.8
                                                     7.59D-04  1.39D-03
 d= 0,ls=0.5,diis    34  -1383.2722015157 -2.97D-03  3.21D-04  1.14D-03   187.5
                                                     7.01D-04  9.90D-04
 d= 0,ls=0.5,diis    35  -1383.2747637842 -2.56D-03  2.84D-04  1.29D-03   195.2
                                                     6.32D-04  8.87D-04
 d= 0,ls=0.5,diis    36  -1383.2769192373 -2.16D-03  2.46D-04  1.11D-03   200.9
                                                     5.47D-04  6.51D-04
 d= 0,ls=0.5,diis    37  -1383.2787429509 -1.82D-03  4.17D-04  9.45D-04   208.4
                                                     5.64D-04  4.73D-04
 d= 0,ls=0.5,diis    38  -1383.2802054778 -1.46D-03  2.47D-04  2.30D-03   216.2
                                                     4.54D-04  9.03D-04
 d= 0,ls=0.5,diis    39  -1383.2818105851 -1.61D-03  2.63D-04  1.69D-03   221.1
                                                     4.04D-04  6.13D-04
 d= 0,ls=0.5,diis    40  -1383.2833283638 -1.52D-03  3.46D-04  1.05D-03   224.9
                                                     4.14D-04  3.39D-04
 d= 0,ls=0.5,diis    41  -1383.2847231255 -1.39D-03  2.99D-04  1.03D-03   232.1
                                                     3.61D-04  3.31D-04
 d= 0,ls=0.5,diis    42  -1383.2859715369 -1.25D-03  5.49D-04  9.14D-04   237.6
                                                     4.52D-04  2.94D-04
 d= 0,ls=0.5,diis    43  -1383.2871088941 -1.14D-03  2.80D-04  1.52D-03   243.3
                                                     3.17D-04  5.69D-04
 d= 0,ls=0.5,diis    44  -1383.2882234643 -1.11D-03  3.90D-04  1.03D-03   250.0
                                                     3.17D-04  3.84D-04
 d= 0,ls=0.5,diis    45  -1383.2892283949 -1.00D-03  2.96D-04  8.34D-04   255.7
                                                     2.51D-04  3.16D-04
 d= 0,ls=0.5,diis    46  -1383.2900717581 -8.43D-04  2.86D-04  5.82D-04   264.1
                                                     2.40D-04  2.11D-04
 d= 0,ls=0.5,diis    47  -1383.2906862707 -6.15D-04  1.62D-04  4.17D-04   269.0
                                                     1.73D-04  1.77D-04
 d= 0,ls=0.5,diis    48  -1383.2910642981 -3.78D-04  1.82D-04  2.80D-04   276.3
                                                     1.70D-04  1.07D-04
 d= 0,ls=0.5,diis    49  -1383.2913268875 -2.63D-04  1.44D-04  2.98D-04   291.2
                                                     1.47D-04  1.23D-04
 d= 0,ls=0.5,diis    50  -1383.2915298732 -2.03D-04  1.08D-04  2.48D-04   297.4
                                                     1.29D-04  1.01D-04
 d= 0,ls=0.5,diis    51  -1383.2916875718 -1.58D-04  8.57D-05  2.08D-04   302.5
                                                     1.10D-04  8.75D-05
 d= 0,ls=0.5,diis    52  -1383.2918103255 -1.23D-04  6.86D-05  1.50D-04   310.9
                                                     9.95D-05  6.40D-05
 d= 0,ls=0.5,diis    53  -1383.2918969147 -8.66D-05  5.49D-05  1.27D-04   320.5
                                                     8.81D-05  5.22D-05
 d= 0,ls=0.5,diis    54  -1383.2919625222 -6.56D-05  4.46D-05  9.21D-05   328.7
                                                     7.96D-05  3.89D-05
 d= 0,ls=0.5,diis    55  -1383.2920092415 -4.67D-05  3.87D-05  7.98D-05   335.2
                                                     7.07D-05  3.46D-05
 d= 0,ls=0.5,diis    56  -1383.2920469089 -3.77D-05  3.27D-05  5.65D-05   340.2
                                                     6.33D-05  2.42D-05
 d= 0,ls=0.5,diis    57  -1383.2920754660 -2.86D-05  2.76D-05  4.06D-05   348.1
                                                     5.67D-05  1.78D-05
 d= 0,ls=0.5,diis    58  -1383.2920966954 -2.12D-05  2.29D-05  2.91D-05   354.3
                                                     5.22D-05  1.33D-05
 d= 0,ls=0.5,diis    59  -1383.2921117704 -1.51D-05  1.96D-05  2.66D-05   358.1
                                                     4.80D-05  1.19D-05
 d= 0,ls=0.5,diis    60  -1383.2921242437 -1.25D-05  1.96D-05  2.15D-05   362.3
                                                     4.57D-05  9.92D-06
 d= 0,ls=0.5,diis    61  -1383.2921333177 -9.07D-06  1.42D-05  2.67D-05   367.5
                                                     4.21D-05  1.10D-05
 d= 0,ls=0.5,diis    62  -1383.2921415131 -8.20D-06  1.17D-05  2.17D-05   373.8
                                                     3.84D-05  9.35D-06
 d= 0,ls=0.5,diis    63  -1383.2921484450 -6.93D-06  1.19D-05  1.66D-05   378.0
                                                     3.56D-05  7.51D-06
 d= 0,ls=0.5,diis    64  -1383.2921541072 -5.66D-06  1.02D-05  1.73D-05   383.8
                                                     3.34D-05  7.75D-06
 d= 0,ls=0.5,diis    65  -1383.2921590487 -4.94D-06  8.58D-06  1.61D-05   388.3
                                                     3.10D-05  7.24D-06
 d= 0,ls=0.5,diis    66  -1383.2921634408 -4.39D-06  8.43D-06  1.33D-05   392.4
                                                     2.88D-05  6.28D-06
 d= 0,ls=0.5,diis    67  -1383.2921670575 -3.62D-06  6.69D-06  1.26D-05   397.4
                                                     2.72D-05  5.93D-06
 d= 0,ls=0.5,diis    68  -1383.2921706820 -3.62D-06  6.11D-06  6.97D-06   402.6
                                                     2.47D-05  3.80D-06
 d= 0,ls=0.5,diis    69  -1383.2921734510 -2.77D-06  5.16D-06  6.21D-06   407.2
                                                     2.40D-05  3.40D-06
 d= 0,ls=0.5,diis    70  -1383.2921758744 -2.42D-06  4.64D-06  5.77D-06   413.2
                                                     2.28D-05  3.23D-06
 d= 0,ls=0.5,diis    71  -1383.2921781335 -2.26D-06  7.36D-06  5.15D-06   421.3
                                                     2.19D-05  2.94D-06
 d= 0,ls=0.5,diis    72  -1383.2921799173 -1.78D-06  4.71D-06  6.78D-06   425.3
                                                     2.20D-05  3.68D-06
 d= 0,ls=0.5,diis    73  -1383.2921817975 -1.88D-06  3.95D-06  6.44D-06   431.0
                                                     2.09D-05  3.58D-06
 d= 0,ls=0.5,diis    74  -1383.2921835943 -1.80D-06  1.49D-05  5.73D-06   437.7
                                                     2.22D-05  3.26D-06
 d= 0,ls=0.5,diis    75  -1383.2921840998 -5.05D-07  7.95D-06  1.42D-05   442.6
                                                     2.31D-05  7.05D-06
 d= 0,ls=0.5,diis    76  -1383.2921854508 -1.35D-06  5.90D-06  1.54D-05   447.6
                                                     2.27D-05  7.85D-06
 d= 0,ls=0.5,diis    77  -1383.2921877315 -2.28D-06  4.64D-06  1.01D-05   452.0
                                                     1.98D-05  5.48D-06
 d= 0,ls=0.5,diis    78  -1383.2921897003 -1.97D-06  4.64D-06  6.26D-06   455.9
                                                     1.81D-05  3.62D-06
 d= 0,ls=0.5,diis    79  -1383.2921908628 -1.16D-06  7.04D-06  7.44D-06   460.9
                                                     1.90D-05  4.01D-06
 d= 0,ls=0.5,diis    80  -1383.2921917560 -8.93D-07  5.14D-06  9.89D-06   467.4
                                                     1.95D-05  5.09D-06
 d= 0,ls=0.5,diis    81  -1383.2921928566 -1.10D-06  3.99D-06  1.04D-05   474.5
                                                     1.90D-05  5.36D-06
 d= 0,ls=0.5,diis    82  -1383.2921940315 -1.17D-06  1.12D-05  9.89D-06   480.0
                                                     1.92D-05  5.26D-06
 d= 0,ls=0.5,diis    83  -1383.2921939892  4.23D-08  5.34D-06  1.72D-05   485.8
                                                     1.97D-05  8.90D-06
 d= 0,ls=0.5,diis    84  -1383.2921950979 -1.11D-06  4.74D-06  1.64D-05   494.5
                                                     1.85D-05  8.72D-06
 d= 0,ls=0.5,diis    85  -1383.2921961043 -1.01D-06  4.08D-06  1.62D-05   498.6
                                                     1.81D-05  8.69D-06
 d= 0,ls=0.5,diis    86  -1383.2921972851 -1.18D-06  4.71D-06  1.49D-05   503.6
                                                     1.78D-05  7.80D-06
 d= 0,ls=0.5,diis    87  -1383.2921990369 -1.75D-06  6.10D-06  9.57D-06   508.0
                                                     1.64D-05  5.13D-06
 d= 0,ls=0.5,diis    88  -1383.2921994947 -4.58D-07  1.24D-05  1.22D-05   513.3
                                                     1.83D-05  6.27D-06
 d= 0,ls=0.5,diis    89  -1383.2921988493  6.45D-07  7.54D-06  2.10D-05   517.4
                                                     1.90D-05  1.07D-05
 d= 0,ls=0.5,diis    90  -1383.2921991898 -3.41D-07  5.30D-06  2.30D-05   523.7
                                                     1.84D-05  1.19D-05
 d= 0,ls=0.5,diis    91  -1383.2922000001 -8.10D-07  4.12D-06  2.24D-05   527.9
                                                     1.73D-05  1.17D-05
 d= 0,ls=0.5,diis    92  -1383.2922010328 -1.03D-06  3.34D-06  2.04D-05   535.1
                                                     1.63D-05  1.07D-05
 d= 0,ls=0.5,diis    93  -1383.2922020658 -1.03D-06  5.52D-06  1.82D-05   538.5
                                                     1.58D-05  9.60D-06
 d= 0,ls=0.5,diis    94  -1383.2922037787 -1.71D-06  2.62D-06  1.16D-05   542.8
                                                     1.35D-05  6.44D-06
 d= 0,ls=0.5,diis    95  -1383.2922048251 -1.05D-06  1.79D-06  8.97D-06   546.5
                                                     1.28D-05  5.01D-06
 d= 0,ls=0.5,diis    96  -1383.2922056128 -7.88D-07  2.25D-06  7.41D-06   552.2
                                                     1.23D-05  4.13D-06
 d= 0,ls=0.5,diis    97  -1383.2922063964 -7.84D-07  2.26D-06  5.43D-06   558.4
                                                     1.15D-05  3.13D-06
 d= 0,ls=0.5,diis    98  -1383.2922070826 -6.86D-07  1.28D-06  3.78D-06   563.0
                                                     1.05D-05  2.27D-06
 d= 0,ls=0.5,diis    99  -1383.2922075788 -4.96D-07  2.46D-06  3.01D-06   567.9
                                                     1.01D-05  1.84D-06
 d= 0,ls=0.5,diis   100  -1383.2922078166 -2.38D-07  9.52D-07  3.60D-06   572.5
                                                     9.93D-06  2.16D-06


         Total DFT energy =    -1383.292208180256
      One electron energy =    -1927.506500853377
           Coulomb energy =      598.966399313794
          Exchange energy =      -58.496204953782
       Correlation energy =       -1.215371341616
 Nuclear repulsion energy =        4.959469654724

 Numeric. integr. density =       27.999998844039

     Total iterative time =    565.9s


 
                    DFT Final Alpha Molecular Orbital Analysis
                    ------------------------------------------
 
 Vector    1  Occ=1.000000D+00  E=-2.766027D+02
              MO Center= -1.0D-10,  6.0D-11, -1.0D-01, r^2= 1.2D-03
   Bfn.  Coefficient  Atom+Function         Bfn.  Coefficient  Atom+Function  
  ----- ------------  ---------------      ----- ------------  ---------------
     1      0.998073  1 Co s          
 
 Vector    2  Occ=1.000000D+00  E=-3.238689D+01
              MO Center= -1.2D-07,  7.1D-08, -1.0D-01, r^2= 2.2D-02
   Bfn.  Coefficient  Atom+Function         Bfn.  Coefficient  Atom+Function  
  ----- ------------  ---------------      ----- ------------  ---------------
     2      1.019497  1 Co s                  1     -0.316235  1 Co s          
     4      0.045976  1 Co s          
 
 Vector    3  Occ=1.000000D+00  E=-2.804377D+01
              MO Center=  1.7D-08,  2.9D-08, -1.0D-01, r^2= 1.8D-02
   Bfn.  Coefficient  Atom+Function         Bfn.  Coefficient  Atom+Function  
  ----- ------------  ---------------      ----- ------------  ---------------
     7      0.700191  1 Co px                 8      0.700001  1 Co py         
    13     -0.033298  1 Co px                14     -0.033289  1 Co py         
 
 Vector    4  Occ=1.000000D+00  E=-2.804244D+01
              MO Center= -8.7D-09,  5.4D-09, -1.0D-01, r^2= 1.8D-02
   Bfn.  Coefficient  Atom+Function         Bfn.  Coefficient  Atom+Function  
  ----- ------------  ---------------      ----- ------------  ---------------
     9      0.990139  1 Co pz                15     -0.046767  1 Co pz         
    12      0.031376  1 Co pz         
 
 Vector    5  Occ=1.000000D+00  E=-2.804226D+01
              MO Center=  8.5D-08, -8.9D-08, -1.0D-01, r^2= 1.8D-02
   Bfn.  Coefficient  Atom+Function         Bfn.  Coefficient  Atom+Function  
  ----- ------------  ---------------      ----- ------------  ---------------
     7      0.700031  1 Co px                 8     -0.700221  1 Co py         
    13     -0.033115  1 Co px                14      0.033124  1 Co py         
 
 Vector    6  Occ=1.000000D+00  E=-3.576896D+00
              MO Center= -2.1D-06,  9.6D-07, -1.0D-01, r^2= 2.0D-01
   Bfn.  Coefficient  Atom+Function         Bfn.  Coefficient  Atom+Function  
  ----- ------------  ---------------      ----- ------------  ---------------
     3      0.593027  1 Co s                  2     -0.468250  1 Co s          
     4      0.448286  1 Co s                  1      0.118963  1 Co s          
     5     -0.033272  1 Co s                 22      0.027688  1 Co dxx        
    25      0.027688  1 Co dyy               27      0.027414  1 Co dzz        
 
 Vector    7  Occ=1.000000D+00  E=-2.282274D+00
              MO Center= -2.3D-07,  7.8D-07, -1.0D-01, r^2= 2.3D-01
   Bfn.  Coefficient  Atom+Function         Bfn.  Coefficient  Atom+Function  
  ----- ------------  ---------------      ----- ------------  ---------------
    10      0.628118  1 Co px                11      0.627932  1 Co py         
     7     -0.269526  1 Co px                 8     -0.269446  1 Co py         
    13      0.147996  1 Co px                14      0.147953  1 Co py         
 
 Vector    8  Occ=1.000000D+00  E=-2.282009D+00
              MO Center= -6.9D-07,  3.5D-07, -1.0D-01, r^2= 2.3D-01
   Bfn.  Coefficient  Atom+Function         Bfn.  Coefficient  Atom+Function  
  ----- ------------  ---------------      ----- ------------  ---------------
    12      0.886753  1 Co pz                 9     -0.380748  1 Co pz         
    15      0.212962  1 Co pz                58      0.026363  1 Co fxxz       
    63      0.026362  1 Co fyyz              65      0.025781  1 Co fzzz       
 
 Vector    9  Occ=1.000000D+00  E=-2.280258D+00
              MO Center=  6.4D-07, -1.0D-06, -1.0D-01, r^2= 2.3D-01
   Bfn.  Coefficient  Atom+Function         Bfn.  Coefficient  Atom+Function  
  ----- ------------  ---------------      ----- ------------  ---------------
    10      0.627317  1 Co px                11     -0.627502  1 Co py         
     7     -0.269257  1 Co px                 8      0.269336  1 Co py         
    13      0.149107  1 Co px                14     -0.149151  1 Co py         
 
 Vector   10  Occ=1.000000D+00  E=-2.249466D-01
              MO Center= -2.1D-07,  2.4D-07, -1.1D-01, r^2= 4.9D-01
   Bfn.  Coefficient  Atom+Function         Bfn.  Coefficient  Atom+Function  
  ----- ------------  ---------------      ----- ------------  ---------------
    24      0.732288  1 Co dxz               26      0.732134  1 Co dyz        
    30      0.481108  1 Co dxz               32      0.481006  1 Co dyz        
    36      0.315994  1 Co dxz               38      0.315928  1 Co dyz        
    42      0.098180  1 Co dxz               44      0.098159  1 Co dyz        
 
 Vector   11  Occ=1.000000D+00  E=-2.242233D-01
              MO Center=  2.5D-07, -3.6D-07, -9.2D-02, r^2= 5.3D-01
   Bfn.  Coefficient  Atom+Function         Bfn.  Coefficient  Atom+Function  
  ----- ------------  ---------------      ----- ------------  ---------------
    23      0.883124  1 Co dxy               29      0.579411  1 Co dxy        
    35      0.383086  1 Co dxy               27      0.307399  1 Co dzz        
    33      0.202549  1 Co dzz               22     -0.153981  1 Co dxx        
    25     -0.154165  1 Co dyy               39      0.132279  1 Co dzz        
    41      0.116611  1 Co dxy               28     -0.101701  1 Co dxx        
 
 Vector   12  Occ=1.000000D+00  E=-1.917468D-01
              MO Center= -2.5D-06,  2.2D-06,  3.4D-01, r^2= 2.5D+00
   Bfn.  Coefficient  Atom+Function         Bfn.  Coefficient  Atom+Function  
  ----- ------------  ---------------      ----- ------------  ---------------
     5      0.441458  1 Co s                 23     -0.379383  1 Co dxy        
     6      0.314130  1 Co s                 27      0.305184  1 Co dzz        
    29     -0.250138  1 Co dxy                4     -0.221462  1 Co s          
    33      0.216916  1 Co dzz               35     -0.174268  1 Co dxy        
    22     -0.162897  1 Co dxx               25     -0.162808  1 Co dyy        
 
 Vector   13  Occ=1.000000D+00  E=-1.850366D-01
              MO Center= -1.2D-07, -3.8D-08, -1.1D-01, r^2= 5.5D-01
   Bfn.  Coefficient  Atom+Function         Bfn.  Coefficient  Atom+Function  
  ----- ------------  ---------------      ----- ------------  ---------------
    24      0.715777  1 Co dxz               26     -0.715928  1 Co dyz        
    30      0.475973  1 Co dxz               32     -0.476073  1 Co dyz        
    36      0.332121  1 Co dxz               38     -0.332191  1 Co dyz        
    42      0.125331  1 Co dxz               44     -0.125357  1 Co dyz        
 
 Vector   14  Occ=1.000000D+00  E=-1.840749D-01
              MO Center= -3.9D-08, -5.4D-09, -1.0D-01, r^2= 5.4D-01
   Bfn.  Coefficient  Atom+Function         Bfn.  Coefficient  Atom+Function  
  ----- ------------  ---------------      ----- ------------  ---------------
    22      0.507644  1 Co dxx               25     -0.507648  1 Co dyy        
    28      0.335934  1 Co dxx               31     -0.335937  1 Co dyy        
    34      0.234817  1 Co dxx               37     -0.234819  1 Co dyy        
    40      0.086863  1 Co dxx               43     -0.086864  1 Co dyy        
 
 Vector   15  Occ=1.000000D+00  E=-1.817747D-01
              MO Center= -2.9D-06,  1.9D-06,  6.4D-03, r^2= 1.8D+00
   Bfn.  Coefficient  Atom+Function         Bfn.  Coefficient  Atom+Function  
  ----- ------------  ---------------      ----- ------------  ---------------
     5      0.423904  1 Co s                 27     -0.388974  1 Co dzz        
    23      0.372378  1 Co dxy                6      0.327782  1 Co s          
    29      0.245905  1 Co dxy               33     -0.244318  1 Co dzz        
     4     -0.216531  1 Co s                 22      0.184342  1 Co dxx        
    25      0.184260  1 Co dyy               39     -0.177943  1 Co dzz        
 
 Vector   16  Occ=0.000000D+00  E=-1.193735D-01
              MO Center= -4.3D-06,  1.8D-06,  1.6D+00, r^2= 4.6D+00
   Bfn.  Coefficient  Atom+Function         Bfn.  Coefficient  Atom+Function  
  ----- ------------  ---------------      ----- ------------  ---------------
    83      0.536341  2 H  s                 21      0.257862  1 Co pz         
    82      0.219275  2 H  s                  6     -0.185395  1 Co s          
    81      0.169569  2 H  s                  5     -0.168689  1 Co s          
     4      0.110888  1 Co s                 27     -0.087717  1 Co dzz        
    33     -0.079609  1 Co dzz               12     -0.076767  1 Co pz         
 
 Vector   17  Occ=0.000000D+00  E=-1.608521D-02
              MO Center=  2.8D-06, -5.8D-06, -1.3D-01, r^2= 3.8D+00
   Bfn.  Coefficient  Atom+Function         Bfn.  Coefficient  Atom+Function  
  ----- ------------  ---------------      ----- ------------  ---------------
    19      0.691075  1 Co px                20     -0.691263  1 Co py         
    10     -0.141536  1 Co px                11      0.141574  1 Co py         
     7      0.051703  1 Co px                 8     -0.051717  1 Co py         
    13     -0.044948  1 Co px                14      0.044961  1 Co py         
    16      0.028486  1 Co px                17     -0.028493  1 Co py         
 
 Vector   18  Occ=0.000000D+00  E=-1.469073D-02
              MO Center= -2.6D-06,  4.6D-06, -1.3D-01, r^2= 3.8D+00
   Bfn.  Coefficient  Atom+Function         Bfn.  Coefficient  Atom+Function  
  ----- ------------  ---------------      ----- ------------  ---------------
    19      0.693251  1 Co px                20      0.693063  1 Co py         
    10     -0.141013  1 Co px                11     -0.140974  1 Co py         
     7      0.051487  1 Co px                 8      0.051473  1 Co py         
    13     -0.044105  1 Co px                14     -0.044093  1 Co py         
    16      0.025542  1 Co px                17      0.025535  1 Co py         
 
 Vector   19  Occ=0.000000D+00  E= 1.254559D-02
              MO Center= -4.5D-06,  1.7D-06,  1.0D-01, r^2= 5.7D+00
   Bfn.  Coefficient  Atom+Function         Bfn.  Coefficient  Atom+Function  
  ----- ------------  ---------------      ----- ------------  ---------------
     6      1.612000  1 Co s                 21     -0.900019  1 Co pz         
    40     -0.583836  1 Co dxx               43     -0.583836  1 Co dyy        
    45     -0.435894  1 Co dzz               39     -0.297493  1 Co dzz        
    83      0.290488  2 H  s                 34     -0.257095  1 Co dxx        
    37     -0.257096  1 Co dyy               12      0.175908  1 Co pz         
 
 Vector   20  Occ=0.000000D+00  E= 5.301385D-02
              MO Center= -5.5D-06,  1.8D-06, -2.2D-01, r^2= 1.1D+01
   Bfn.  Coefficient  Atom+Function         Bfn.  Coefficient  Atom+Function  
  ----- ------------  ---------------      ----- ------------  ---------------
     6      4.867912  1 Co s                 45     -1.552402  1 Co dzz        
    40     -1.435494  1 Co dxx               43     -1.435492  1 Co dyy        
    34     -0.740233  1 Co dxx               37     -0.740233  1 Co dyy        
    39     -0.709885  1 Co dzz                4     -0.490796  1 Co s          
    83     -0.413574  2 H  s                 21      0.407329  1 Co pz         
 
 Vector   21  Occ=0.000000D+00  E= 1.794392D-01
              MO Center=  1.7D-06,  1.8D-06, -3.4D-02, r^2= 5.3D+00
   Bfn.  Coefficient  Atom+Function         Bfn.  Coefficient  Atom+Function  
  ----- ------------  ---------------      ----- ------------  ---------------
    42      1.293335  1 Co dxz               44      1.293071  1 Co dyz        
    24     -0.225711  1 Co dxz               26     -0.225665  1 Co dyz        
    36     -0.208867  1 Co dxz               38     -0.208824  1 Co dyz        
    30     -0.077071  1 Co dxz               32     -0.077055  1 Co dyz        
    87      0.038902  2 H  px                88      0.038895  2 H  py         
 
 Vector   22  Occ=0.000000D+00  E= 1.813253D-01
              MO Center=  3.8D-06, -3.8D-06, -3.2D-02, r^2= 5.2D+00
   Bfn.  Coefficient  Atom+Function         Bfn.  Coefficient  Atom+Function  
  ----- ------------  ---------------      ----- ------------  ---------------
    42      1.294960  1 Co dxz               44     -1.295225  1 Co dyz        
    24     -0.242731  1 Co dxz               26      0.242781  1 Co dyz        
    36     -0.228759  1 Co dxz               38      0.228806  1 Co dyz        
    30     -0.090365  1 Co dxz               32      0.090384  1 Co dyz        
    87      0.039204  2 H  px                88     -0.039212  2 H  py         
 
 Vector   23  Occ=0.000000D+00  E= 1.852851D-01
              MO Center=  6.1D-06, -2.7D-06, -1.0D-01, r^2= 5.2D+00
   Bfn.  Coefficient  Atom+Function         Bfn.  Coefficient  Atom+Function  
  ----- ------------  ---------------      ----- ------------  ---------------
    41      1.845892  1 Co dxy               23     -0.326567  1 Co dxy        
    35     -0.301010  1 Co dxy               29     -0.113495  1 Co dxy        
     6      0.056529  1 Co s                 43     -0.037968  1 Co dyy        
    83     -0.037881  2 H  s                 40     -0.037567  1 Co dxx        
    45      0.033881  1 Co dzz        
 
 Vector   24  Occ=0.000000D+00  E= 1.870395D-01
              MO Center=  5.7D-06, -2.3D-06, -1.0D-01, r^2= 5.2D+00
   Bfn.  Coefficient  Atom+Function         Bfn.  Coefficient  Atom+Function  
  ----- ------------  ---------------      ----- ------------  ---------------
    40      0.925006  1 Co dxx               43     -0.925007  1 Co dyy        
    22     -0.172225  1 Co dxx               25      0.172225  1 Co dyy        
    34     -0.161340  1 Co dxx               37      0.161340  1 Co dyy        
    28     -0.063449  1 Co dxx               31      0.063449  1 Co dyy        
 
 Vector   25  Occ=0.000000D+00  E= 2.146587D-01
              MO Center=  1.2D-06, -3.2D-07,  9.8D-02, r^2= 6.6D+00
   Bfn.  Coefficient  Atom+Function         Bfn.  Coefficient  Atom+Function  
  ----- ------------  ---------------      ----- ------------  ---------------
    45      1.171196  1 Co dzz               83     -0.995538  2 H  s          
     6      0.703828  1 Co s                 40     -0.622569  1 Co dxx        
    43     -0.622551  1 Co dyy                5     -0.508893  1 Co s          
    21      0.324277  1 Co pz                82      0.316499  2 H  s          
    27     -0.179398  1 Co dzz               39     -0.150096  1 Co dzz        
 
 Vector   26  Occ=0.000000D+00  E= 3.004627D-01
              MO Center= -5.3D-06,  2.0D-06,  1.5D+00, r^2= 8.5D+00
   Bfn.  Coefficient  Atom+Function         Bfn.  Coefficient  Atom+Function  
  ----- ------------  ---------------      ----- ------------  ---------------
     5      5.062142  1 Co s                  6      3.872806  1 Co s          
    40     -2.426834  1 Co dxx               43     -2.426833  1 Co dyy        
    45     -2.212842  1 Co dzz                4     -1.672372  1 Co s          
    39     -1.602557  1 Co dzz               34     -1.546963  1 Co dxx        
    37     -1.546964  1 Co dyy               82     -1.272495  2 H  s          
 
 Vector   27  Occ=0.000000D+00  E= 3.623130D-01
              MO Center= -7.3D-06,  2.9D-06,  1.1D+00, r^2= 8.9D+00
   Bfn.  Coefficient  Atom+Function         Bfn.  Coefficient  Atom+Function  
  ----- ------------  ---------------      ----- ------------  ---------------
     6      4.890623  1 Co s                  5      4.713760  1 Co s          
    45     -2.519215  1 Co dzz               40     -2.477988  1 Co dxx        
    43     -2.477988  1 Co dyy                4     -1.667842  1 Co s          
    82      1.595873  2 H  s                 34     -1.560048  1 Co dxx        
    37     -1.560048  1 Co dyy               39     -1.519980  1 Co dzz        
 
 Vector   28  Occ=0.000000D+00  E= 4.568744D-01
              MO Center=  5.5D-06, -7.8D-06, -8.9D-02, r^2= 3.6D+00
   Bfn.  Coefficient  Atom+Function         Bfn.  Coefficient  Atom+Function  
  ----- ------------  ---------------      ----- ------------  ---------------
    16      1.381152  1 Co px                17     -1.381500  1 Co py         
    19     -0.929827  1 Co px                20      0.930062  1 Co py         
    10     -0.249854  1 Co px                11      0.249917  1 Co py         
    13     -0.122033  1 Co px                14      0.122063  1 Co py         
    61     -0.111397  1 Co fxzz              64      0.111425  1 Co fyzz       
 
 Vector   29  Occ=0.000000D+00  E= 4.591131D-01
              MO Center=  5.0D-07,  5.4D-06, -8.9D-02, r^2= 3.6D+00
   Bfn.  Coefficient  Atom+Function         Bfn.  Coefficient  Atom+Function  
  ----- ------------  ---------------      ----- ------------  ---------------
    16      1.381283  1 Co px                17      1.380934  1 Co py         
    19     -0.928483  1 Co px                20     -0.928249  1 Co py         
    10     -0.250098  1 Co px                11     -0.250034  1 Co py         
    13     -0.120819  1 Co px                14     -0.120789  1 Co py         
    56     -0.111321  1 Co fxxx              57     -0.111257  1 Co fxxy       
 
 Vector   30  Occ=0.000000D+00  E= 4.995099D-01
              MO Center= -3.1D-06,  9.4D-07,  1.5D-01, r^2= 4.0D+00
   Bfn.  Coefficient  Atom+Function         Bfn.  Coefficient  Atom+Function  
  ----- ------------  ---------------      ----- ------------  ---------------
    18      2.028059  1 Co pz                21     -1.565801  1 Co pz         
     6     -0.499076  1 Co s                 83      0.424529  2 H  s          
    12     -0.349276  1 Co pz                 5      0.271873  1 Co s          
    15     -0.172344  1 Co pz                40      0.164212  1 Co dxx        
    43      0.164211  1 Co dyy               58     -0.158182  1 Co fxxz       
 
 Vector   31  Occ=0.000000D+00  E= 7.064290D-01
              MO Center= -4.2D-08,  7.5D-08,  2.6D+00, r^2= 1.7D+00
   Bfn.  Coefficient  Atom+Function         Bfn.  Coefficient  Atom+Function  
  ----- ------------  ---------------      ----- ------------  ---------------
    87      0.731722  2 H  px                88      0.731577  2 H  py         
    36     -0.254930  1 Co dxz               38     -0.254879  1 Co dyz        
    16      0.194305  1 Co px                17      0.194266  1 Co py         
    19     -0.185895  1 Co px                20     -0.185858  1 Co py         
    42     -0.136841  1 Co dxz               44     -0.136814  1 Co dyz        
 
 Vector   32  Occ=0.000000D+00  E= 7.070539D-01
              MO Center= -8.1D-09, -5.1D-08,  2.6D+00, r^2= 1.7D+00
   Bfn.  Coefficient  Atom+Function         Bfn.  Coefficient  Atom+Function  
  ----- ------------  ---------------      ----- ------------  ---------------
    87      0.733357  2 H  px                88     -0.733502  2 H  py         
    36     -0.236545  1 Co dxz               38      0.236591  1 Co dyz        
    16      0.193773  1 Co px                17     -0.193812  1 Co py         
    19     -0.185793  1 Co px                20      0.185830  1 Co py         
    42     -0.147917  1 Co dxz               44      0.147946  1 Co dyz        
 
 Vector   33  Occ=0.000000D+00  E= 8.672359D-01
              MO Center= -1.1D-07,  1.6D-08,  2.1D+00, r^2= 4.0D+00
   Bfn.  Coefficient  Atom+Function         Bfn.  Coefficient  Atom+Function  
  ----- ------------  ---------------      ----- ------------  ---------------
     5      6.697564  1 Co s                 45     -2.423050  1 Co dzz        
    34     -2.258281  1 Co dxx               37     -2.258290  1 Co dyy        
     6      1.768759  1 Co s                  4     -1.687000  1 Co s          
    39     -1.662941  1 Co dzz               40     -1.230510  1 Co dxx        
    43     -1.230506  1 Co dyy               89     -1.176020  2 H  pz         
 
 Vector   34  Occ=0.000000D+00  E= 9.123334D-01
              MO Center=  3.7D-06, -2.1D-06, -9.7D-02, r^2= 2.5D+00
   Bfn.  Coefficient  Atom+Function         Bfn.  Coefficient  Atom+Function  
  ----- ------------  ---------------      ----- ------------  ---------------
    35      2.425875  1 Co dxy               41     -1.204049  1 Co dxy        
    29     -0.904609  1 Co dxy               23     -0.648968  1 Co dxy        
     5     -0.406788  1 Co s                 39      0.374847  1 Co dzz        
    67      0.167817  1 Co gxxxy             72      0.167816  1 Co gxyyy      
    74      0.167509  1 Co gxyzz             40      0.164245  1 Co dxx        
 
 Vector   35  Occ=0.000000D+00  E= 9.219105D-01
              MO Center=  3.0D-06, -9.3D-07, -1.0D-01, r^2= 2.4D+00
   Bfn.  Coefficient  Atom+Function         Bfn.  Coefficient  Atom+Function  
  ----- ------------  ---------------      ----- ------------  ---------------
    34      1.231295  1 Co dxx               37     -1.231296  1 Co dyy        
    40     -0.607892  1 Co dxx               43      0.607893  1 Co dyy        
    28     -0.469708  1 Co dxx               31      0.469709  1 Co dyy        
    22     -0.333736  1 Co dxx               25      0.333736  1 Co dyy        
    66      0.087031  1 Co gxxxx             76     -0.087031  1 Co gyyyy      
 
 Vector   36  Occ=0.000000D+00  E= 9.242929D-01
              MO Center=  1.6D-06,  8.2D-07,  8.1D-03, r^2= 2.8D+00
   Bfn.  Coefficient  Atom+Function         Bfn.  Coefficient  Atom+Function  
  ----- ------------  ---------------      ----- ------------  ---------------
    36      1.730128  1 Co dxz               38      1.729768  1 Co dyz        
    42     -0.919696  1 Co dxz               44     -0.919505  1 Co dyz        
    30     -0.632885  1 Co dxz               32     -0.632753  1 Co dyz        
    24     -0.453067  1 Co dxz               26     -0.452973  1 Co dyz        
    87      0.184614  2 H  px                88      0.184575  2 H  py         
 
 Vector   37  Occ=0.000000D+00  E= 9.338853D-01
              MO Center=  2.3D-06, -2.3D-06, -2.4D-03, r^2= 2.7D+00
   Bfn.  Coefficient  Atom+Function         Bfn.  Coefficient  Atom+Function  
  ----- ------------  ---------------      ----- ------------  ---------------
    36      1.731735  1 Co dxz               38     -1.732095  1 Co dyz        
    42     -0.912928  1 Co dxz               44      0.913118  1 Co dyz        
    30     -0.652646  1 Co dxz               32      0.652782  1 Co dyz        
    24     -0.461677  1 Co dxz               26      0.461773  1 Co dyz        
    87      0.177527  2 H  px                88     -0.177564  2 H  py         
 
 Vector   38  Occ=0.000000D+00  E= 9.449314D-01
              MO Center=  1.0D-06, -1.2D-08, -2.7D-02, r^2= 2.8D+00
   Bfn.  Coefficient  Atom+Function         Bfn.  Coefficient  Atom+Function  
  ----- ------------  ---------------      ----- ------------  ---------------
     5      3.384724  1 Co s                 39     -2.506978  1 Co dzz        
     6      1.166559  1 Co s                 40     -1.168959  1 Co dxx        
    43     -1.168913  1 Co dyy                4     -0.882016  1 Co s          
    28     -0.484794  1 Co dxx               31     -0.484758  1 Co dyy        
    35      0.423819  1 Co dxy               34     -0.398621  1 Co dxx        
 
 Vector   39  Occ=0.000000D+00  E= 9.851397D-01
              MO Center= -5.8D-07,  2.7D-07,  1.3D-01, r^2= 7.4D+00
   Bfn.  Coefficient  Atom+Function         Bfn.  Coefficient  Atom+Function  
  ----- ------------  ---------------      ----- ------------  ---------------
     5     21.144802  1 Co s                 34     -6.727250  1 Co dxx        
    37     -6.727243  1 Co dyy               39     -6.544140  1 Co dzz        
     6      5.591032  1 Co s                  4     -5.327335  1 Co s          
    40     -4.399578  1 Co dxx               43     -4.399581  1 Co dyy        
    45     -4.234759  1 Co dzz               33     -1.416320  1 Co dzz        
 
 Vector   40  Occ=0.000000D+00  E= 1.684688D+00
              MO Center= -8.5D-09,  1.3D-08,  2.8D+00, r^2= 1.8D+00
   Bfn.  Coefficient  Atom+Function         Bfn.  Coefficient  Atom+Function  
  ----- ------------  ---------------      ----- ------------  ---------------
    82      3.781147  2 H  s                 81     -1.577543  2 H  s          
    83     -1.377186  2 H  s                  6      0.744122  1 Co s          
    90     -0.743734  2 H  dxx               93     -0.743734  2 H  dyy        
    95     -0.725580  2 H  dzz                5      0.399342  1 Co s          
    45     -0.287532  1 Co dzz               40     -0.272563  1 Co dxx        
 
 Vector   41  Occ=0.000000D+00  E= 2.343438D+00
              MO Center= -7.0D-05,  6.8D-05, -1.1D-01, r^2= 1.4D+00
   Bfn.  Coefficient  Atom+Function         Bfn.  Coefficient  Atom+Function  
  ----- ------------  ---------------      ----- ------------  ---------------
    16      1.239727  1 Co px                17     -1.240019  1 Co py         
    57      0.993308  1 Co fxxy              59     -0.993109  1 Co fxyy       
    56     -0.941137  1 Co fxxx              62      0.941370  1 Co fyyy       
    61     -0.932800  1 Co fxzz              64      0.933021  1 Co fyzz       
    10      0.551199  1 Co px                11     -0.551329  1 Co py         
 
 Vector   42  Occ=0.000000D+00  E= 2.345530D+00
              MO Center= -3.3D-05, -3.0D-05, -1.1D-01, r^2= 1.4D+00
   Bfn.  Coefficient  Atom+Function         Bfn.  Coefficient  Atom+Function  
  ----- ------------  ---------------      ----- ------------  ---------------
    16      1.240102  1 Co px                17      1.239810  1 Co py         
    61     -0.999712  1 Co fxzz              64     -0.999478  1 Co fyzz       
    57     -0.943646  1 Co fxxy              59     -0.943863  1 Co fxyy       
    56     -0.931923  1 Co fxxx              62     -0.931701  1 Co fyyy       
    10      0.551773  1 Co px                11      0.551643  1 Co py         
 
 Vector   43  Occ=0.000000D+00  E= 2.362891D+00
              MO Center=  7.1D-05, -2.5D-05, -5.2D-01, r^2= 1.5D+00
   Bfn.  Coefficient  Atom+Function         Bfn.  Coefficient  Atom+Function  
  ----- ------------  ---------------      ----- ------------  ---------------
     5      8.091085  1 Co s                 34     -2.930643  1 Co dxx        
    37     -2.930643  1 Co dyy               39     -2.904406  1 Co dzz        
     4     -2.744193  1 Co s                 18      1.211982  1 Co pz         
    45     -1.192361  1 Co dzz               40     -1.100989  1 Co dxx        
    43     -1.100989  1 Co dyy                6      0.994268  1 Co s          
 
 Vector   44  Occ=0.000000D+00  E= 2.384962D+00
              MO Center=  2.5D-05, -9.8D-06,  3.5D-01, r^2= 1.5D+00
   Bfn.  Coefficient  Atom+Function         Bfn.  Coefficient  Atom+Function  
  ----- ------------  ---------------      ----- ------------  ---------------
     5      7.122508  1 Co s                 39     -2.646797  1 Co dzz        
    34     -2.591857  1 Co dxx               37     -2.591857  1 Co dyy        
     4     -2.442930  1 Co s                 18     -1.438678  1 Co pz         
     6      1.257358  1 Co s                 40     -1.132290  1 Co dxx        
    43     -1.132290  1 Co dyy               58      1.058122  1 Co fxxz       
 
 Vector   45  Occ=0.000000D+00  E= 2.630320D+00
              MO Center= -3.9D-07,  2.4D-07, -1.0D-01, r^2= 6.4D-01
   Bfn.  Coefficient  Atom+Function         Bfn.  Coefficient  Atom+Function  
  ----- ------------  ---------------      ----- ------------  ---------------
    57      1.466639  1 Co fxxy              59     -1.467371  1 Co fxyy       
    61      1.194095  1 Co fxzz              64     -1.194602  1 Co fyzz       
    56      0.133979  1 Co fxxx              62     -0.133566  1 Co fyyy       
    47      0.062914  1 Co fxxy              49     -0.062946  1 Co fxyy       
    51      0.052766  1 Co fxzz              54     -0.052788  1 Co fyzz       
 
 Vector   46  Occ=0.000000D+00  E= 2.630510D+00
              MO Center= -3.0D-07,  6.4D-08, -1.0D-01, r^2= 6.4D-01
   Bfn.  Coefficient  Atom+Function         Bfn.  Coefficient  Atom+Function  
  ----- ------------  ---------------      ----- ------------  ---------------
    61      1.552821  1 Co fxzz              64      1.552301  1 Co fyzz       
    56     -0.629976  1 Co fxxx              62     -0.630037  1 Co fyyy       
    57      0.177326  1 Co fxxy              59      0.176610  1 Co fxyy       
    51      0.066213  1 Co fxzz              54      0.066191  1 Co fyzz       
    16      0.034486  1 Co px                17      0.034483  1 Co py         
 
 Vector   47  Occ=0.000000D+00  E= 2.631044D+00
              MO Center= -3.3D-07,  1.0D-07, -1.0D-01, r^2= 6.4D-01
   Bfn.  Coefficient  Atom+Function         Bfn.  Coefficient  Atom+Function  
  ----- ------------  ---------------      ----- ------------  ---------------
    60      3.776621  1 Co fxyz              65     -0.168930  1 Co fzzz       
    50      0.164670  1 Co fxyz              58      0.154946  1 Co fxxz       
    63      0.154152  1 Co fyyz              18      0.048000  1 Co pz         
     5     -0.026650  1 Co s                 21     -0.025620  1 Co pz         
 
 Vector   48  Occ=0.000000D+00  E= 2.642144D+00
              MO Center= -2.1D-07,  1.1D-07, -1.0D-01, r^2= 6.6D-01
   Bfn.  Coefficient  Atom+Function         Bfn.  Coefficient  Atom+Function  
  ----- ------------  ---------------      ----- ------------  ---------------
    58      1.429154  1 Co fxxz              63      1.429546  1 Co fyyz       
    65     -1.007045  1 Co fzzz              60     -0.504129  1 Co fxyz       
     5     -0.141057  1 Co s                 18      0.070610  1 Co pz         
    21     -0.061287  1 Co pz                48      0.059845  1 Co fxxz       
    53      0.059861  1 Co fyyz              39      0.056979  1 Co dzz        
 
 Vector   49  Occ=0.000000D+00  E= 2.642696D+00
              MO Center= -3.6D-07,  1.3D-07, -1.0D-01, r^2= 6.4D-01
   Bfn.  Coefficient  Atom+Function         Bfn.  Coefficient  Atom+Function  
  ----- ------------  ---------------      ----- ------------  ---------------
    58      1.906191  1 Co fxxz              63     -1.905976  1 Co fyyz       
    48      0.081511  1 Co fxxz              53     -0.081502  1 Co fyyz       
 
 Vector   50  Occ=0.000000D+00  E= 2.645317D+00
              MO Center= -4.2D-07,  3.7D-08, -1.0D-01, r^2= 6.4D-01
   Bfn.  Coefficient  Atom+Function         Bfn.  Coefficient  Atom+Function  
  ----- ------------  ---------------      ----- ------------  ---------------
    57      1.697543  1 Co fxxy              59      1.696606  1 Co fxyy       
    61     -0.620085  1 Co fxzz              64     -0.619956  1 Co fyzz       
    56     -0.350201  1 Co fxxx              62     -0.350558  1 Co fyyy       
    47      0.073119  1 Co fxxy              49      0.073079  1 Co fxyy       
    51     -0.026338  1 Co fxzz              54     -0.026332  1 Co fyzz       
 
 Vector   51  Occ=0.000000D+00  E= 2.658771D+00
              MO Center= -3.7D-07,  8.6D-08, -1.0D-01, r^2= 6.4D-01
   Bfn.  Coefficient  Atom+Function         Bfn.  Coefficient  Atom+Function  
  ----- ------------  ---------------      ----- ------------  ---------------
    61      1.232905  1 Co fxzz              64     -1.233161  1 Co fyzz       
    57     -0.812717  1 Co fxxy              59      0.813499  1 Co fxyy       
    56     -0.696347  1 Co fxxx              62      0.696174  1 Co fyyy       
    51      0.050703  1 Co fxzz              54     -0.050713  1 Co fyzz       
    47     -0.033981  1 Co fxxy              49      0.034014  1 Co fxyy       
 
 Vector   52  Occ=0.000000D+00  E= 3.313631D+00
              MO Center=  9.0D-07, -7.7D-07,  1.5D+00, r^2= 2.8D+00
   Bfn.  Coefficient  Atom+Function         Bfn.  Coefficient  Atom+Function  
  ----- ------------  ---------------      ----- ------------  ---------------
     5      1.212299  1 Co s                 33      1.109138  1 Co dzz        
    29      1.075892  1 Co dxy               39     -0.986323  1 Co dzz        
    91      0.955372  2 H  dxy               28     -0.620974  1 Co dxx        
    31     -0.621200  1 Co dyy               35     -0.530460  1 Co dxy        
    95     -0.484945  2 H  dzz               27     -0.451851  1 Co dzz        
 
 Vector   53  Occ=0.000000D+00  E= 3.316874D+00
              MO Center=  5.5D-08, -2.2D-08,  2.7D+00, r^2= 6.4D-01
   Bfn.  Coefficient  Atom+Function         Bfn.  Coefficient  Atom+Function  
  ----- ------------  ---------------      ----- ------------  ---------------
    90      0.856820  2 H  dxx               93     -0.856820  2 H  dyy        
    28      0.243221  1 Co dxx               31     -0.243221  1 Co dyy        
    34     -0.112148  1 Co dxx               37      0.112148  1 Co dyy        
    22     -0.096542  1 Co dxx               25      0.096542  1 Co dyy        
    66     -0.061757  1 Co gxxxx             71     -0.061637  1 Co gxxzz      
 
 Vector   54  Occ=0.000000D+00  E= 3.317735D+00
              MO Center=  2.2D-07, -5.6D-08,  2.2D+00, r^2= 1.9D+00
   Bfn.  Coefficient  Atom+Function         Bfn.  Coefficient  Atom+Function  
  ----- ------------  ---------------      ----- ------------  ---------------
    91      1.398370  2 H  dxy                5     -0.953262  1 Co s          
    33     -0.825167  1 Co dzz               39      0.750272  1 Co dzz        
    28      0.465265  1 Co dxx               31      0.465246  1 Co dyy        
    95      0.382155  2 H  dzz               27      0.337384  1 Co dzz        
    40      0.287022  1 Co dxx               43      0.287024  1 Co dyy        
 
 Vector   55  Occ=0.000000D+00  E= 3.335978D+00
              MO Center=  9.0D-07,  3.7D-07,  5.5D-01, r^2= 2.3D+00
   Bfn.  Coefficient  Atom+Function         Bfn.  Coefficient  Atom+Function  
  ----- ------------  ---------------      ----- ------------  ---------------
    30      2.126909  1 Co dxz               32      2.126465  1 Co dyz        
    36     -1.051581  1 Co dxz               38     -1.051362  1 Co dyz        
    24     -0.830955  1 Co dxz               26     -0.830781  1 Co dyz        
    92     -0.569984  2 H  dxz               94     -0.569865  2 H  dyz        
    68     -0.530673  1 Co gxxxz             70     -0.530486  1 Co gxxyz      
 
 Vector   56  Occ=0.000000D+00  E= 3.350479D+00
              MO Center=  5.8D-07, -4.6D-07,  1.7D+00, r^2= 2.6D+00
   Bfn.  Coefficient  Atom+Function         Bfn.  Coefficient  Atom+Function  
  ----- ------------  ---------------      ----- ------------  ---------------
    30      1.477327  1 Co dxz               32     -1.477636  1 Co dyz        
    92     -0.961192  2 H  dxz               94      0.961393  2 H  dyz        
    36     -0.708547  1 Co dxz               38      0.708695  1 Co dyz        
    24     -0.581979  1 Co dxz               26      0.582100  1 Co dyz        
    68     -0.371577  1 Co gxxxz             70      0.371339  1 Co gxxyz      
 
 Vector   57  Occ=0.000000D+00  E= 3.351289D+00
              MO Center=  2.5D-06, -8.9D-07,  1.6D-01, r^2= 1.6D+00
   Bfn.  Coefficient  Atom+Function         Bfn.  Coefficient  Atom+Function  
  ----- ------------  ---------------      ----- ------------  ---------------
    29      3.234124  1 Co dxy               35     -1.623074  1 Co dxy        
    23     -1.259596  1 Co dxy               67     -0.806518  1 Co gxxxy      
    72     -0.806517  1 Co gxyyy             74     -0.805219  1 Co gxyzz      
     5     -0.529454  1 Co s                 41      0.526752  1 Co dxy        
    91     -0.363482  2 H  dxy               39      0.292054  1 Co dzz        
 
 Vector   58  Occ=0.000000D+00  E= 3.367019D+00
              MO Center=  1.0D-07,  3.0D-07,  2.1D+00, r^2= 2.0D+00
   Bfn.  Coefficient  Atom+Function         Bfn.  Coefficient  Atom+Function  
  ----- ------------  ---------------      ----- ------------  ---------------
    30      1.148846  1 Co dxz               32      1.148607  1 Co dyz        
    92      1.085796  2 H  dxz               94      1.085569  2 H  dyz        
    36     -0.612821  1 Co dxz               38     -0.612693  1 Co dyz        
    24     -0.440969  1 Co dxz               26     -0.440877  1 Co dyz        
    68     -0.284843  1 Co gxxxz             70     -0.284695  1 Co gxxyz      
 
 Vector   59  Occ=0.000000D+00  E= 3.368410D+00
              MO Center=  2.7D-06, -1.2D-06, -4.2D-02, r^2= 1.1D+00
   Bfn.  Coefficient  Atom+Function         Bfn.  Coefficient  Atom+Function  
  ----- ------------  ---------------      ----- ------------  ---------------
    28      1.692926  1 Co dxx               31     -1.692926  1 Co dyy        
    34     -0.846221  1 Co dxx               37      0.846221  1 Co dyy        
    22     -0.660533  1 Co dxx               25      0.660533  1 Co dyy        
    66     -0.423924  1 Co gxxxx             71     -0.423048  1 Co gxxzz      
    76      0.423924  1 Co gyyyy             78      0.423048  1 Co gyyzz      
 
 Vector   60  Occ=0.000000D+00  E= 3.376889D+00
              MO Center=  1.2D-06, -1.0D-06,  9.9D-01, r^2= 2.7D+00
   Bfn.  Coefficient  Atom+Function         Bfn.  Coefficient  Atom+Function  
  ----- ------------  ---------------      ----- ------------  ---------------
    30      1.912107  1 Co dxz               32     -1.912507  1 Co dyz        
    36     -0.981698  1 Co dxz               38      0.981903  1 Co dyz        
    92      0.761126  2 H  dxz               94     -0.761285  2 H  dyz        
    24     -0.741758  1 Co dxz               26      0.741913  1 Co dyz        
    68     -0.478285  1 Co gxxxz             70      0.477999  1 Co gxxyz      
 
 Vector   61  Occ=0.000000D+00  E= 3.444776D+00
              MO Center=  5.3D-07, -1.1D-07,  1.5D+00, r^2= 2.6D+00
   Bfn.  Coefficient  Atom+Function         Bfn.  Coefficient  Atom+Function  
  ----- ------------  ---------------      ----- ------------  ---------------
     5      1.903768  1 Co s                 33     -1.394676  1 Co dzz        
    34     -0.955915  1 Co dxx               37     -0.955886  1 Co dyy        
    95     -0.740428  2 H  dzz               28      0.597012  1 Co dxx        
    31      0.596954  1 Co dyy               45     -0.594597  1 Co dzz        
     4     -0.511288  1 Co s                 27      0.507931  1 Co dzz        
 
 Vector   62  Occ=0.000000D+00  E= 3.766875D+00
              MO Center=  2.1D-08,  6.4D-09,  2.8D+00, r^2= 5.0D-01
   Bfn.  Coefficient  Atom+Function         Bfn.  Coefficient  Atom+Function  
  ----- ------------  ---------------      ----- ------------  ---------------
    84      0.897730  2 H  px                85      0.897556  2 H  py         
    87     -0.517673  2 H  px                88     -0.517573  2 H  py         
    30      0.151654  1 Co dxz               32      0.151625  1 Co dyz        
    42      0.136889  1 Co dxz               44      0.136863  1 Co dyz        
    36     -0.131678  1 Co dxz               38     -0.131653  1 Co dyz        
 
 Vector   63  Occ=0.000000D+00  E= 3.767104D+00
              MO Center=  4.0D-08, -2.6D-08,  2.8D+00, r^2= 5.0D-01
   Bfn.  Coefficient  Atom+Function         Bfn.  Coefficient  Atom+Function  
  ----- ------------  ---------------      ----- ------------  ---------------
    84      0.897423  2 H  px                85     -0.897597  2 H  py         
    87     -0.517573  2 H  px                88      0.517673  2 H  py         
    30      0.159266  1 Co dxz               32     -0.159297  1 Co dyz        
    42      0.138005  1 Co dxz               44     -0.138032  1 Co dyz        
    36     -0.135223  1 Co dxz               38      0.135249  1 Co dyz        
 
 Vector   64  Occ=0.000000D+00  E= 3.930233D+00
              MO Center=  2.1D-08, -2.7D-09,  2.7D+00, r^2= 7.0D-01
   Bfn.  Coefficient  Atom+Function         Bfn.  Coefficient  Atom+Function  
  ----- ------------  ---------------      ----- ------------  ---------------
    86      1.300480  2 H  pz                89     -0.885139  2 H  pz         
    83      0.348809  2 H  s                 21     -0.321990  1 Co pz         
    45     -0.231354  1 Co dzz               33      0.221073  1 Co dzz        
     5     -0.211777  1 Co s                 82     -0.154424  2 H  s          
    34      0.118401  1 Co dxx               37      0.118400  1 Co dyy        
 
 Vector   65  Occ=0.000000D+00  E= 4.625371D+00
              MO Center=  6.3D-09,  1.5D-09,  2.8D+00, r^2= 7.0D-01
   Bfn.  Coefficient  Atom+Function         Bfn.  Coefficient  Atom+Function  
  ----- ------------  ---------------      ----- ------------  ---------------
    82      2.888874  2 H  s                 95     -1.308911  2 H  dzz        
    90     -1.276259  2 H  dxx               93     -1.276259  2 H  dyy        
    83     -0.757448  2 H  s                  6      0.394246  1 Co s          
     5      0.389835  1 Co s                 81      0.358099  2 H  s          
    39     -0.215068  1 Co dzz               40     -0.170984  1 Co dxx        
 
 Vector   66  Occ=0.000000D+00  E= 8.316252D+00
              MO Center= -3.4D-06,  1.5D-06, -1.1D-01, r^2= 5.5D-01
   Bfn.  Coefficient  Atom+Function         Bfn.  Coefficient  Atom+Function  
  ----- ------------  ---------------      ----- ------------  ---------------
     5      3.160383  1 Co s                  4     -2.016339  1 Co s          
    69     -1.782483  1 Co gxxyy             71     -1.771327  1 Co gxxzz      
    78     -1.771315  1 Co gyyzz             39     -1.289756  1 Co dzz        
    34     -1.282562  1 Co dxx               37     -1.282562  1 Co dyy        
    33      1.088165  1 Co dzz               28      1.082492  1 Co dxx        
 
 Vector   67  Occ=0.000000D+00  E= 9.176064D+00
              MO Center= -3.2D-05, -2.9D-05, -2.1D-01, r^2= 4.8D-01
   Bfn.  Coefficient  Atom+Function         Bfn.  Coefficient  Atom+Function  
  ----- ------------  ---------------      ----- ------------  ---------------
    13      2.686367  1 Co px                14      2.685794  1 Co py         
    70     -2.340694  1 Co gxxyz             73     -2.341128  1 Co gxyyz      
    30      2.317306  1 Co dxz               32      2.316817  1 Co dyz        
    75     -2.301325  1 Co gxzzz             79     -2.300839  1 Co gyzzz      
    68     -2.246478  1 Co gxxxz             77     -2.245984  1 Co gyyyz      
 
 Vector   68  Occ=0.000000D+00  E= 9.178635D+00
              MO Center= -1.1D-04,  9.7D-05, -1.2D-01, r^2= 4.9D-01
   Bfn.  Coefficient  Atom+Function         Bfn.  Coefficient  Atom+Function  
  ----- ------------  ---------------      ----- ------------  ---------------
    29      3.131838  1 Co dxy               74     -3.107191  1 Co gxyzz      
    67     -3.086564  1 Co gxxxy             72     -3.086587  1 Co gxyyy      
    23      1.441153  1 Co dxy               15      1.041213  1 Co pz         
    35     -0.936390  1 Co dxy               69      0.729063  1 Co gxxyy      
    33      0.691305  1 Co dzz               80     -0.662465  1 Co gzzzz      
 
 Vector   69  Occ=0.000000D+00  E= 9.192545D+00
              MO Center=  1.8D-05, -5.9D-05, -2.0D-01, r^2= 4.8D-01
   Bfn.  Coefficient  Atom+Function         Bfn.  Coefficient  Atom+Function  
  ----- ------------  ---------------      ----- ------------  ---------------
    13     11.903704  1 Co px                14    -11.906015  1 Co py         
    56     -6.284757  1 Co fxxx              57      6.286339  1 Co fxxy       
    59     -6.285119  1 Co fxyy              61     -6.285823  1 Co fxzz       
    62      6.285977  1 Co fyyy              64      6.287043  1 Co fyzz       
    10     -2.589529  1 Co px                11      2.590032  1 Co py         
 
 Vector   70  Occ=0.000000D+00  E= 9.193563D+00
              MO Center= -1.6D-06, -2.6D-05, -1.3D-01, r^2= 4.9D-01
   Bfn.  Coefficient  Atom+Function         Bfn.  Coefficient  Atom+Function  
  ----- ------------  ---------------      ----- ------------  ---------------
    15     17.111020  1 Co pz                58     -9.033136  1 Co fxxz       
    63     -9.033136  1 Co fyyz              65     -9.034586  1 Co fzzz       
    12     -3.722454  1 Co pz                48     -0.874434  1 Co fxxz       
    53     -0.874431  1 Co fyyz              55     -0.871133  1 Co fzzz       
    18     -0.825170  1 Co pz                 9      0.323175  1 Co pz         
 
 Vector   71  Occ=0.000000D+00  E= 9.195004D+00
              MO Center= -2.1D-05,  1.0D-04, -9.6D-04, r^2= 4.8D-01
   Bfn.  Coefficient  Atom+Function         Bfn.  Coefficient  Atom+Function  
  ----- ------------  ---------------      ----- ------------  ---------------
    13     11.858629  1 Co px                14     11.856336  1 Co py         
    56     -6.261904  1 Co fxxx              57     -6.259971  1 Co fxxy       
    59     -6.261182  1 Co fxyy              61     -6.262351  1 Co fxzz       
    62     -6.260694  1 Co fyyy              64     -6.261140  1 Co fyzz       
    10     -2.579915  1 Co px                11     -2.579416  1 Co py         
 
 Vector   72  Occ=0.000000D+00  E= 9.211562D+00
              MO Center=  7.4D-05, -5.0D-05, -1.0D-01, r^2= 4.9D-01
   Bfn.  Coefficient  Atom+Function         Bfn.  Coefficient  Atom+Function  
  ----- ------------  ---------------      ----- ------------  ---------------
    28      1.674810  1 Co dxx               31     -1.674806  1 Co dyy        
    71     -1.680350  1 Co gxxzz             78      1.680354  1 Co gyyzz      
    66     -1.649787  1 Co gxxxx             76      1.649787  1 Co gyyyy      
    22      0.772619  1 Co dxx               25     -0.772617  1 Co dyy        
    34     -0.500331  1 Co dxx               37      0.500330  1 Co dyy        
 
 Vector   73  Occ=0.000000D+00  E= 9.213575D+00
              MO Center=  6.0D-05, -4.3D-05, -9.5D-03, r^2= 4.8D-01
   Bfn.  Coefficient  Atom+Function         Bfn.  Coefficient  Atom+Function  
  ----- ------------  ---------------      ----- ------------  ---------------
    13      2.469950  1 Co px                14     -2.470477  1 Co py         
    30     -2.321970  1 Co dxz               32      2.322460  1 Co dyz        
    68      2.307299  1 Co gxxxz             77     -2.307781  1 Co gyyyz      
    70     -2.283971  1 Co gxxyz             73      2.283474  1 Co gxyyz      
    75      2.277936  1 Co gxzzz             79     -2.278416  1 Co gyzzz      
 
 Vector   74  Occ=0.000000D+00  E= 9.225904D+00
              MO Center=  1.2D-05,  8.7D-06, -6.5D-02, r^2= 5.0D-01
   Bfn.  Coefficient  Atom+Function         Bfn.  Coefficient  Atom+Function  
  ----- ------------  ---------------      ----- ------------  ---------------
    33      1.826154  1 Co dzz               69      1.820817  1 Co gxxyy      
    80     -1.794792  1 Co gzzzz             15     -1.360548  1 Co pz         
    29     -1.165966  1 Co dxy               67      1.156948  1 Co gxxxy      
    72      1.156929  1 Co gxyyy             74      1.121698  1 Co gxyzz      
    28     -0.911088  1 Co dxx               31     -0.910851  1 Co dyy        
 
 Vector   75  Occ=0.000000D+00  E= 9.915415D+00
              MO Center= -5.8D-07,  2.6D-07, -1.0D-01, r^2= 3.1D-01
   Bfn.  Coefficient  Atom+Function         Bfn.  Coefficient  Atom+Function  
  ----- ------------  ---------------      ----- ------------  ---------------
    74      5.817260  1 Co gxyzz             69      1.802792  1 Co gxxyy      
    67     -0.974376  1 Co gxxxy             72     -0.975502  1 Co gxyyy      
    71      0.634402  1 Co gxxzz             78      0.633166  1 Co gyyzz      
    66     -0.420437  1 Co gxxxx             76     -0.420230  1 Co gyyyy      
    80     -0.225061  1 Co gzzzz              5      0.025159  1 Co s          
 
 Vector   76  Occ=0.000000D+00  E= 9.925259D+00
              MO Center= -2.3D-07, -2.2D-07, -1.0D-01, r^2= 3.1D-01
   Bfn.  Coefficient  Atom+Function         Bfn.  Coefficient  Atom+Function  
  ----- ------------  ---------------      ----- ------------  ---------------
    70      2.910387  1 Co gxxyz             73      2.909755  1 Co gxyyz      
    75     -2.131346  1 Co gxzzz             79     -2.130930  1 Co gyzzz      
    68      1.177322  1 Co gxxxz             77      1.176693  1 Co gyyyz      
 
 Vector   77  Occ=0.000000D+00  E= 9.926610D+00
              MO Center= -7.5D-07,  6.0D-07, -1.0D-01, r^2= 3.1D-01
   Bfn.  Coefficient  Atom+Function         Bfn.  Coefficient  Atom+Function  
  ----- ------------  ---------------      ----- ------------  ---------------
    70      4.684444  1 Co gxxyz             73     -4.686768  1 Co gxyyz      
    75      1.108397  1 Co gxzzz             79     -1.108558  1 Co gyzzz      
    68      0.450919  1 Co gxxxz             77     -0.449984  1 Co gyyyz      
 
 Vector   78  Occ=0.000000D+00  E= 9.927317D+00
              MO Center= -8.0D-07,  5.2D-07, -1.0D-01, r^2= 3.1D-01
   Bfn.  Coefficient  Atom+Function         Bfn.  Coefficient  Atom+Function  
  ----- ------------  ---------------      ----- ------------  ---------------
    71      2.308894  1 Co gxxzz             78     -2.308918  1 Co gyyzz      
    67      2.144381  1 Co gxxxy             72     -2.144046  1 Co gxyyy      
    66     -0.386522  1 Co gxxxx             76      0.386970  1 Co gyyyy      
 
 Vector   79  Occ=0.000000D+00  E= 9.934155D+00
              MO Center= -5.1D-07,  2.0D-07, -1.0D-01, r^2= 3.1D-01
   Bfn.  Coefficient  Atom+Function         Bfn.  Coefficient  Atom+Function  
  ----- ------------  ---------------      ----- ------------  ---------------
    69      3.045536  1 Co gxxyy             71     -2.492651  1 Co gxxzz      
    78     -2.492527  1 Co gyyzz             80      0.844220  1 Co gzzzz      
    74     -0.447969  1 Co gxyzz             67      0.135371  1 Co gxxxy      
    72      0.134027  1 Co gxyyy             66     -0.100262  1 Co gxxxx      
    76     -0.100295  1 Co gyyyy             29     -0.049578  1 Co dxy        
 
 Vector   80  Occ=0.000000D+00  E= 9.935461D+00
              MO Center= -7.0D-07,  4.3D-07, -1.0D-01, r^2= 3.1D-01
   Bfn.  Coefficient  Atom+Function         Bfn.  Coefficient  Atom+Function  
  ----- ------------  ---------------      ----- ------------  ---------------
    70      3.709824  1 Co gxxyz             73      3.707067  1 Co gxyyz      
    68     -1.946842  1 Co gxxxz             77     -1.947616  1 Co gyyyz      
    75      0.612670  1 Co gxzzz             79      0.612545  1 Co gyzzz      
    30      0.041022  1 Co dxz               32      0.041013  1 Co dyz        
 
 Vector   81  Occ=0.000000D+00  E= 9.958096D+00
              MO Center= -4.8D-07,  2.5D-07, -1.0D-01, r^2= 3.1D-01
   Bfn.  Coefficient  Atom+Function         Bfn.  Coefficient  Atom+Function  
  ----- ------------  ---------------      ----- ------------  ---------------
    68      2.172821  1 Co gxxxz             77     -2.172665  1 Co gyyyz      
    75     -1.958134  1 Co gxzzz             79      1.958549  1 Co gyzzz      
    70      0.762417  1 Co gxxyz             73     -0.764107  1 Co gxyyz      
 
 Vector   82  Occ=0.000000D+00  E= 9.959399D+00
              MO Center= -7.0D-07,  4.0D-07, -1.0D-01, r^2= 3.1D-01
   Bfn.  Coefficient  Atom+Function         Bfn.  Coefficient  Atom+Function  
  ----- ------------  ---------------      ----- ------------  ---------------
    74      3.304363  1 Co gxyzz             69     -2.733669  1 Co gxxyy      
    71     -1.537328  1 Co gxxzz             78     -1.538257  1 Co gyyzz      
    66      0.722884  1 Co gxxxx             76      0.723038  1 Co gyyyy      
    67     -0.539720  1 Co gxxxy             72     -0.537786  1 Co gxyyy      
    80      0.490954  1 Co gzzzz      
 
 Vector   83  Occ=0.000000D+00  E= 9.959797D+00
              MO Center= -6.0D-07,  1.6D-07, -1.0D-01, r^2= 3.1D-01
   Bfn.  Coefficient  Atom+Function         Bfn.  Coefficient  Atom+Function  
  ----- ------------  ---------------      ----- ------------  ---------------
    71      2.415144  1 Co gxxzz             78     -2.415006  1 Co gyyzz      
    67     -2.037449  1 Co gxxxy             72      2.037852  1 Co gxyyy      
    66     -0.421518  1 Co gxxxx             76      0.421023  1 Co gyyyy      
 
[...]
  ----- ------------  ---------------      ----- ------------  ---------------
    68      2.129903  1 Co gxxxz             77     -2.129877  1 Co gyyyz      
    75     -2.047671  1 Co gxzzz             79      2.048047  1 Co gyzzz      
    70      0.242606  1 Co gxxyz             73     -0.243810  1 Co gxyyz      
 
 Vector   76  Occ=0.000000D+00  E= 1.001158D+01
              MO Center= -6.1D-07,  4.6D-07, -1.0D-01, r^2= 3.1D-01
   Bfn.  Coefficient  Atom+Function         Bfn.  Coefficient  Atom+Function  
  ----- ------------  ---------------      ----- ------------  ---------------
    74      3.342334  1 Co gxyzz             71     -2.127902  1 Co gxxzz      
    78     -2.129871  1 Co gyyzz             69     -1.680977  1 Co gxxyy      
    80      0.699272  1 Co gzzzz             66      0.639422  1 Co gxxxx      
    76      0.639754  1 Co gyyyy             67     -0.558443  1 Co gxxxy      
    72     -0.556114  1 Co gxyyy      
 
 Vector   77  Occ=0.000000D+00  E= 1.001254D+01
              MO Center= -5.2D-07,  1.1D-07, -1.0D-01, r^2= 3.1D-01
   Bfn.  Coefficient  Atom+Function         Bfn.  Coefficient  Atom+Function  
  ----- ------------  ---------------      ----- ------------  ---------------
    71      2.697739  1 Co gxxzz             78     -2.696586  1 Co gyyzz      
    67     -1.749926  1 Co gxxxy             72      1.750636  1 Co gxyyy      
    66     -0.457700  1 Co gxxxx             76      0.457030  1 Co gyyyy      
 
 Vector   78  Occ=0.000000D+00  E= 1.002333D+01
              MO Center= -4.4D-07,  1.1D-08, -1.0D-01, r^2= 3.1D-01
   Bfn.  Coefficient  Atom+Function         Bfn.  Coefficient  Atom+Function  
  ----- ------------  ---------------      ----- ------------  ---------------
    69      3.384827  1 Co gxxyy             74     -2.212299  1 Co gxyzz      
    71     -2.067299  1 Co gxxzz             78     -2.067934  1 Co gyyzz      
    80      0.684826  1 Co gzzzz             67      0.373025  1 Co gxxxy      
    72      0.370256  1 Co gxyyy             66     -0.217444  1 Co gxxxx      
    76     -0.217339  1 Co gyyyy      
 
 Vector   79  Occ=0.000000D+00  E= 1.002359D+01
              MO Center= -5.4D-07,  3.1D-07, -1.0D-01, r^2= 3.1D-01
   Bfn.  Coefficient  Atom+Function         Bfn.  Coefficient  Atom+Function  
  ----- ------------  ---------------      ----- ------------  ---------------
    68      2.237097  1 Co gxxxz             77      2.237578  1 Co gyyyz      
    70     -1.908732  1 Co gxxyz             73     -1.905759  1 Co gxyyz      
    75     -1.591380  1 Co gxzzz             79     -1.590872  1 Co gyzzz      
 
 Vector   80  Occ=0.000000D+00  E= 1.002598D+01
              MO Center= -6.6D-07,  4.6D-07, -1.0D-01, r^2= 3.1D-01
   Bfn.  Coefficient  Atom+Function         Bfn.  Coefficient  Atom+Function  
  ----- ------------  ---------------      ----- ------------  ---------------
    70      4.745911  1 Co gxxyz             73     -4.730971  1 Co gxyyz      
    79     -0.899031  1 Co gyzzz             75      0.892244  1 Co gxzzz      
    68      0.681722  1 Co gxxxz             77     -0.679855  1 Co gyyyz      
 
 Vector   81  Occ=0.000000D+00  E= 1.002616D+01
              MO Center= -3.2D-07, -1.4D-07, -1.0D-01, r^2= 3.1D-01
   Bfn.  Coefficient  Atom+Function         Bfn.  Coefficient  Atom+Function  
  ----- ------------  ---------------      ----- ------------  ---------------
    70      4.338322  1 Co gxxyz             73      4.355845  1 Co gxyyz      
    75     -1.562413  1 Co gxzzz             79     -1.558546  1 Co gyzzz      
    77      0.126473  1 Co gyyyz             68      0.124515  1 Co gxxxz      
 
 Vector   82  Occ=0.000000D+00  E= 1.002657D+01
              MO Center= -7.4D-07,  4.6D-07, -1.0D-01, r^2= 3.1D-01
   Bfn.  Coefficient  Atom+Function         Bfn.  Coefficient  Atom+Function  
  ----- ------------  ---------------      ----- ------------  ---------------
    67      2.384587  1 Co gxxxy             72     -2.384674  1 Co gxyyy      
    71      1.984790  1 Co gxxzz             78     -1.983815  1 Co gyyzz      
    66     -0.330815  1 Co gxxxx             76      0.331399  1 Co gyyyy      
 
 Vector   83  Occ=0.000000D+00  E= 1.003896D+01
              MO Center= -6.0D-07,  3.1D-07, -1.0D-01, r^2= 3.1D-01
   Bfn.  Coefficient  Atom+Function         Bfn.  Coefficient  Atom+Function  
  ----- ------------  ---------------      ----- ------------  ---------------
    74      5.374994  1 Co gxyzz             69      2.436653  1 Co gxxyy      
    67     -0.898641  1 Co gxxxy             72     -0.899624  1 Co gxyyy      
    66     -0.488190  1 Co gxxxx             76     -0.488027  1 Co gyyyy      
    71      0.467176  1 Co gxxzz             78      0.466208  1 Co gyyzz      
    80     -0.156492  1 Co gzzzz      
 
 Vector   84  Occ=0.000000D+00  E= 1.045221D+01
              MO Center=  1.0D-06, -4.6D-07, -1.0D-01, r^2= 2.1D-01
   Bfn.  Coefficient  Atom+Function         Bfn.  Coefficient  Atom+Function  
  ----- ------------  ---------------      ----- ------------  ---------------
    51      1.468858  1 Co fxzz              54     -1.469155  1 Co fyzz       
    46     -0.730508  1 Co fxxx              52      0.730355  1 Co fyyy       
    47     -0.723381  1 Co fxxy              49      0.724136  1 Co fxyy       
    61     -0.570729  1 Co fxzz              64      0.570845  1 Co fyzz       
    56      0.288262  1 Co fxxx              62     -0.288202  1 Co fyyy       
 
 Vector   85  Occ=0.000000D+00  E= 1.048815D+01
              MO Center=  1.0D-06, -4.4D-07, -1.0D-01, r^2= 2.1D-01
   Bfn.  Coefficient  Atom+Function         Bfn.  Coefficient  Atom+Function  
  ----- ------------  ---------------      ----- ------------  ---------------
    48      2.069266  1 Co fxxz              53     -2.069649  1 Co fyyz       
    58     -0.806711  1 Co fxxz              63      0.806859  1 Co fyyz       
 
 Vector   86  Occ=0.000000D+00  E= 1.048879D+01
              MO Center=  1.1D-06, -3.2D-07, -1.0D-01, r^2= 2.1D-01
   Bfn.  Coefficient  Atom+Function         Bfn.  Coefficient  Atom+Function  
  ----- ------------  ---------------      ----- ------------  ---------------
    47      1.823675  1 Co fxxy              49      1.822702  1 Co fxyy       
    51     -0.764713  1 Co fxzz              54     -0.764554  1 Co fyzz       
    57     -0.712296  1 Co fxxy              59     -0.711918  1 Co fxyy       
    46     -0.352888  1 Co fxxx              52     -0.353266  1 Co fyyy       
    61      0.296772  1 Co fxzz              64      0.296711  1 Co fyzz       
 
 Vector   87  Occ=0.000000D+00  E= 1.048952D+01
              MO Center=  8.8D-07, -5.3D-07, -1.0D-01, r^2= 2.2D-01
   Bfn.  Coefficient  Atom+Function         Bfn.  Coefficient  Atom+Function  
  ----- ------------  ---------------      ----- ------------  ---------------
    48      1.556753  1 Co fxxz              53      1.556438  1 Co fyyz       
    55     -1.037807  1 Co fzzz              50     -0.988375  1 Co fxyz       
    58     -0.603476  1 Co fxxz              63     -0.603354  1 Co fyyz       
    65      0.409018  1 Co fzzz              60      0.385364  1 Co fxyz       
 
 Vector   88  Occ=0.000000D+00  E= 1.051238D+01
              MO Center=  8.4D-07, -2.8D-07, -1.0D-01, r^2= 2.1D-01
   Bfn.  Coefficient  Atom+Function         Bfn.  Coefficient  Atom+Function  
  ----- ------------  ---------------      ----- ------------  ---------------
    51      1.685552  1 Co fxzz              54      1.685224  1 Co fyzz       
    46     -0.668466  1 Co fxxx              52     -0.668532  1 Co fyyy       
    61     -0.654383  1 Co fxzz              64     -0.654255  1 Co fyzz       
    47      0.318734  1 Co fxxy              49      0.318206  1 Co fxyy       
    56      0.263108  1 Co fxxx              62      0.263134  1 Co fyyy       
 
 Vector   89  Occ=0.000000D+00  E= 1.051301D+01
              MO Center=  1.2D-06, -7.9D-07, -1.0D-01, r^2= 2.1D-01
   Bfn.  Coefficient  Atom+Function         Bfn.  Coefficient  Atom+Function  
  ----- ------------  ---------------      ----- ------------  ---------------
    47      1.702600  1 Co fxxy              49     -1.703420  1 Co fxyy       
    51      1.127057  1 Co fxzz              54     -1.127269  1 Co fyzz       
    57     -0.663879  1 Co fxxy              59      0.664198  1 Co fxyy       
    61     -0.438781  1 Co fxzz              64      0.438863  1 Co fyzz       
    46      0.193324  1 Co fxxx              52     -0.192980  1 Co fyyy       
 
 Vector   90  Occ=0.000000D+00  E= 1.051323D+01
              MO Center=  8.9D-07, -2.3D-07, -1.0D-01, r^2= 2.1D-01
   Bfn.  Coefficient  Atom+Function         Bfn.  Coefficient  Atom+Function  
  ----- ------------  ---------------      ----- ------------  ---------------
    50      4.019174  1 Co fxyz              60     -1.566061  1 Co fxyz       
    48      0.382277  1 Co fxxz              53      0.381487  1 Co fyyz       
    55     -0.256122  1 Co fzzz              58     -0.148980  1 Co fxxz       
    63     -0.148672  1 Co fyyz              65      0.099985  1 Co fzzz       
 
 Vector   91  Occ=0.000000D+00  E= 2.275371D+01
              MO Center= -1.7D-08,  1.5D-08, -1.0D-01, r^2= 2.4D-01
   Bfn.  Coefficient  Atom+Function         Bfn.  Coefficient  Atom+Function  
  ----- ------------  ---------------      ----- ------------  ---------------
    13      4.247872  1 Co px                14     -4.250039  1 Co py         
    10      2.752725  1 Co px                11     -2.754129  1 Co py         
    56     -2.563451  1 Co fxxx              57      2.564808  1 Co fxxy       
    59     -2.563500  1 Co fxyy              61     -2.563592  1 Co fxzz       
    62      2.564759  1 Co fyyy              64      2.564900  1 Co fyzz       
 
 Vector   92  Occ=0.000000D+00  E= 2.275381D+01
              MO Center= -7.6D-09,  2.4D-09, -1.0D-01, r^2= 2.4D-01
   Bfn.  Coefficient  Atom+Function         Bfn.  Coefficient  Atom+Function  
  ----- ------------  ---------------      ----- ------------  ---------------
    13      4.251817  1 Co px                14      4.249649  1 Co py         
    10      2.753739  1 Co px                11      2.752334  1 Co py         
    56     -2.565695  1 Co fxxx              57     -2.564354  1 Co fxxy       
    59     -2.565662  1 Co fxyy              61     -2.565836  1 Co fxzz       
    62     -2.564387  1 Co fyyy              64     -2.564528  1 Co fyzz       
 
 Vector   93  Occ=0.000000D+00  E= 2.275612D+01
              MO Center= -6.1D-09,  4.1D-09, -1.0D-01, r^2= 2.4D-01
   Bfn.  Coefficient  Atom+Function         Bfn.  Coefficient  Atom+Function  
  ----- ------------  ---------------      ----- ------------  ---------------
    15      6.008548  1 Co pz                12      3.895175  1 Co pz         
    58     -3.629543  1 Co fxxz              63     -3.629543  1 Co fyyz       
    65     -3.630695  1 Co fzzz              48     -3.449123  1 Co fxxz       
    53     -3.449123  1 Co fyyz              55     -3.448320  1 Co fzzz       
     9     -0.871370  1 Co pz                21     -0.066038  1 Co pz         
 
 Vector   94  Occ=0.000000D+00  E= 6.072451D+01
              MO Center=  1.1D-08, -5.5D-09, -1.0D-01, r^2= 7.3D-02
   Bfn.  Coefficient  Atom+Function         Bfn.  Coefficient  Atom+Function  
  ----- ------------  ---------------      ----- ------------  ---------------
     3     30.473536  1 Co s                 22    -16.822492  1 Co dxx        
    25    -16.822492  1 Co dyy               27    -16.822536  1 Co dzz        
     4      6.709557  1 Co s                  2      6.200420  1 Co s          
    28     -1.502794  1 Co dxx               31     -1.502794  1 Co dyy        
    33     -1.503355  1 Co dzz                5     -0.750548  1 Co s          
 
 Vector   95  Occ=0.000000D+00  E= 1.774021D+02
              MO Center= -8.5D-11, -6.4D-11, -1.0D-01, r^2= 1.0D+00
   Bfn.  Coefficient  Atom+Function         Bfn.  Coefficient  Atom+Function  
  ----- ------------  ---------------      ----- ------------  ---------------
     4    117.284123  1 Co s                  3    -53.442766  1 Co s          
    28    -22.067037  1 Co dxx               31    -22.067037  1 Co dyy        
    33    -22.071729  1 Co dzz                2    -18.405053  1 Co s          
    69    -13.137268  1 Co gxxyy             71    -13.135602  1 Co gxxzz      
    78    -13.135602  1 Co gyyzz             66     -6.568687  1 Co gxxxx      
 

   alpha - beta orbital overlaps 
   ----------------------------- 


   alpha      1      2      3      4      5      6      7      8      9     10
    beta      1      2      3      4      5      6      9      7      8     15
 overlap   1.000  1.000  1.000  1.000  1.000  1.000  1.000  1.000  1.000  0.996


   alpha     11     12     13     14     15     16     17     18     19     20
    beta     16     14     12     11     13     10     18     17     19     20
 overlap   0.991  0.650  1.000  1.000  0.848  0.759  0.999  0.999  0.974  0.989


   alpha     21     22     23     24     25     26     27     28     29     30
    beta     23     21     24     22     25     26     27     29     28     30
 overlap   0.994  0.998  0.889  1.000  0.825  0.822  0.880  0.988  0.989  0.992


   alpha     31     32     33     34     35     36     37     38     39     40
    beta     32     31     33     35     34     37     36     38     39     40
 overlap   0.984  0.985  0.981  0.728  1.000  0.995  0.997  0.721  0.987  0.999


   alpha     41     42     43     44     45     46     47     48     49     50
    beta     41     42     43     44     50     51     49     48     46     47
 overlap   0.997  0.996  0.984  0.983  0.991  0.996  0.990  0.994  1.000  0.999


   alpha     51     52     53     54     55     56     57     58     59     60
    beta     45     56     52     53     60     54     59     55     57     58
 overlap   0.995  0.683  0.996  0.824  0.851  0.839  0.782  0.850  0.996  0.839


   alpha     61     62     63     64     65     66     67     68     69     70
    beta     61     63     62     64     65     66     73     74     67     68
 overlap   0.662  0.999  0.999  0.998  1.000  1.000  0.917  0.810  0.882  0.997


   alpha     71     72     73     74     75     76     77     78     79     80
    beta     70     69     71     72     83     81     80     82     78     79
 overlap   0.917  1.000  0.882  0.811  0.987  0.879  0.994  0.992  0.952  0.879


   alpha     81     82     83     84     85     86     87     88     89     90
    beta     75     76     77     90     88     89     86     85     87     84
 overlap   0.994  0.959  0.992  0.999  0.999  1.000  0.999  1.000  0.999  1.000


   alpha     91     92     93     94     95
    beta     92     91     93     94     95
 overlap   1.000  1.000  1.000  1.000  1.000

     --------------------------
     Expectation value of S2:  
     --------------------------
      <S2> =      2.6474 (Exact =     2.0000)
 

 center of mass
 --------------
 x =   0.00000000 y =   0.00000000 z =  -0.10289775

 moments of inertia (a.u.)
 ------------------
          29.368248015418           0.000000000000           0.000000000000
           0.000000000000          29.368248015418           0.000000000000
           0.000000000000           0.000000000000           0.000000000000
 
     Multipole analysis of the density
     ---------------------------------
 
     L   x y z        total         alpha         beta         nuclear
     -   - - -        -----         -----         ----         -------
     0   0 0 0     -0.000000    -15.000000    -13.000000     28.000000
 
     1   1 0 0      0.000021      0.000015      0.000006      0.000000
     1   0 1 0     -0.000011     -0.000010     -0.000002      0.000000
     1   0 0 1     -0.823022      1.873983     -2.697004      0.000000
 
     2   2 0 0    -12.029023     -7.526674     -4.502349      0.000000
     2   1 1 0     -0.149924     -0.009255     -0.140669      0.000000
     2   1 0 1     -0.000001     -0.000001      0.000001      0.000000
     2   0 2 0    -12.028947     -7.526671     -4.502276      0.000000
     2   0 1 1     -0.000000      0.000000     -0.000001      0.000000
     2   0 0 2    -14.343242    -12.336506    -30.586772     28.580037
 

 Parallel integral file used      39 records with       0 large values


 Task  times  cpu:      572.8s     wall:      584.0s
 
 
                                NWChem Input Module
                                -------------------
 
 
 Summary of allocated global arrays
-----------------------------------
  No active global arrays



                         GA Statistics for process    0
                         ------------------------------

       create   destroy   get      put      acc     scatter   gather  read&inc
calls: 2337     2337     2.22e+04 1.52e+04 5024        0        0       49     
number of processes/call 1.57e+00 1.12e+00 2.10e+00 0.00e+00 0.00e+00
bytes total:             4.87e+08 1.52e+08 2.04e+08 0.00e+00 0.00e+00 3.92e+02
bytes remote:            9.10e+07 1.08e+07 5.22e+07 0.00e+00 0.00e+00 0.00e+00
Max memory consumed for GA by this process: 3412000 bytes
 
MA_summarize_allocated_blocks: starting scan ...
MA_summarize_allocated_blocks: scan completed: 0 heap blocks, 0 stack blocks
MA usage statistics:

	allocation statistics:
					      heap	     stack
					      ----	     -----
	current number of blocks	         0	         0
	maximum number of blocks	        21	        51
	current total bytes		         0	         0
	maximum total bytes		  44043128	  32291704
	maximum total K-bytes		     44044	     32292
	maximum total M-bytes		        45	        33
 
 
                                     CITATION
                                     --------
                Please cite the following reference when publishing
                           results obtained with NWChem:
 
                 M. Valiev, E.J. Bylaska, N. Govind, K. Kowalski,
              T.P. Straatsma, H.J.J. van Dam, D. Wang, J. Nieplocha,
                        E. Apra, T.L. Windus, W.A. de Jong
                 "NWChem: a comprehensive and scalable open-source
                  solution for large scale molecular simulations"
                      Comput. Phys. Commun. 181, 1477 (2010)
                           doi:10.1016/j.cpc.2010.04.018
 
                                      AUTHORS
                                      -------
          E. Apra, E. J. Bylaska, W. A. de Jong, N. Govind, K. Kowalski,
       T. P. Straatsma, M. Valiev, H. J. J. van Dam, D. Wang, T. L. Windus,
        J. Hammond, J. Autschbach, K. Bhaskaran-Nair, J. Brabec, K. Lopata,
    S. A. Fischer, S. Krishnamoorthy, M. Jacquelin, W. Ma, M. Klemm, O. Villa,
      Y. Chen, V. Anisimov, F. Aquino, S. Hirata, M. T. Hackler, V. Konjkov,
            D. Mejia-Rodriguez, T. Risthaus, M. Malagoli, A. Marenich,
   A. Otero-de-la-Roza, J. Mullin, P. Nichols, R. Peverati, J. Pittner, Y. Zhao,
        P.-D. Fan, A. Fonari, M. J. Williamson, R. J. Harrison, J. R. Rehr,
      M. Dupuis, D. Silverstein, D. M. A. Smith, J. Nieplocha, V. Tipparaju,
    M. Krishnan, B. E. Van Kuiken, A. Vazquez-Mayagoitia, L. Jensen, M. Swart,
      Q. Wu, T. Van Voorhis, A. A. Auer, M. Nooijen, L. D. Crosby, E. Brown,
      G. Cisneros, G. I. Fann, H. Fruchtl, J. Garza, K. Hirao, R. A. Kendall,
      J. A. Nichols, K. Tsemekhman, K. Wolinski, J. Anchell, D. E. Bernholdt,
      P. Borowski, T. Clark, D. Clerc, H. Dachsel, M. J. O. Deegan, K. Dyall,
    D. Elwood, E. Glendening, M. Gutowski, A. C. Hess, J. Jaffe, B. G. Johnson,
     J. Ju, R. Kobayashi, R. Kutteh, Z. Lin, R. Littlefield, X. Long, B. Meng,
      T. Nakajima, S. Niu, L. Pollack, M. Rosing, K. Glaesemann, G. Sandrone,
      M. Stave, H. Taylor, G. Thomas, J. H. van Lenthe, A. T. Wong, Z. Zhang.

 Total times  cpu:      573.3s     wall:      584.4s
