 argument  1 = /home/kohn/work/DATASETS/NWCHEM/rabeet/tm10/nwtpss/CrF.nw
  NWChem w/ OpenMP: maximum threads =  1
                                         
                                         
 
 
              Northwest Computational Chemistry Package (NWChem) 6.8
              ------------------------------------------------------
 
 
                    Environmental Molecular Sciences Laboratory
                       Pacific Northwest National Laboratory
                                Richland, WA 99352
 
                              Copyright (c) 1994-2017
                       Pacific Northwest National Laboratory
                            Battelle Memorial Institute
 
             NWChem is an open-source computational chemistry package
                        distributed under the terms of the
                      Educational Community License (ECL) 2.0
             A copy of the license is included with this distribution
                              in the LICENSE.TXT file
 
                                  ACKNOWLEDGMENT
                                  --------------

            This software and its documentation were developed at the
            EMSL at Pacific Northwest National Laboratory, a multiprogram
            national laboratory, operated for the U.S. Department of Energy
            by Battelle under Contract Number DE-AC05-76RL01830. Support
            for this work was provided by the Department of Energy Office
            of Biological and Environmental Research, Office of Basic
            Energy Sciences, and the Office of Advanced Scientific Computing.


           Job information
           ---------------

    hostname        = kohn
    program         = nwchem
    date            = Thu Sep 27 15:28:02 2018

    compiled        = Wed_Sep_26_21:04:37_2018
    source          = /home/kohn/softwares/nwchem/nwchem-6.8
    nwchem branch   = 6.8
    nwchem revision = v6.8-47-gdf6c956
    ga revision     = ga-5.6.3
    use scalapack   = F
    input           = /home/kohn/work/DATASETS/NWCHEM/rabeet/tm10/nwtpss/CrF.nw
    prefix          = CrF.
    data base       = ./CrF.db
    status          = startup
    nproc           =        4
    time left       =     -1s



           Memory information
           ------------------

    heap     =   13107198 doubles =    100.0 Mbytes
    stack    =   13107195 doubles =    100.0 Mbytes
    global   =   26214400 doubles =    200.0 Mbytes (distinct from heap & stack)
    total    =   52428793 doubles =    400.0 Mbytes
    verify   = yes
    hardfail = no 


           Directory information
           ---------------------
 
  0 permanent = .
  0 scratch   = .
 
 
 
 
                                NWChem Input Module
                                -------------------
 
 

 Scaling coordinates for geometry "geometry" by  1.889725989
 (inverse scale =  0.529177249)


          ------
          auto-z
          ------
     1 autoz failed with cvr_scaling = 1.2 changing to 1.3
     2 autoz failed with cvr_scaling = 1.3 changing to 1.4
     3 autoz failed with cvr_scaling = 1.4 changing to 1.5
     4 autoz failed with cvr_scaling = 1.5 changing to 1.6
     5 autoz failed with cvr_scaling = 1.6 changing to 1.7

 AUTOZ failed to generate good internal coordinates.
 Cartesian coordinates will be used in optimizations.

 
 
                             Geometry "geometry" -> ""
                             -------------------------
 
 Output coordinates in angstroms (scale by  1.889725989 to convert to a.u.)
 
  No.       Tag          Charge          X              Y              Z
 ---- ---------------- ---------- -------------- -------------- --------------
    1 Cr                  24.0000     0.00000000     0.00000000    -0.92066455
    2 F                    9.0000     0.00000000     0.00000000     2.45510545
 
      Atomic Mass 
      ----------- 
 
      Cr                51.940500
      F                 18.998400
 

 Effective nuclear repulsion energy (a.u.)      33.8596189266

            Nuclear Dipole moment (a.u.) 
            ----------------------------
        X                 Y               Z
 ---------------- ---------------- ----------------
     0.0000000000     0.0000000000     0.0000000000
 
 
            XYZ format geometry
            -------------------
     2
 geometry
 Cr                    0.00000000     0.00000000    -0.92066455
 F                     0.00000000     0.00000000     2.45510545
 


 Summary of "ao basis" -> "" (cartesian)
 ------------------------------------------------------------------------------
       Tag                 Description            Shells   Functions and Types
 ---------------- ------------------------------  ------  ---------------------
 *                         def2-TZVPP                 on all atoms 


 
                                 NWChem DFT Module
                                 -----------------
 
 
                      Basis "ao basis" -> "ao basis" (cartesian)
                      -----
  Cr (Chromium)
  -------------
            Exponent  Coefficients 
       -------------- ---------------------------------------------------------
  1 S  2.54477807E+05  0.000234
  1 S  3.81317971E+04  0.001814
  1 S  8.67529306E+03  0.009436
  1 S  2.45500998E+03  0.038344
  1 S  7.99162178E+02  0.124592
  1 S  2.86900215E+02  0.294897
  1 S  1.11254132E+02  0.418461
  1 S  4.38641526E+01  0.216338
 
  2 S  2.79326692E+02 -0.023451
  2 S  8.62747324E+01 -0.110804
  2 S  1.35557561E+01  0.530290
  2 S  5.69781128E+00  0.516035
 
  3 S  8.56365826E+00 -0.381095
  3 S  1.39882968E+00  1.199159
 
  4 S  5.72881711E-01  1.000000
 
  5 S  9.00961713E-02  1.000000
 
  6 S  3.41258851E-02  1.000000
 
  7 P  1.30643989E+03  0.002428
  7 P  3.09253114E+02  0.019544
  7 P  9.89962740E+01  0.090652
  7 P  3.67569165E+01  0.256993
  7 P  1.45666571E+01  0.409355
  7 P  5.87399374E+00  0.237294
 
  8 P  2.28909997E+01 -0.028166
  8 P  3.08550018E+00  0.560341
  8 P  1.21323291E+00  0.981190
 
  9 P  4.49316807E-01  1.000000
 
 10 P  1.66400000E-01  1.000000
 
 11 P  6.16300000E-02  1.000000
 
 12 D  4.37200745E+01  0.013623
 12 D  1.23912427E+01  0.078935
 12 D  4.26394420E+00  0.238338
 12 D  1.55252218E+00  0.395269
 
 13 D  5.37619295E-01  1.000000
 
 14 D  1.64931731E-01  1.000000
 
 15 D  5.10000000E-02  1.000000
 
 16 F  2.34100000E+00  1.000000
 
 17 F  5.42000000E-01  1.000000
 
 18 G  1.38200000E+00  1.000000
 
  F (Fluorine)
  ------------
            Exponent  Coefficients 
       -------------- ---------------------------------------------------------
  1 S  3.54791004E+04  0.000215
  1 S  5.31847290E+03  0.001670
  1 S  1.21048110E+03  0.008673
  1 S  3.42855181E+02  0.035050
  1 S  1.12019432E+02  0.111653
  1 S  4.07147402E+01  0.259885
 
  2 S  1.60396781E+01  0.394230
  2 S  6.50381867E+00  0.249982
 
  3 S  1.54404775E+00  1.000000
 
  4 S  6.12234529E-01  1.000000
 
  5 S  2.40279797E-01  1.000000
 
  6 P  8.02339005E+01  0.006369
  6 P  1.85940107E+01  0.044303
  6 P  5.68679027E+00  0.168672
  6 P  1.95110063E+00  0.361663
 
  7 P  6.69702113E-01  1.000000
 
  8 P  2.16513004E-01  1.000000
 
  9 D  3.10700000E+00  1.000000
 
 10 D  8.55000000E-01  1.000000
 
 11 F  1.91700000E+00  1.000000
 


 Summary of "ao basis" -> "ao basis" (cartesian)
 ------------------------------------------------------------------------------
       Tag                 Description            Shells   Functions and Types
 ---------------- ------------------------------  ------  ---------------------
 Cr                        def2-TZVPP               18       80   6s5p4d2f1g
 F                         def2-TZVPP               11       36   5s3p2d1f




 Summary of "ao basis" -> "ao basis" (cartesian)
 ------------------------------------------------------------------------------
       Tag                 Description            Shells   Functions and Types
 ---------------- ------------------------------  ------  ---------------------
 Cr                        def2-TZVPP               18       80   6s5p4d2f1g
 F                         def2-TZVPP               11       36   5s3p2d1f


  Caching 1-el integrals 
 
            General Information
            -------------------
          SCF calculation type: DFT
          Wavefunction type:  spin polarized.
          No. of atoms     :     2
          No. of electrons :    33
           Alpha electrons :    19
            Beta electrons :    14
          Charge           :     0
          Spin multiplicity:     6
          Use of symmetry is: off; symmetry adaption is: off
          Maximum number of iterations: ***
          AO basis - number of functions:   116
                     number of shells:    29
          Convergence on energy requested:  1.00D-06
          Convergence on density requested:  1.00D-05
          Convergence on gradient requested:  5.00D-04
 
              XC Information
              --------------
                  TPSS metaGGA Exchange Functional  1.000          
             TPSS03 metaGGA Correlation Functional  1.000          
 
             Grid Information
             ----------------
          Grid used for XC integration:  medium    
          Radial quadrature: Mura-Knowles        
          Angular quadrature: Lebedev. 
          Tag              B.-S. Rad. Rad. Pts. Rad. Cut. Ang. Pts.
          ---              ---------- --------- --------- ---------
          Cr                  1.40      112           8.0       590
          F                   0.50       49          11.0       434
          Grid pruning is: on 
          Number of quadrature shells:   161
          Spatial weights used:  Erf1
 
          Convergence Information
          -----------------------
          Convergence aids based upon iterative change in 
          total energy or number of iterations. 
          Levelshifting, if invoked, occurs when the 
          HOMO/LUMO gap drops below (HL_TOL):  1.00D-02
          DIIS, if invoked, will attempt to extrapolate 
          using up to (NFOCK): 10 stored Fock matrices.

                    Damping( 0%)  Levelshifting(0.5)       DIIS
                  --------------- ------------------- ---------------
          dE  on:    start            ASAP                start   
          dE off:    2 iters        *** iters           *** iters 

 
      Screening Tolerance Information
      -------------------------------
          Density screening/tol_rho:  1.00D-10
          AO Gaussian exp screening on grid/accAOfunc:  14
          CD Gaussian exp screening on grid/accCDfunc:  20
          XC Gaussian exp screening on grid/accXCfunc:  20
          Schwarz screening/accCoul:  1.00D-08

 
      Superposition of Atomic Density Guess
      -------------------------------------
 
 Sum of atomic energies:       -1142.59322644
 
      Non-variational initial energy
      ------------------------------

 Total energy =   -1141.347485
 1-e energy   =   -1641.578799
 2-e energy   =     466.371695
 HOMO         =      -0.087925
 LUMO         =      -0.087864
 
   Time after variat. SCF:      5.8
   Time prior to 1st pass:      5.8

 Integral file          = ./CrF.aoints.0
 Record size in doubles =    65536    No. of integs per rec  =    43688
 Max. records in memory =      180    Max. records in file   =  1479062
 No. of bits per label  =        8    No. of bits per value  =       64


 #quartets = 6.697D+04 #integrals = 2.895D+06 #direct =  0.0% #cached =100.0%


File balance: exchanges=     3  moved=     7  time=   0.0


 Grid_pts file          = ./CrF.gridpts.0
 Record size in doubles =  12289        No. of grid_pts per rec  =   3070
 Max. records in memory =     10        Max. recs in file   =   7887692


           Memory utilization after 1st SCF pass: 
           Heap Space remaining (MW):        1.18             1176710
          Stack Space remaining (MW):       13.11            13106156

   convergence    iter        energy       DeltaE   RMS-Dens  Diis-err    time
 ---------------- ----- ----------------- --------- --------- ---------  ------
 d= 0,ls=0.0,diis     1  -1143.9241951665 -1.18D+03  3.12D-02  1.03D+00    12.9
                                                     3.40D-02  4.69D-01
 d= 0,ls=0.5,diis     2  -1118.3771081149  2.55D+01  7.16D-03  3.49D+01    19.1
                                                     1.91D-02  2.37D+01
 d= 0,ls=0.5,diis     3  -1128.3625864370 -9.99D+00  4.81D-03  1.63D+01    24.1
                                                     2.41D-03  1.10D+01
 d= 0,ls=0.5,diis     4  -1129.4631460055 -1.10D+00  5.04D-03  1.47D+01    29.5
                                                     1.49D-03  9.27D+00
 d= 0,ls=0.5,diis     5  -1131.0587158744 -1.60D+00  5.69D-03  2.09D+01    34.7
                                                     1.97D-03  9.32D+00
 d= 0,ls=0.5,diis     6  -1134.3182727629 -3.26D+00  4.58D-03  2.58D+01    38.7
                                                     2.71D-03  1.12D+01
 d= 0,ls=0.5,diis     7  -1137.3282784110 -3.01D+00  3.77D-03  1.91D+01    43.2
                                                     4.04D-03  1.33D+01
 d= 0,ls=0.5,diis     8  -1139.9919941590 -2.66D+00  3.11D-03  1.11D+01    50.0
                                                     6.71D-03  1.31D+01
 d= 0,ls=0.5,diis     9  -1142.5462752734 -2.55D+00  2.87D-03  4.05D+00    56.1
                                                     7.22D-03  6.80D+00
 d= 0,ls=0.5,diis    10  -1143.9473153971 -1.40D+00  1.58D-03  5.25D-01    62.1
                                                     4.12D-03  9.63D-01
 d= 0,ls=0.5,diis    11  -1144.2227560054 -2.75D-01  9.38D-04  3.10D-02    67.3
                                                     2.57D-03  9.14D-02
  Resetting Diis
 d= 0,ls=0.5,diis    12  -1144.2688960928 -4.61D-02  7.04D-04  2.17D-02    72.5
                                                     1.63D-03  1.30D-02
 d= 0,ls=0.5,diis    13  -1144.2609704431  7.93D-03  4.56D-03  8.09D-02    76.6
                                                     2.29D-03  4.41D-02
 d= 0,ls=0.5,diis    14  -1144.2497132317  1.13D-02  1.70D-03  1.60D-01    81.9
                                                     8.57D-04  1.47D-01
 d= 0,ls=0.5,diis    15  -1144.2731494974 -2.34D-02  7.25D-04  4.66D-02    86.2
                                                     7.03D-04  5.08D-02
 d= 0,ls=0.5,diis    16  -1144.2863089109 -1.32D-02  4.51D-04  1.47D-02    91.0
                                                     7.53D-04  1.85D-02
 d= 0,ls=0.5,diis    17  -1144.2937512357 -7.44D-03  2.00D-04  2.66D-03    96.1
                                                     6.75D-04  5.54D-03
 d= 0,ls=0.5,diis    18  -1144.2972407896 -3.49D-03  1.75D-04  3.38D-04   102.1
                                                     4.85D-04  1.39D-03
 d= 0,ls=0.5,diis    19  -1144.2988950053 -1.65D-03  2.25D-04  1.04D-04   108.8
                                                     3.70D-04  5.99D-04
 d= 0,ls=0.5,diis    20  -1144.2999253073 -1.03D-03  1.64D-04  1.08D-04   113.5
                                                     2.88D-04  3.94D-04
 d= 0,ls=0.5,diis    21  -1144.3005823053 -6.57D-04  1.05D-04  1.11D-04   119.1
                                                     2.30D-04  2.63D-04
 d= 0,ls=0.5,diis    22  -1144.3009708809 -3.89D-04  8.17D-05  1.66D-04   123.5
                                                     1.82D-04  2.32D-04
 d= 0,ls=0.5,diis    23  -1144.3011826931 -2.12D-04  7.01D-05  2.72D-04   129.4
                                                     1.33D-04  2.69D-04
 d= 0,ls=0.5,diis    24  -1144.3013242942 -1.42D-04  6.59D-05  3.09D-04   133.7
                                                     9.71D-05  2.60D-04
 d= 0,ls=0.5,diis    25  -1144.3014086957 -8.44D-05  5.67D-05  3.42D-04   139.6
                                                     6.70D-05  2.51D-04
 d= 0,ls=0.5,diis    26  -1144.3015047386 -9.60D-05  6.13D-05  2.65D-04   144.9
                                                     5.08D-05  1.71D-04
 d= 0,ls=0.5,diis    27  -1144.3015773759 -7.26D-05  3.96D-05  2.02D-04   151.3
                                                     4.22D-05  1.18D-04
 d= 0,ls=0.5,diis    28  -1144.3016103946 -3.30D-05  3.47D-05  1.94D-04   158.2
                                                     3.24D-05  1.18D-04
 d= 0,ls=0.5,diis    29  -1144.3016416384 -3.12D-05  3.47D-05  1.63D-04   163.7
                                                     2.36D-05  1.01D-04
 d= 0,ls=0.5,diis    30  -1144.3016721842 -3.05D-05  2.47D-05  1.25D-04   169.7
                                                     2.07D-05  7.63D-05
 d= 0,ls=0.5,diis    31  -1144.3016870552 -1.49D-05  1.97D-05  1.15D-04   173.4
                                                     1.84D-05  7.26D-05
 d= 0,ls=0.5,diis    32  -1144.3016952184 -8.16D-06  1.87D-05  1.13D-04   180.5
                                                     1.36D-05  7.42D-05
 d= 0,ls=0.5,diis    33  -1144.3017043911 -9.17D-06  1.90D-05  1.05D-04   186.4
                                                     1.00D-05  6.77D-05
 d= 0,ls=0.5,diis    34  -1144.3017169739 -1.26D-05  1.86D-05  8.24D-05   191.9
                                                     7.60D-06  5.58D-05
 d= 0,ls=0.5,diis    35  -1144.3017275887 -1.06D-05  1.48D-05  6.60D-05   197.2
                                                     7.67D-06  4.59D-05
 d= 0,ls=0.5,diis    36  -1144.3017344375 -6.85D-06  1.43D-05  5.74D-05   202.6
                                                     5.75D-06  4.25D-05
 d= 0,ls=0.5,diis    37  -1144.3017406668 -6.23D-06  1.22D-05  4.89D-05   207.6
                                                     5.06D-06  3.68D-05
 d= 0,ls=0.5,diis    38  -1144.3017435515 -2.88D-06  1.05D-05  4.73D-05   212.6
                                                     3.66D-06  3.48D-05
 d= 0,ls=0.5,diis    39  -1144.3017469603 -3.41D-06  8.12D-06  4.31D-05   218.4
                                                     3.02D-06  3.10D-05
 d= 0,ls=0.5,diis    40  -1144.3017497385 -2.78D-06  7.65D-06  3.93D-05   224.3
                                                     2.23D-06  2.86D-05
 d= 0,ls=0.5,diis    41  -1144.3017524921 -2.75D-06  5.93D-06  3.51D-05   229.9
                                                     3.84D-06  2.57D-05
 d= 0,ls=0.5,diis    42  -1144.3017540028 -1.51D-06  6.32D-06  3.28D-05   234.6
                                                     2.20D-06  2.48D-05
 d= 0,ls=0.5,diis    43  -1144.3017561727 -2.17D-06  6.27D-06  2.91D-05   241.4
                                                     1.26D-06  2.20D-05
 d= 0,ls=0.5,diis    44  -1144.3017581353 -1.96D-06  6.58D-06  2.59D-05   248.1
                                                     6.76D-07  1.96D-05
 d= 0,ls=0.5,diis    45  -1144.3017600730 -1.94D-06  7.09D-06  2.25D-05   254.5
                                                     5.83D-07  1.72D-05
 d= 0,ls=0.5,diis    46  -1144.3017619678 -1.89D-06  7.29D-06  1.94D-05   260.0
                                                     8.95D-07  1.47D-05
 d= 0,ls=0.5,diis    47  -1144.3017637385 -1.77D-06  7.46D-06  1.65D-05   265.4
                                                     1.47D-06  1.25D-05
 d= 0,ls=0.5,diis    48  -1144.3017653577 -1.62D-06  8.86D-06  1.40D-05   269.9
                                                     2.28D-06  1.03D-05
 d= 0,ls=0.5,diis    49  -1144.3017671638 -1.81D-06  6.02D-06  1.10D-05   276.0
                                                     9.90D-07  7.51D-06
 d= 0,ls=0.5,diis    50  -1144.3017684059 -1.24D-06  5.76D-06  8.91D-06   280.0
                                                     6.23D-07  6.08D-06
 d= 0,ls=0.5,diis    51  -1144.3017694907 -1.08D-06  5.96D-06  7.21D-06   287.2
                                                     6.11D-07  4.93D-06
 d= 0,ls=0.5,diis    52  -1144.3017705094 -1.02D-06  5.91D-06  5.54D-06   292.7
                                                     4.98D-07  3.74D-06
 d= 0,ls=0.5,diis    53  -1144.3017713588 -8.49D-07  4.19D-06  4.18D-06   298.2
                                                     7.02D-07  2.76D-06


         Total DFT energy =    -1144.301771735561
      One electron energy =    -1645.680881791641
           Coulomb energy =      526.747661389322
          Exchange energy =      -57.931409684438
       Correlation energy =       -1.296760575430
 Nuclear repulsion energy =       33.859618926626

 Numeric. integr. density =       33.000000732860

     Total iterative time =    294.0s


 
                    DFT Final Alpha Molecular Orbital Analysis
                    ------------------------------------------
 
 Vector    1  Occ=1.000000D+00  E=-2.149255D+02
              MO Center= -6.1D-12, -6.4D-12, -9.2D-01, r^2= 1.5D-03
   Bfn.  Coefficient  Atom+Function         Bfn.  Coefficient  Atom+Function  
  ----- ------------  ---------------      ----- ------------  ---------------
     1      0.997455  1 Cr s                  4      0.027358  1 Cr s          
 
 Vector    2  Occ=1.000000D+00  E=-2.432619D+01
              MO Center= -1.0D-08, -1.1D-08, -9.2D-01, r^2= 2.9D-02
   Bfn.  Coefficient  Atom+Function         Bfn.  Coefficient  Atom+Function  
  ----- ------------  ---------------      ----- ------------  ---------------
     2      1.037607  1 Cr s                  1     -0.309361  1 Cr s          
     3      0.054907  1 Cr s                  4     -0.049218  1 Cr s          
 
 Vector    3  Occ=1.000000D+00  E=-2.426239D+01
              MO Center= -1.6D-10, -1.7D-10,  2.5D+00, r^2= 1.2D-02
   Bfn.  Coefficient  Atom+Function         Bfn.  Coefficient  Atom+Function  
  ----- ------------  ---------------      ----- ------------  ---------------
    82      0.648254  2 F  s                 81      0.426023  2 F  s          
    84     -0.085613  2 F  s                 83      0.068354  2 F  s          
 
 Vector    4  Occ=1.000000D+00  E=-2.062946D+01
              MO Center=  9.2D-09,  9.0D-09, -9.2D-01, r^2= 2.3D-02
   Bfn.  Coefficient  Atom+Function         Bfn.  Coefficient  Atom+Function  
  ----- ------------  ---------------      ----- ------------  ---------------
     7      0.708624  1 Cr px                 8      0.689902  1 Cr py         
    10      0.025325  1 Cr px         
 
 Vector    5  Occ=1.000000D+00  E=-2.062946D+01
              MO Center= -9.9D-10, -3.1D-10, -9.2D-01, r^2= 2.3D-02
   Bfn.  Coefficient  Atom+Function         Bfn.  Coefficient  Atom+Function  
  ----- ------------  ---------------      ----- ------------  ---------------
     8     -0.708624  1 Cr py                 7      0.689902  1 Cr px         
    11     -0.025325  1 Cr py         
 
 Vector    6  Occ=1.000000D+00  E=-2.062848D+01
              MO Center= -5.4D-10, -5.7D-10, -9.2D-01, r^2= 2.3D-02
   Bfn.  Coefficient  Atom+Function         Bfn.  Coefficient  Atom+Function  
  ----- ------------  ---------------      ----- ------------  ---------------
     9      0.989000  1 Cr pz                12      0.035319  1 Cr pz         
    15     -0.029582  1 Cr pz         
 
 Vector    7  Occ=1.000000D+00  E=-2.803329D+00
              MO Center= -2.2D-07, -2.3D-07, -9.2D-01, r^2= 2.7D-01
   Bfn.  Coefficient  Atom+Function         Bfn.  Coefficient  Atom+Function  
  ----- ------------  ---------------      ----- ------------  ---------------
     3      0.578522  1 Cr s                  2     -0.457535  1 Cr s          
     4      0.441662  1 Cr s                  1      0.114905  1 Cr s          
    27      0.043872  1 Cr dzz               22      0.042413  1 Cr dxx        
    25      0.042413  1 Cr dyy                5     -0.033547  1 Cr s          
     6     -0.026394  1 Cr s          
 
 Vector    8  Occ=1.000000D+00  E=-1.781299D+00
              MO Center= -7.9D-08, -8.2D-08, -9.2D-01, r^2= 3.1D-01
   Bfn.  Coefficient  Atom+Function         Bfn.  Coefficient  Atom+Function  
  ----- ------------  ---------------      ----- ------------  ---------------
    12      0.883334  1 Cr pz                 9     -0.370159  1 Cr pz         
    15      0.259887  1 Cr pz         
 
 Vector    9  Occ=1.000000D+00  E=-1.777702D+00
              MO Center=  1.2D-07,  1.1D-07, -9.2D-01, r^2= 3.1D-01
   Bfn.  Coefficient  Atom+Function         Bfn.  Coefficient  Atom+Function  
  ----- ------------  ---------------      ----- ------------  ---------------
    10      0.633345  1 Cr px                11      0.615177  1 Cr py         
     7     -0.265318  1 Cr px                 8     -0.257707  1 Cr py         
    13      0.185037  1 Cr px                14      0.179729  1 Cr py         
 
 Vector   10  Occ=1.000000D+00  E=-1.777702D+00
              MO Center= -8.6D-08, -7.5D-08, -9.2D-01, r^2= 3.1D-01
   Bfn.  Coefficient  Atom+Function         Bfn.  Coefficient  Atom+Function  
  ----- ------------  ---------------      ----- ------------  ---------------
    11     -0.633345  1 Cr py                10      0.615177  1 Cr px         
     8      0.265318  1 Cr py                 7     -0.257707  1 Cr px         
    14     -0.185037  1 Cr py                13      0.179729  1 Cr px         
 
 Vector   11  Occ=1.000000D+00  E=-8.998170D-01
              MO Center= -6.8D-08, -7.2D-08,  2.4D+00, r^2= 3.6D-01
   Bfn.  Coefficient  Atom+Function         Bfn.  Coefficient  Atom+Function  
  ----- ------------  ---------------      ----- ------------  ---------------
    83      0.417258  2 F  s                 84      0.404575  2 F  s          
    82     -0.257923  2 F  s                 85      0.256242  2 F  s          
    81     -0.107100  2 F  s                101      0.027981  2 F  dxx        
   104      0.027981  2 F  dyy              106      0.026975  2 F  dzz        
 
 Vector   12  Occ=1.000000D+00  E=-2.089054D-01
              MO Center=  1.2D-08,  1.2D-08,  7.9D-01, r^2= 3.5D+00
   Bfn.  Coefficient  Atom+Function         Bfn.  Coefficient  Atom+Function  
  ----- ------------  ---------------      ----- ------------  ---------------
    26      0.540215  1 Cr dyz               24      0.518168  1 Cr dxz        
    32      0.357179  1 Cr dyz               30      0.342602  1 Cr dxz        
    87      0.256360  2 F  py                86      0.245897  2 F  px         
    38      0.209042  1 Cr dyz               90      0.203413  2 F  py         
    36      0.200511  1 Cr dxz               89      0.195112  2 F  px         
 
 Vector   13  Occ=1.000000D+00  E=-2.089054D-01
              MO Center= -1.1D-08, -1.1D-08,  7.9D-01, r^2= 3.5D+00
   Bfn.  Coefficient  Atom+Function         Bfn.  Coefficient  Atom+Function  
  ----- ------------  ---------------      ----- ------------  ---------------
    24      0.540215  1 Cr dxz               26     -0.518168  1 Cr dyz        
    30      0.357179  1 Cr dxz               32     -0.342602  1 Cr dyz        
    86      0.256360  2 F  px                87     -0.245897  2 F  py         
    36      0.209042  1 Cr dxz               89      0.203413  2 F  px         
    38     -0.200511  1 Cr dyz               90     -0.195112  2 F  py         
 
 Vector   14  Occ=1.000000D+00  E=-2.058237D-01
              MO Center=  1.7D-07,  1.8D-07,  6.0D-01, r^2= 3.7D+00
   Bfn.  Coefficient  Atom+Function         Bfn.  Coefficient  Atom+Function  
  ----- ------------  ---------------      ----- ------------  ---------------
     5      0.535089  1 Cr s                 27      0.397822  1 Cr dzz        
     6     -0.319984  1 Cr s                 88     -0.319587  2 F  pz         
    33      0.264254  1 Cr dzz               91     -0.259000  2 F  pz         
    22     -0.208106  1 Cr dxx               25     -0.208106  1 Cr dyy        
    94     -0.208770  2 F  pz                39      0.157559  1 Cr dzz        
 
 Vector   15  Occ=1.000000D+00  E=-2.045261D-01
              MO Center=  1.1D-07,  1.2D-07, -9.2D-01, r^2= 7.6D-01
   Bfn.  Coefficient  Atom+Function         Bfn.  Coefficient  Atom+Function  
  ----- ------------  ---------------      ----- ------------  ---------------
    22      0.537664  1 Cr dxx               25     -0.537664  1 Cr dyy        
    28      0.355214  1 Cr dxx               31     -0.355214  1 Cr dyy        
    34      0.217860  1 Cr dxx               37     -0.217860  1 Cr dyy        
    40      0.032259  1 Cr dxx               43     -0.032259  1 Cr dyy        
 
 Vector   16  Occ=1.000000D+00  E=-2.045261D-01
              MO Center=  1.1D-07,  1.2D-07, -9.2D-01, r^2= 7.6D-01
   Bfn.  Coefficient  Atom+Function         Bfn.  Coefficient  Atom+Function  
  ----- ------------  ---------------      ----- ------------  ---------------
    23      1.075328  1 Cr dxy               29      0.710421  1 Cr dxy        
    35      0.435732  1 Cr dxy               41      0.064504  1 Cr dxy        
    67     -0.025084  1 Cr gxxxy             72     -0.025084  1 Cr gxyyy      
 
 Vector   17  Occ=1.000000D+00  E=-2.040257D-01
              MO Center= -4.7D-07, -4.9D-07,  7.0D-01, r^2= 3.5D+00
   Bfn.  Coefficient  Atom+Function         Bfn.  Coefficient  Atom+Function  
  ----- ------------  ---------------      ----- ------------  ---------------
    26      0.562549  1 Cr dyz               24      0.541897  1 Cr dxz        
    32      0.368357  1 Cr dyz               30      0.354835  1 Cr dxz        
    87     -0.253543  2 F  py                86     -0.244235  2 F  px         
    38      0.221038  1 Cr dyz               36      0.212924  1 Cr dxz        
    90     -0.199440  2 F  py                89     -0.192118  2 F  px         
 
 Vector   18  Occ=1.000000D+00  E=-2.040257D-01
              MO Center=  4.3D-09,  1.0D-10,  7.0D-01, r^2= 3.5D+00
   Bfn.  Coefficient  Atom+Function         Bfn.  Coefficient  Atom+Function  
  ----- ------------  ---------------      ----- ------------  ---------------
    24      0.562549  1 Cr dxz               26     -0.541897  1 Cr dyz        
    30      0.368357  1 Cr dxz               32     -0.354835  1 Cr dyz        
    86     -0.253543  2 F  px                87      0.244235  2 F  py         
    36      0.221038  1 Cr dxz               38     -0.212924  1 Cr dyz        
    89     -0.199440  2 F  px                90      0.192118  2 F  py         
 
 Vector   19  Occ=1.000000D+00  E=-2.028644D-01
              MO Center=  2.1D-06,  2.2D-06, -6.0D-01, r^2= 2.9D+00
   Bfn.  Coefficient  Atom+Function         Bfn.  Coefficient  Atom+Function  
  ----- ------------  ---------------      ----- ------------  ---------------
     5      0.875064  1 Cr s                 27     -0.428943  1 Cr dzz        
     6     -0.344843  1 Cr s                 33     -0.261280  1 Cr dzz        
     4     -0.238347  1 Cr s                 22      0.203429  1 Cr dxx        
    25      0.203429  1 Cr dyy               39     -0.174670  1 Cr dzz        
    28      0.154122  1 Cr dxx               31      0.154122  1 Cr dyy        
 
 Vector   20  Occ=0.000000D+00  E=-1.791142D-01
              MO Center= -4.2D-07, -4.4D-07,  1.9D-01, r^2= 5.5D+00
   Bfn.  Coefficient  Atom+Function         Bfn.  Coefficient  Atom+Function  
  ----- ------------  ---------------      ----- ------------  ---------------
     5      0.592104  1 Cr s                 88      0.329225  2 F  pz         
    91      0.260722  2 F  pz                 4     -0.226694  1 Cr s          
    94      0.224235  2 F  pz                27      0.217874  1 Cr dzz        
    33      0.170982  1 Cr dzz               21     -0.156335  1 Cr pz         
     3     -0.135500  1 Cr s                  6      0.126291  1 Cr s          
 
 Vector   21  Occ=0.000000D+00  E=-5.910017D-02
              MO Center= -1.6D-06, -1.6D-06, -1.1D+00, r^2= 5.0D+00
   Bfn.  Coefficient  Atom+Function         Bfn.  Coefficient  Atom+Function  
  ----- ------------  ---------------      ----- ------------  ---------------
    19      0.609040  1 Cr px                20      0.593704  1 Cr py         
    10     -0.160027  1 Cr px                11     -0.155998  1 Cr py         
    16      0.132238  1 Cr px                17      0.128908  1 Cr py         
    42     -0.121309  1 Cr dxz               44     -0.118254  1 Cr dyz        
    24      0.060091  1 Cr dxz               13     -0.059619  1 Cr px         
 
 Vector   22  Occ=0.000000D+00  E=-5.910017D-02
              MO Center= -3.4D-07, -4.4D-07, -1.1D+00, r^2= 5.0D+00
   Bfn.  Coefficient  Atom+Function         Bfn.  Coefficient  Atom+Function  
  ----- ------------  ---------------      ----- ------------  ---------------
    20     -0.609040  1 Cr py                19      0.593704  1 Cr px         
    11      0.160027  1 Cr py                10     -0.155998  1 Cr px         
    17     -0.132238  1 Cr py                16      0.128908  1 Cr px         
    44      0.121309  1 Cr dyz               42     -0.118254  1 Cr dxz        
    26     -0.060091  1 Cr dyz               14      0.059619  1 Cr py         
 
 Vector   23  Occ=0.000000D+00  E=-3.674688D-02
              MO Center= -2.9D-07, -3.1D-07, -1.1D+00, r^2= 5.3D+00
   Bfn.  Coefficient  Atom+Function         Bfn.  Coefficient  Atom+Function  
  ----- ------------  ---------------      ----- ------------  ---------------
    21      0.853681  1 Cr pz                 5      0.582297  1 Cr s          
     6     -0.375503  1 Cr s                 12     -0.211780  1 Cr pz         
    18      0.142532  1 Cr pz                40      0.135736  1 Cr dxx        
    43      0.135736  1 Cr dyy               45     -0.128759  1 Cr dzz        
     4     -0.116835  1 Cr s                 88      0.105866  2 F  pz         
 
 Vector   24  Occ=0.000000D+00  E= 3.725265D-02
              MO Center= -1.0D-06, -1.0D-06, -1.0D+00, r^2= 1.3D+01
   Bfn.  Coefficient  Atom+Function         Bfn.  Coefficient  Atom+Function  
  ----- ------------  ---------------      ----- ------------  ---------------
     6      8.702632  1 Cr s                  5     -7.369722  1 Cr s          
    45     -2.031351  1 Cr dzz               40     -1.714549  1 Cr dxx        
    43     -1.714549  1 Cr dyy                4      0.737147  1 Cr s          
    39      0.588552  1 Cr dzz               34      0.548153  1 Cr dxx        
    37      0.548153  1 Cr dyy               33      0.298223  1 Cr dzz        
 
 Vector   25  Occ=0.000000D+00  E= 7.039533D-02
              MO Center=  1.1D-07,  1.1D-07, -9.2D-01, r^2= 9.8D+00
   Bfn.  Coefficient  Atom+Function         Bfn.  Coefficient  Atom+Function  
  ----- ------------  ---------------      ----- ------------  ---------------
    40      0.893039  1 Cr dxx               43     -0.893039  1 Cr dyy        
    22     -0.145006  1 Cr dxx               25      0.145006  1 Cr dyy        
    34     -0.076102  1 Cr dxx               37      0.076102  1 Cr dyy        
    28     -0.054564  1 Cr dxx               31      0.054564  1 Cr dyy        
 
 Vector   26  Occ=0.000000D+00  E= 7.040123D-02
              MO Center=  1.1D-07,  1.1D-07, -9.2D-01, r^2= 9.8D+00
   Bfn.  Coefficient  Atom+Function         Bfn.  Coefficient  Atom+Function  
  ----- ------------  ---------------      ----- ------------  ---------------
    41      1.786091  1 Cr dxy               23     -0.290002  1 Cr dxy        
    35     -0.152227  1 Cr dxy               29     -0.109107  1 Cr dxy        
 
 Vector   27  Occ=0.000000D+00  E= 8.220849D-02
              MO Center=  2.5D-08,  2.6D-08, -9.1D-01, r^2= 9.7D+00
   Bfn.  Coefficient  Atom+Function         Bfn.  Coefficient  Atom+Function  
  ----- ------------  ---------------      ----- ------------  ---------------
    44      1.283898  1 Cr dyz               42      1.264564  1 Cr dxz        
    26     -0.194127  1 Cr dyz               24     -0.191204  1 Cr dxz        
    17      0.121914  1 Cr py                16      0.120078  1 Cr px         
    38     -0.114105  1 Cr dyz               36     -0.112387  1 Cr dxz        
    32     -0.065402  1 Cr dyz               93     -0.065379  2 F  py         
 
 Vector   28  Occ=0.000000D+00  E= 8.220849D-02
              MO Center=  9.9D-09,  1.1D-08, -9.1D-01, r^2= 9.7D+00
   Bfn.  Coefficient  Atom+Function         Bfn.  Coefficient  Atom+Function  
  ----- ------------  ---------------      ----- ------------  ---------------
    42      1.283898  1 Cr dxz               44     -1.264564  1 Cr dyz        
    24     -0.194127  1 Cr dxz               26      0.191204  1 Cr dyz        
    16      0.121914  1 Cr px                17     -0.120078  1 Cr py         
    36     -0.114105  1 Cr dxz               38      0.112387  1 Cr dyz        
    30     -0.065402  1 Cr dxz               92     -0.065379  2 F  px         
 
 Vector   29  Occ=0.000000D+00  E= 9.540315D-02
              MO Center=  7.5D-08,  7.8D-08, -1.1D+00, r^2= 1.0D+01
   Bfn.  Coefficient  Atom+Function         Bfn.  Coefficient  Atom+Function  
  ----- ------------  ---------------      ----- ------------  ---------------
     6      3.082008  1 Cr s                  5     -2.009418  1 Cr s          
    40     -1.276974  1 Cr dxx               43     -1.276974  1 Cr dyy        
    45      0.397919  1 Cr dzz               85     -0.356646  2 F  s          
    18      0.265976  1 Cr pz                84     -0.227666  2 F  s          
    94      0.168230  2 F  pz                34      0.136930  1 Cr dxx        
 
 Vector   30  Occ=0.000000D+00  E= 2.110038D-01
              MO Center= -4.3D-07, -4.5D-07, -1.1D+00, r^2= 2.6D+01
   Bfn.  Coefficient  Atom+Function         Bfn.  Coefficient  Atom+Function  
  ----- ------------  ---------------      ----- ------------  ---------------
     6     42.842635  1 Cr s                  5    -21.750388  1 Cr s          
    40    -12.041684  1 Cr dxx               43    -12.041684  1 Cr dyy        
    45    -12.055062  1 Cr dzz               18     -0.586081  1 Cr pz         
    21      0.398349  1 Cr pz                34     -0.326268  1 Cr dxx        
    37     -0.326268  1 Cr dyy               28      0.301812  1 Cr dxx        
 
 Vector   31  Occ=0.000000D+00  E= 2.338944D-01
              MO Center=  1.0D-06,  1.0D-06, -8.6D-01, r^2= 6.1D+00
   Bfn.  Coefficient  Atom+Function         Bfn.  Coefficient  Atom+Function  
  ----- ------------  ---------------      ----- ------------  ---------------
    16      1.467125  1 Cr px                17      1.468211  1 Cr py         
    19     -1.020144  1 Cr px                20     -1.020900  1 Cr py         
    10     -0.253370  1 Cr px                11     -0.253557  1 Cr py         
    61     -0.214300  1 Cr fxzz              64     -0.214459  1 Cr fyzz       
    56     -0.209857  1 Cr fxxx              57     -0.210010  1 Cr fxxy       
 
 Vector   32  Occ=0.000000D+00  E= 2.338944D-01
              MO Center= -1.5D-07, -1.0D-07, -8.6D-01, r^2= 6.1D+00
   Bfn.  Coefficient  Atom+Function         Bfn.  Coefficient  Atom+Function  
  ----- ------------  ---------------      ----- ------------  ---------------
    16      1.468211  1 Cr px                17     -1.467125  1 Cr py         
    19     -1.020900  1 Cr px                20      1.020144  1 Cr py         
    10     -0.253557  1 Cr px                11      0.253370  1 Cr py         
    61     -0.214459  1 Cr fxzz              64      0.214300  1 Cr fyzz       
    56     -0.210012  1 Cr fxxx              57      0.209854  1 Cr fxxy       
 
 Vector   33  Occ=0.000000D+00  E= 2.585655D-01
              MO Center=  1.2D-07,  1.3D-07, -2.1D-01, r^2= 7.7D+00
   Bfn.  Coefficient  Atom+Function         Bfn.  Coefficient  Atom+Function  
  ----- ------------  ---------------      ----- ------------  ---------------
     6     12.705881  1 Cr s                  5     -5.989872  1 Cr s          
    45     -3.903644  1 Cr dzz               40     -3.561606  1 Cr dxx        
    43     -3.561606  1 Cr dyy               18      2.028085  1 Cr pz         
    21     -1.534329  1 Cr pz                12     -0.330218  1 Cr pz         
    58     -0.298539  1 Cr fxxz              63     -0.298539  1 Cr fyyz       
 
 Vector   34  Occ=0.000000D+00  E= 4.159455D-01
              MO Center=  9.7D-08,  1.0D-07, -6.4D-01, r^2= 5.4D+00
   Bfn.  Coefficient  Atom+Function         Bfn.  Coefficient  Atom+Function  
  ----- ------------  ---------------      ----- ------------  ---------------
     6      1.459308  1 Cr s                 39      1.450181  1 Cr dzz        
     5     -1.304124  1 Cr s                 45     -1.180463  1 Cr dzz        
    34     -0.465347  1 Cr dxx               37     -0.465347  1 Cr dyy        
    33     -0.367656  1 Cr dzz               94     -0.356891  2 F  pz         
    85      0.341185  2 F  s                 27     -0.336891  1 Cr dzz        
 
 Vector   35  Occ=0.000000D+00  E= 4.215750D-01
              MO Center=  3.3D-07,  3.4D-07, -9.2D-01, r^2= 4.7D+00
   Bfn.  Coefficient  Atom+Function         Bfn.  Coefficient  Atom+Function  
  ----- ------------  ---------------      ----- ------------  ---------------
    35      2.347644  1 Cr dxy               41     -1.211391  1 Cr dxy        
    29     -0.789865  1 Cr dxy               23     -0.641818  1 Cr dxy        
    67      0.150222  1 Cr gxxxy             72      0.150222  1 Cr gxyyy      
    74      0.148592  1 Cr gxyzz      
 
 Vector   36  Occ=0.000000D+00  E= 4.215845D-01
              MO Center=  3.3D-07,  3.4D-07, -9.2D-01, r^2= 4.7D+00
   Bfn.  Coefficient  Atom+Function         Bfn.  Coefficient  Atom+Function  
  ----- ------------  ---------------      ----- ------------  ---------------
    34      1.173821  1 Cr dxx               37     -1.173821  1 Cr dyy        
    40     -0.605703  1 Cr dxx               43      0.605703  1 Cr dyy        
    28     -0.394926  1 Cr dxx               31      0.394926  1 Cr dyy        
    22     -0.320907  1 Cr dxx               25      0.320907  1 Cr dyy        
    66      0.075110  1 Cr gxxxx             76     -0.075110  1 Cr gyyyy      
 
 Vector   37  Occ=0.000000D+00  E= 4.301056D-01
              MO Center=  4.4D-07,  4.4D-07, -8.6D-01, r^2= 4.7D+00
   Bfn.  Coefficient  Atom+Function         Bfn.  Coefficient  Atom+Function  
  ----- ------------  ---------------      ----- ------------  ---------------
    36      1.672987  1 Cr dxz               38      1.648531  1 Cr dyz        
    42     -0.873598  1 Cr dxz               44     -0.860828  1 Cr dyz        
    30     -0.554380  1 Cr dxz               32     -0.546276  1 Cr dyz        
    24     -0.450994  1 Cr dxz               26     -0.444401  1 Cr dyz        
    68      0.106335  1 Cr gxxxz             73      0.106336  1 Cr gxyyz      
 
 Vector   38  Occ=0.000000D+00  E= 4.301056D-01
              MO Center=  1.8D-08,  4.4D-08, -8.6D-01, r^2= 4.7D+00
   Bfn.  Coefficient  Atom+Function         Bfn.  Coefficient  Atom+Function  
  ----- ------------  ---------------      ----- ------------  ---------------
    38     -1.672987  1 Cr dyz               36      1.648531  1 Cr dxz        
    44      0.873598  1 Cr dyz               42     -0.860828  1 Cr dxz        
    32      0.554380  1 Cr dyz               30     -0.546276  1 Cr dxz        
    26      0.450994  1 Cr dyz               24     -0.444401  1 Cr dxz        
    70     -0.106336  1 Cr gxxyz             77     -0.106335  1 Cr gyyyz      
 
 Vector   39  Occ=0.000000D+00  E= 6.053454D-01
              MO Center= -2.6D-06, -2.7D-06,  2.6D+00, r^2= 3.8D+00
   Bfn.  Coefficient  Atom+Function         Bfn.  Coefficient  Atom+Function  
  ----- ------------  ---------------      ----- ------------  ---------------
     6      5.159705  1 Cr s                 85     -1.813028  2 F  s          
    40     -1.691866  1 Cr dxx               43     -1.691866  1 Cr dyy        
    39     -1.249432  1 Cr dzz               83      1.073376  2 F  s          
    45     -1.048264  1 Cr dzz               84     -0.861252  2 F  s          
    94     -0.745778  2 F  pz                34     -0.686152  1 Cr dxx        
 
 Vector   40  Occ=0.000000D+00  E= 6.138737D-01
              MO Center=  1.8D-07,  2.6D-06,  2.4D+00, r^2= 2.7D+00
   Bfn.  Coefficient  Atom+Function         Bfn.  Coefficient  Atom+Function  
  ----- ------------  ---------------      ----- ------------  ---------------
    93      1.370402  2 F  py                90     -0.952145  2 F  py         
    44     -0.504056  1 Cr dyz               87     -0.295091  2 F  py         
    20     -0.221170  1 Cr py                38      0.195624  1 Cr dyz        
    17      0.179958  1 Cr py               108      0.141371  2 F  fxxy       
   113      0.141371  2 F  fyyy             115      0.141271  2 F  fyzz       
 
 Vector   41  Occ=0.000000D+00  E= 6.138737D-01
              MO Center=  2.1D-06, -1.5D-07,  2.4D+00, r^2= 2.7D+00
   Bfn.  Coefficient  Atom+Function         Bfn.  Coefficient  Atom+Function  
  ----- ------------  ---------------      ----- ------------  ---------------
    92      1.370402  2 F  px                89     -0.952145  2 F  px         
    42     -0.504056  1 Cr dxz               86     -0.295091  2 F  px         
    19     -0.221170  1 Cr px                36      0.195624  1 Cr dxz        
    16      0.179958  1 Cr px               107      0.141371  2 F  fxxx       
   110      0.141371  2 F  fxyy             112      0.141271  2 F  fxzz       
 
 Vector   42  Occ=0.000000D+00  E= 6.925296D-01
              MO Center=  6.7D-08,  7.1D-08,  6.3D-01, r^2= 5.7D+00
   Bfn.  Coefficient  Atom+Function         Bfn.  Coefficient  Atom+Function  
  ----- ------------  ---------------      ----- ------------  ---------------
     5      6.564315  1 Cr s                  6      6.113504  1 Cr s          
    39     -3.138338  1 Cr dzz               34     -2.739231  1 Cr dxx        
    37     -2.739231  1 Cr dyy               45     -2.493749  1 Cr dzz        
    40     -2.160740  1 Cr dxx               43     -2.160740  1 Cr dyy        
     4     -1.922940  1 Cr s                 85      1.717331  2 F  s          
 
 Vector   43  Occ=0.000000D+00  E= 8.041300D-01
              MO Center= -1.9D-07, -2.0D-07, -2.0D-01, r^2= 7.7D+00
   Bfn.  Coefficient  Atom+Function         Bfn.  Coefficient  Atom+Function  
  ----- ------------  ---------------      ----- ------------  ---------------
     5     15.451378  1 Cr s                  6      5.630873  1 Cr s          
    34     -5.627971  1 Cr dxx               37     -5.627971  1 Cr dyy        
    39     -5.237857  1 Cr dzz                4     -3.819170  1 Cr s          
    33     -2.385959  1 Cr dzz               40     -2.379644  1 Cr dxx        
    43     -2.379644  1 Cr dyy               28     -2.356283  1 Cr dxx        
 
 Vector   44  Occ=0.000000D+00  E= 1.029769D+00
              MO Center= -4.5D-07, -4.7D-07, -9.8D-01, r^2= 8.5D+00
   Bfn.  Coefficient  Atom+Function         Bfn.  Coefficient  Atom+Function  
  ----- ------------  ---------------      ----- ------------  ---------------
     5     21.400725  1 Cr s                  6     19.514211  1 Cr s          
    34    -10.511556  1 Cr dxx               37    -10.511556  1 Cr dyy        
    39    -10.497243  1 Cr dzz                4     -7.355829  1 Cr s          
    40     -6.477279  1 Cr dxx               43     -6.477279  1 Cr dyy        
    45     -6.481397  1 Cr dzz               28     -2.509756  1 Cr dxx        
 
 Vector   45  Occ=0.000000D+00  E= 1.227686D+00
              MO Center=  2.7D-07,  2.5D-07, -9.3D-01, r^2= 2.8D+00
   Bfn.  Coefficient  Atom+Function         Bfn.  Coefficient  Atom+Function  
  ----- ------------  ---------------      ----- ------------  ---------------
    16      1.789153  1 Cr px                17      1.784288  1 Cr py         
    56     -1.221215  1 Cr fxxx              57     -1.217832  1 Cr fxxy       
    59     -1.221153  1 Cr fxyy              61     -1.215774  1 Cr fxzz       
    62     -1.217894  1 Cr fyyy              64     -1.212468  1 Cr fyzz       
    19     -0.583345  1 Cr px                20     -0.581759  1 Cr py         
 
 Vector   46  Occ=0.000000D+00  E= 1.227686D+00
              MO Center= -3.6D-07, -3.5D-07, -9.3D-01, r^2= 2.8D+00
   Bfn.  Coefficient  Atom+Function         Bfn.  Coefficient  Atom+Function  
  ----- ------------  ---------------      ----- ------------  ---------------
    16      1.784288  1 Cr px                17     -1.789153  1 Cr py         
    56     -1.217894  1 Cr fxxx              57      1.221153  1 Cr fxxy       
    59     -1.217832  1 Cr fxyy              62      1.221215  1 Cr fyyy       
    61     -1.212468  1 Cr fxzz              64      1.215774  1 Cr fyzz       
    19     -0.581759  1 Cr px                20      0.583345  1 Cr py         
 
 Vector   47  Occ=0.000000D+00  E= 1.251035D+00
              MO Center= -3.0D-07, -3.1D-07, -7.7D-01, r^2= 3.0D+00
   Bfn.  Coefficient  Atom+Function         Bfn.  Coefficient  Atom+Function  
  ----- ------------  ---------------      ----- ------------  ---------------
    18      2.550245  1 Cr pz                65     -1.734506  1 Cr fzzz       
    58     -1.658597  1 Cr fxxz              63     -1.658597  1 Cr fyyz       
    21     -0.822905  1 Cr pz                 5      0.753019  1 Cr s          
    12      0.487288  1 Cr pz                 6     -0.285884  1 Cr s          
    15      0.264131  1 Cr pz                 9     -0.207029  1 Cr pz         
 
 Vector   48  Occ=0.000000D+00  E= 1.417354D+00
              MO Center= -2.1D-07, -2.2D-07, -9.2D-01, r^2= 1.1D+00
   Bfn.  Coefficient  Atom+Function         Bfn.  Coefficient  Atom+Function  
  ----- ------------  ---------------      ----- ------------  ---------------
    57      2.339474  1 Cr fxxy              62     -0.779757  1 Cr fyyy       
    47      0.092526  1 Cr fxxy              52     -0.030838  1 Cr fyyy       
    59     -0.028778  1 Cr fxyy       
 
 Vector   49  Occ=0.000000D+00  E= 1.417354D+00
              MO Center= -2.1D-07, -2.2D-07, -9.2D-01, r^2= 1.1D+00
   Bfn.  Coefficient  Atom+Function         Bfn.  Coefficient  Atom+Function  
  ----- ------------  ---------------      ----- ------------  ---------------
    59      2.339474  1 Cr fxyy              56     -0.779757  1 Cr fxxx       
    49      0.092526  1 Cr fxyy              46     -0.030838  1 Cr fxxx       
    57      0.028778  1 Cr fxxy       
 
 Vector   50  Occ=0.000000D+00  E= 1.418312D+00
              MO Center= -1.3D-07, -1.4D-07, -9.2D-01, r^2= 1.1D+00
   Bfn.  Coefficient  Atom+Function         Bfn.  Coefficient  Atom+Function  
  ----- ------------  ---------------      ----- ------------  ---------------
    58      1.909742  1 Cr fxxz              63     -1.909742  1 Cr fyyz       
    48      0.076411  1 Cr fxxz              53     -0.076411  1 Cr fyyz       
    28     -0.025292  1 Cr dxx               31      0.025292  1 Cr dyy        
 
 Vector   51  Occ=0.000000D+00  E= 1.418318D+00
              MO Center= -1.3D-07, -1.4D-07, -9.2D-01, r^2= 1.1D+00
   Bfn.  Coefficient  Atom+Function         Bfn.  Coefficient  Atom+Function  
  ----- ------------  ---------------      ----- ------------  ---------------
    60      3.819483  1 Cr fxyz              50      0.152822  1 Cr fxyz       
    29     -0.050686  1 Cr dxy               35      0.035532  1 Cr dxy        
 
 Vector   52  Occ=0.000000D+00  E= 1.422741D+00
              MO Center= -1.9D-07, -1.8D-07, -9.3D-01, r^2= 1.2D+00
   Bfn.  Coefficient  Atom+Function         Bfn.  Coefficient  Atom+Function  
  ----- ------------  ---------------      ----- ------------  ---------------
    61      1.724629  1 Cr fxzz              64      1.687864  1 Cr fyzz       
    56     -0.432425  1 Cr fxxx              59     -0.432371  1 Cr fxyy       
    57     -0.423154  1 Cr fxxy              62     -0.423206  1 Cr fyyy       
    51      0.069106  1 Cr fxzz              54      0.067633  1 Cr fyzz       
    30     -0.052451  1 Cr dxz               32     -0.051333  1 Cr dyz        
 
 Vector   53  Occ=0.000000D+00  E= 1.422741D+00
              MO Center= -2.0D-08, -3.2D-08, -9.3D-01, r^2= 1.2D+00
   Bfn.  Coefficient  Atom+Function         Bfn.  Coefficient  Atom+Function  
  ----- ------------  ---------------      ----- ------------  ---------------
    64     -1.724629  1 Cr fyzz              61      1.687864  1 Cr fxzz       
    57      0.432371  1 Cr fxxy              62      0.432425  1 Cr fyyy       
    56     -0.423206  1 Cr fxxx              59     -0.423154  1 Cr fxyy       
    54     -0.069106  1 Cr fyzz              51      0.067633  1 Cr fxzz       
    32      0.052451  1 Cr dyz               30     -0.051333  1 Cr dxz        
 
 Vector   54  Occ=0.000000D+00  E= 1.435134D+00
              MO Center= -6.7D-08, -7.0D-08, -8.4D-01, r^2= 1.3D+00
   Bfn.  Coefficient  Atom+Function         Bfn.  Coefficient  Atom+Function  
  ----- ------------  ---------------      ----- ------------  ---------------
    58      1.495762  1 Cr fxxz              63      1.495762  1 Cr fyyz       
    65     -0.953737  1 Cr fzzz               5     -0.916892  1 Cr s          
    34      0.297942  1 Cr dxx               37      0.297942  1 Cr dyy        
    39      0.282123  1 Cr dzz                4      0.213721  1 Cr s          
    84     -0.211443  2 F  s                 85      0.172753  2 F  s          
 
 Vector   55  Occ=0.000000D+00  E= 1.736620D+00
              MO Center=  4.5D-07,  4.7D-07, -9.1D-01, r^2= 1.8D+00
   Bfn.  Coefficient  Atom+Function         Bfn.  Coefficient  Atom+Function  
  ----- ------------  ---------------      ----- ------------  ---------------
    28      1.695811  1 Cr dxx               31     -1.695811  1 Cr dyy        
    34     -0.810057  1 Cr dxx               37      0.810057  1 Cr dyy        
    22     -0.643448  1 Cr dxx               25      0.643448  1 Cr dyy        
    66     -0.451769  1 Cr gxxxx             71     -0.451910  1 Cr gxxzz      
    76      0.451769  1 Cr gyyyy             78      0.451910  1 Cr gyyzz      
 
 Vector   56  Occ=0.000000D+00  E= 1.736627D+00
              MO Center=  4.5D-07,  4.7D-07, -9.1D-01, r^2= 1.8D+00
   Bfn.  Coefficient  Atom+Function         Bfn.  Coefficient  Atom+Function  
  ----- ------------  ---------------      ----- ------------  ---------------
    29      3.391604  1 Cr dxy               35     -1.620103  1 Cr dxy        
    23     -1.286901  1 Cr dxy               67     -0.903523  1 Cr gxxxy      
    72     -0.903523  1 Cr gxyyy             74     -0.903803  1 Cr gxyzz      
    41      0.518855  1 Cr dxy               60      0.052479  1 Cr fxyz       
 
 Vector   57  Occ=0.000000D+00  E= 1.738690D+00
              MO Center=  5.4D-07,  5.3D-07, -8.9D-01, r^2= 1.8D+00
   Bfn.  Coefficient  Atom+Function         Bfn.  Coefficient  Atom+Function  
  ----- ------------  ---------------      ----- ------------  ---------------
    30      2.448263  1 Cr dxz               32      2.342989  1 Cr dyz        
    36     -1.174886  1 Cr dxz               38     -1.124366  1 Cr dyz        
    24     -0.927923  1 Cr dxz               26     -0.888023  1 Cr dyz        
    68     -0.650143  1 Cr gxxxz             73     -0.650140  1 Cr gxyyz      
    75     -0.651222  1 Cr gxzzz             70     -0.622185  1 Cr gxxyz      
 
 Vector   58  Occ=0.000000D+00  E= 1.738690D+00
              MO Center=  1.4D-07,  1.9D-07, -8.9D-01, r^2= 1.8D+00
   Bfn.  Coefficient  Atom+Function         Bfn.  Coefficient  Atom+Function  
  ----- ------------  ---------------      ----- ------------  ---------------
    32     -2.448263  1 Cr dyz               30      2.342989  1 Cr dxz        
    38      1.174886  1 Cr dyz               36     -1.124366  1 Cr dxz        
    26      0.927923  1 Cr dyz               24     -0.888023  1 Cr dxz        
    70      0.650140  1 Cr gxxyz             77      0.650143  1 Cr gyyyz      
    79      0.651222  1 Cr gyzzz             68     -0.622187  1 Cr gxxxz      
 
 Vector   59  Occ=0.000000D+00  E= 1.754091D+00
              MO Center=  2.4D-07,  2.5D-07, -7.0D-01, r^2= 2.4D+00
   Bfn.  Coefficient  Atom+Function         Bfn.  Coefficient  Atom+Function  
  ----- ------------  ---------------      ----- ------------  ---------------
    33      2.042348  1 Cr dzz                5     -1.274365  1 Cr s          
    34      0.843012  1 Cr dxx               37      0.843012  1 Cr dyy        
    28     -0.827375  1 Cr dxx               31     -0.827375  1 Cr dyy        
    27     -0.705339  1 Cr dzz               39     -0.562856  1 Cr dzz        
    80     -0.519939  1 Cr gzzzz             69      0.478547  1 Cr gxxyy      
 
 Vector   60  Occ=0.000000D+00  E= 2.050563D+00
              MO Center= -6.0D-07, -6.2D-07,  2.4D+00, r^2= 6.1D-01
   Bfn.  Coefficient  Atom+Function         Bfn.  Coefficient  Atom+Function  
  ----- ------------  ---------------      ----- ------------  ---------------
   103      1.324454  2 F  dxz              105     -1.120289  2 F  dyz        
    30     -0.102841  1 Cr dxz               32      0.086988  1 Cr dyz        
    36      0.051573  1 Cr dxz               38     -0.043623  1 Cr dyz        
    24      0.040951  1 Cr dxz               26     -0.034639  1 Cr dyz        
    16     -0.029485  1 Cr px                19      0.028565  1 Cr px         
 
 Vector   61  Occ=0.000000D+00  E= 2.050563D+00
              MO Center= -6.0D-07, -6.3D-07,  2.4D+00, r^2= 6.1D-01
   Bfn.  Coefficient  Atom+Function         Bfn.  Coefficient  Atom+Function  
  ----- ------------  ---------------      ----- ------------  ---------------
   105      1.324454  2 F  dyz              103      1.120289  2 F  dxz        
    32     -0.102841  1 Cr dyz               30     -0.086988  1 Cr dxz        
    38      0.051573  1 Cr dyz               36      0.043623  1 Cr dxz        
    26      0.040951  1 Cr dyz               24      0.034639  1 Cr dxz        
    17     -0.029485  1 Cr py                20      0.028565  1 Cr py         
 
 Vector   62  Occ=0.000000D+00  E= 2.050615D+00
              MO Center=  5.8D-07,  6.1D-07,  2.5D+00, r^2= 5.8D-01
   Bfn.  Coefficient  Atom+Function         Bfn.  Coefficient  Atom+Function  
  ----- ------------  ---------------      ----- ------------  ---------------
   101      0.867487  2 F  dxx              104     -0.867487  2 F  dyy        
 
 Vector   63  Occ=0.000000D+00  E= 2.050615D+00
              MO Center=  5.8D-07,  6.1D-07,  2.5D+00, r^2= 5.8D-01
   Bfn.  Coefficient  Atom+Function         Bfn.  Coefficient  Atom+Function  
  ----- ------------  ---------------      ----- ------------  ---------------
   102      1.734974  2 F  dxy               29     -0.035374  1 Cr dxy        
    41     -0.032257  1 Cr dxy               35      0.031165  1 Cr dxy        
 
 Vector   64  Occ=0.000000D+00  E= 2.084751D+00
              MO Center=  9.4D-09,  9.9D-09,  2.2D+00, r^2= 1.3D+00
   Bfn.  Coefficient  Atom+Function         Bfn.  Coefficient  Atom+Function  
  ----- ------------  ---------------      ----- ------------  ---------------
     6      1.748224  1 Cr s                106     -1.040988  2 F  dzz        
    45     -0.647516  1 Cr dzz               33     -0.566775  1 Cr dzz        
    40     -0.483547  1 Cr dxx               43     -0.483547  1 Cr dyy        
    34     -0.463581  1 Cr dxx               37     -0.463581  1 Cr dyy        
   101      0.420532  2 F  dxx              104      0.420532  2 F  dyy        
 
 Vector   65  Occ=0.000000D+00  E= 2.628659D+00
              MO Center=  4.4D-09, -1.7D-07,  2.5D+00, r^2= 1.1D+00
   Bfn.  Coefficient  Atom+Function         Bfn.  Coefficient  Atom+Function  
  ----- ------------  ---------------      ----- ------------  ---------------
    90      2.531749  2 F  py                87     -0.977116  2 F  py         
    93     -0.947157  2 F  py               108     -0.682897  2 F  fxxy       
   113     -0.682897  2 F  fyyy             115     -0.681172  2 F  fyzz       
    44      0.185857  1 Cr dyz               89      0.100648  2 F  px         
    20      0.084222  1 Cr py                17     -0.072350  1 Cr py         
 
 Vector   66  Occ=0.000000D+00  E= 2.628659D+00
              MO Center= -1.5D-07,  1.8D-08,  2.5D+00, r^2= 1.1D+00
   Bfn.  Coefficient  Atom+Function         Bfn.  Coefficient  Atom+Function  
  ----- ------------  ---------------      ----- ------------  ---------------
    89      2.531749  2 F  px                86     -0.977116  2 F  px         
    92     -0.947157  2 F  px               107     -0.682897  2 F  fxxx       
   110     -0.682897  2 F  fxyy             112     -0.681172  2 F  fxzz       
    42      0.185857  1 Cr dxz               90     -0.100648  2 F  py         
    19      0.084222  1 Cr px                16     -0.072350  1 Cr px         
 
 Vector   67  Occ=0.000000D+00  E= 2.682277D+00
              MO Center=  3.4D-08,  3.5D-08,  2.7D+00, r^2= 1.1D+00
   Bfn.  Coefficient  Atom+Function         Bfn.  Coefficient  Atom+Function  
  ----- ------------  ---------------      ----- ------------  ---------------
    91     -2.503861  2 F  pz                84      2.488821  2 F  s          
     5      1.719888  1 Cr s                  6     -1.541436  1 Cr s          
    83     -1.033201  2 F  s                 94      1.006652  2 F  pz         
    88      0.949223  2 F  pz               106     -0.927419  2 F  dzz        
   101     -0.848567  2 F  dxx              104     -0.848567  2 F  dyy        
 
 Vector   68  Occ=0.000000D+00  E= 2.968920D+00
              MO Center=  1.4D-07,  1.5D-07,  2.2D+00, r^2= 1.3D+00
   Bfn.  Coefficient  Atom+Function         Bfn.  Coefficient  Atom+Function  
  ----- ------------  ---------------      ----- ------------  ---------------
    84      9.995283  2 F  s                 83     -4.424267  2 F  s          
   101     -3.741384  2 F  dxx              104     -3.741384  2 F  dyy        
   106     -3.687032  2 F  dzz               85      1.865421  2 F  s          
    91      0.748133  2 F  pz                94     -0.448151  2 F  pz         
     6      0.354044  1 Cr s                 45     -0.331395  1 Cr dzz        
 
 Vector   69  Occ=0.000000D+00  E= 3.782952D+00
              MO Center= -4.2D-06, -4.4D-06, -1.2D+00, r^2= 1.2D+00
   Bfn.  Coefficient  Atom+Function         Bfn.  Coefficient  Atom+Function  
  ----- ------------  ---------------      ----- ------------  ---------------
     6      2.758665  1 Cr s                 15      1.744721  1 Cr pz         
    69     -1.666559  1 Cr gxxyy             71     -1.659689  1 Cr gxxzz      
    78     -1.659689  1 Cr gyyzz              4     -1.368338  1 Cr s          
    33      1.124572  1 Cr dzz               28      1.104350  1 Cr dxx        
    31      1.104350  1 Cr dyy               65     -1.073253  1 Cr fzzz       
 
 Vector   70  Occ=0.000000D+00  E= 3.845144D+00
              MO Center=  1.2D-06,  4.0D-06, -9.2D-01, r^2= 1.3D+00
   Bfn.  Coefficient  Atom+Function         Bfn.  Coefficient  Atom+Function  
  ----- ------------  ---------------      ----- ------------  ---------------
    14      6.850587  1 Cr py                57     -4.224366  1 Cr fxxy       
    62     -4.224359  1 Cr fyyy              64     -4.227883  1 Cr fyzz       
    13      2.158288  1 Cr px                11     -1.966052  1 Cr py         
    17      1.524478  1 Cr py                56     -1.330891  1 Cr fxxx       
    59     -1.330893  1 Cr fxyy              61     -1.332001  1 Cr fxzz       
 
 Vector   71  Occ=0.000000D+00  E= 3.845144D+00
              MO Center=  1.9D-06, -8.0D-07, -9.2D-01, r^2= 1.3D+00
   Bfn.  Coefficient  Atom+Function         Bfn.  Coefficient  Atom+Function  
  ----- ------------  ---------------      ----- ------------  ---------------
    13      6.850587  1 Cr px                56     -4.224359  1 Cr fxxx       
    59     -4.224366  1 Cr fxyy              61     -4.227883  1 Cr fxzz       
    14     -2.158288  1 Cr py                10     -1.966052  1 Cr px         
    16      1.524478  1 Cr px                57      1.330893  1 Cr fxxy       
    62      1.330891  1 Cr fyyy              64      1.332001  1 Cr fyzz       
 
 Vector   72  Occ=0.000000D+00  E= 3.867357D+00
              MO Center=  6.1D-07,  6.4D-07, -6.8D-01, r^2= 1.3D+00
   Bfn.  Coefficient  Atom+Function         Bfn.  Coefficient  Atom+Function  
  ----- ------------  ---------------      ----- ------------  ---------------
    15      6.976206  1 Cr pz                58     -4.336322  1 Cr fxxz       
    63     -4.336322  1 Cr fyyz              65     -4.328020  1 Cr fzzz       
    12     -2.000419  1 Cr pz                18      1.606438  1 Cr pz         
    48     -0.586083  1 Cr fxxz              53     -0.586083  1 Cr fyyz       
     6     -0.580453  1 Cr s                 55     -0.581266  1 Cr fzzz       
 
 Vector   73  Occ=0.000000D+00  E= 4.925110D+00
              MO Center=  1.4D-07,  1.4D-07, -9.2D-01, r^2= 9.2D-01
   Bfn.  Coefficient  Atom+Function         Bfn.  Coefficient  Atom+Function  
  ----- ------------  ---------------      ----- ------------  ---------------
    30      2.513964  1 Cr dxz               32      2.443234  1 Cr dyz        
    75     -2.402812  1 Cr gxzzz             68     -2.383253  1 Cr gxxxz      
    73     -2.383179  1 Cr gxyyz             79     -2.335210  1 Cr gyzzz      
    70     -2.316129  1 Cr gxxyz             77     -2.316201  1 Cr gyyyz      
    24      0.975104  1 Cr dxz               26      0.947670  1 Cr dyz        
 
 Vector   74  Occ=0.000000D+00  E= 4.925110D+00
              MO Center= -9.6D-09,  7.4D-10, -9.2D-01, r^2= 9.2D-01
   Bfn.  Coefficient  Atom+Function         Bfn.  Coefficient  Atom+Function  
  ----- ------------  ---------------      ----- ------------  ---------------
    32     -2.513964  1 Cr dyz               30      2.443234  1 Cr dxz        
    79      2.402812  1 Cr gyzzz             70      2.383179  1 Cr gxxyz      
    77      2.383253  1 Cr gyyyz             75     -2.335210  1 Cr gxzzz      
    68     -2.316201  1 Cr gxxxz             73     -2.316129  1 Cr gxyyz      
    26     -0.975104  1 Cr dyz               24      0.947670  1 Cr dxz        
 
 Vector   75  Occ=0.000000D+00  E= 4.926307D+00
              MO Center=  1.4D-07,  1.5D-07, -9.2D-01, r^2= 9.1D-01
   Bfn.  Coefficient  Atom+Function         Bfn.  Coefficient  Atom+Function  
  ----- ------------  ---------------      ----- ------------  ---------------
    28      1.750432  1 Cr dxx               31     -1.750432  1 Cr dyy        
    71     -1.678458  1 Cr gxxzz             78      1.678458  1 Cr gyyzz      
    66     -1.664973  1 Cr gxxxx             76      1.664973  1 Cr gyyyy      
    22      0.680327  1 Cr dxx               25     -0.680327  1 Cr dyy        
    34     -0.475346  1 Cr dxx               37      0.475346  1 Cr dyy        
 
 Vector   76  Occ=0.000000D+00  E= 4.926326D+00
              MO Center=  1.4D-07,  1.5D-07, -9.2D-01, r^2= 9.1D-01
   Bfn.  Coefficient  Atom+Function         Bfn.  Coefficient  Atom+Function  
  ----- ------------  ---------------      ----- ------------  ---------------
    29      3.500878  1 Cr dxy               74     -3.356793  1 Cr gxyzz      
    67     -3.329972  1 Cr gxxxy             72     -3.329972  1 Cr gxyyy      
    23      1.360649  1 Cr dxy               35     -0.950698  1 Cr dxy        
    41      0.278130  1 Cr dxy        
 
 Vector   77  Occ=0.000000D+00  E= 4.950640D+00
              MO Center=  4.6D-08,  4.8D-08, -9.0D-01, r^2= 9.5D-01
   Bfn.  Coefficient  Atom+Function         Bfn.  Coefficient  Atom+Function  
  ----- ------------  ---------------      ----- ------------  ---------------
    33      2.139074  1 Cr dzz               80     -1.961684  1 Cr gzzzz      
    69      1.894331  1 Cr gxxyy             71     -1.002859  1 Cr gxxzz      
    78     -1.002859  1 Cr gyyzz             28     -0.957341  1 Cr dxx        
    31     -0.957341  1 Cr dyy               66      0.947152  1 Cr gxxxx      
    76      0.947152  1 Cr gyyyy             27      0.791576  1 Cr dzz        
 
 Vector   78  Occ=0.000000D+00  E= 5.487888D+00
              MO Center= -3.5D-08, -3.5D-08, -9.2D-01, r^2= 5.6D-01
   Bfn.  Coefficient  Atom+Function         Bfn.  Coefficient  Atom+Function  
  ----- ------------  ---------------      ----- ------------  ---------------
    75      2.231212  1 Cr gxzzz             79      2.217144  1 Cr gyzzz      
    73     -1.722229  1 Cr gxyyz             70     -1.711371  1 Cr gxxyz      
    68     -1.684759  1 Cr gxxxz             77     -1.674136  1 Cr gyyyz      
 
 Vector   79  Occ=0.000000D+00  E= 5.487888D+00
              MO Center= -4.1D-09, -5.9D-09, -9.2D-01, r^2= 5.6D-01
   Bfn.  Coefficient  Atom+Function         Bfn.  Coefficient  Atom+Function  
  ----- ------------  ---------------      ----- ------------  ---------------
    79     -2.231212  1 Cr gyzzz             75      2.217144  1 Cr gxzzz      
    70      1.722229  1 Cr gxxyz             73     -1.711371  1 Cr gxyyz      
    77      1.684759  1 Cr gyyyz             68     -1.674136  1 Cr gxxxz      
 
 Vector   80  Occ=0.000000D+00  E= 5.488029D+00
              MO Center= -1.3D-08, -1.3D-08, -9.2D-01, r^2= 5.6D-01
   Bfn.  Coefficient  Atom+Function         Bfn.  Coefficient  Atom+Function  
  ----- ------------  ---------------      ----- ------------  ---------------
    71      3.000134  1 Cr gxxzz             78      3.000134  1 Cr gyyzz      
    80     -0.996427  1 Cr gzzzz             69     -0.754417  1 Cr gxxyy      
    66     -0.378748  1 Cr gxxxx             76     -0.378748  1 Cr gyyyy      
     5     -0.030359  1 Cr s          
 
 Vector   81  Occ=0.000000D+00  E= 5.488165D+00
              MO Center= -2.0D-08, -2.1D-08, -9.2D-01, r^2= 5.6D-01
   Bfn.  Coefficient  Atom+Function         Bfn.  Coefficient  Atom+Function  
  ----- ------------  ---------------      ----- ------------  ---------------
    71      3.348341  1 Cr gxxzz             78     -3.348341  1 Cr gyyzz      
    66     -0.564749  1 Cr gxxxx             76      0.564749  1 Cr gyyyy      
 
 Vector   82  Occ=0.000000D+00  E= 5.488198D+00
              MO Center= -2.0D-08, -2.1D-08, -9.2D-01, r^2= 5.6D-01
   Bfn.  Coefficient  Atom+Function         Bfn.  Coefficient  Atom+Function  
  ----- ------------  ---------------      ----- ------------  ---------------
    74      6.696746  1 Cr gxyzz             67     -1.129435  1 Cr gxxxy      
    72     -1.129435  1 Cr gxyyy      
 
 Vector   83  Occ=0.000000D+00  E= 5.489498D+00
              MO Center= -2.8D-08, -2.9D-08, -9.2D-01, r^2= 5.6D-01
   Bfn.  Coefficient  Atom+Function         Bfn.  Coefficient  Atom+Function  
  ----- ------------  ---------------      ----- ------------  ---------------
    70      6.203697  1 Cr gxxyz             77     -2.087771  1 Cr gyyyz      
    73     -0.836078  1 Cr gxyyz             68      0.281371  1 Cr gxxxz      
 
 Vector   84  Occ=0.000000D+00  E= 5.489498D+00
              MO Center= -2.8D-08, -2.9D-08, -9.2D-01, r^2= 5.6D-01
   Bfn.  Coefficient  Atom+Function         Bfn.  Coefficient  Atom+Function  
  ----- ------------  ---------------      ----- ------------  ---------------
    73      6.203697  1 Cr gxyyz             68     -2.087771  1 Cr gxxxz      
    70      0.836078  1 Cr gxxyz             77     -0.281371  1 Cr gyyyz      
 
 Vector   85  Occ=0.000000D+00  E= 5.492633D+00
              MO Center= -3.8D-08, -4.0D-08, -9.2D-01, r^2= 5.6D-01
   Bfn.  Coefficient  Atom+Function         Bfn.  Coefficient  Atom+Function  
  ----- ------------  ---------------      ----- ------------  ---------------
    69      4.437445  1 Cr gxxyy             66     -0.739317  1 Cr gxxxx      
    76     -0.739317  1 Cr gyyyy      
 
 Vector   86  Occ=0.000000D+00  E= 5.492635D+00
              MO Center= -3.8D-08, -4.0D-08, -9.2D-01, r^2= 5.6D-01
   Bfn.  Coefficient  Atom+Function         Bfn.  Coefficient  Atom+Function  
  ----- ------------  ---------------      ----- ------------  ---------------
    67      2.958040  1 Cr gxxxy             72     -2.958040  1 Cr gxyyy      
 
 Vector   87  Occ=0.000000D+00  E= 6.064826D+00
              MO Center=  6.9D-08,  7.2D-08, -9.2D-01, r^2= 3.6D-01
   Bfn.  Coefficient  Atom+Function         Bfn.  Coefficient  Atom+Function  
  ----- ------------  ---------------      ----- ------------  ---------------
    48      2.049677  1 Cr fxxz              53     -2.049677  1 Cr fyyz       
    58     -0.747726  1 Cr fxxz              63      0.747726  1 Cr fyyz       
 
 Vector   88  Occ=0.000000D+00  E= 6.064826D+00
              MO Center=  6.9D-08,  7.2D-08, -9.2D-01, r^2= 3.6D-01
   Bfn.  Coefficient  Atom+Function         Bfn.  Coefficient  Atom+Function  
  ----- ------------  ---------------      ----- ------------  ---------------
    50      4.099354  1 Cr fxyz              60     -1.495452  1 Cr fxyz       
 
 Vector   89  Occ=0.000000D+00  E= 6.065606D+00
              MO Center=  8.8D-08,  8.8D-08, -9.2D-01, r^2= 3.6D-01
   Bfn.  Coefficient  Atom+Function         Bfn.  Coefficient  Atom+Function  
  ----- ------------  ---------------      ----- ------------  ---------------
    51      1.852074  1 Cr fxzz              54      1.814610  1 Cr fyzz       
    61     -0.677196  1 Cr fxzz              64     -0.663498  1 Cr fyzz       
    46     -0.462772  1 Cr fxxx              49     -0.462712  1 Cr fxyy       
    47     -0.453353  1 Cr fxxy              52     -0.453411  1 Cr fyyy       
    56      0.167904  1 Cr fxxx              59      0.167883  1 Cr fxyy       
 
 Vector   90  Occ=0.000000D+00  E= 6.065606D+00
              MO Center=  3.6D-08,  4.1D-08, -9.2D-01, r^2= 3.6D-01
   Bfn.  Coefficient  Atom+Function         Bfn.  Coefficient  Atom+Function  
  ----- ------------  ---------------      ----- ------------  ---------------
    54     -1.852074  1 Cr fyzz              51      1.814610  1 Cr fxzz       
    64      0.677196  1 Cr fyzz              61     -0.663498  1 Cr fxzz       
    47      0.462712  1 Cr fxxy              52      0.462772  1 Cr fyyy       
    46     -0.453411  1 Cr fxxx              49     -0.453353  1 Cr fxyy       
    57     -0.167883  1 Cr fxxy              62     -0.167904  1 Cr fyyy       
 
 Vector   91  Occ=0.000000D+00  E= 6.068199D+00
              MO Center=  9.2D-08,  9.6D-08, -9.2D-01, r^2= 3.6D-01
   Bfn.  Coefficient  Atom+Function         Bfn.  Coefficient  Atom+Function  
  ----- ------------  ---------------      ----- ------------  ---------------
    47      2.510112  1 Cr fxxy              57     -0.914684  1 Cr fxxy       
    52     -0.836683  1 Cr fyyy              62      0.304880  1 Cr fyyy       
    49     -0.037425  1 Cr fxyy       
 
 Vector   92  Occ=0.000000D+00  E= 6.068199D+00
              MO Center=  9.2D-08,  9.6D-08, -9.2D-01, r^2= 3.6D-01
   Bfn.  Coefficient  Atom+Function         Bfn.  Coefficient  Atom+Function  
  ----- ------------  ---------------      ----- ------------  ---------------
    49      2.510112  1 Cr fxyy              59     -0.914684  1 Cr fxyy       
    46     -0.836683  1 Cr fxxx              56      0.304880  1 Cr fxxx       
    47      0.037425  1 Cr fxxy       
 
 Vector   93  Occ=0.000000D+00  E= 6.069329D+00
              MO Center=  5.4D-08,  5.6D-08, -9.2D-01, r^2= 3.7D-01
   Bfn.  Coefficient  Atom+Function         Bfn.  Coefficient  Atom+Function  
  ----- ------------  ---------------      ----- ------------  ---------------
    48      1.586374  1 Cr fxxz              53      1.586374  1 Cr fyyz       
    55     -1.058819  1 Cr fzzz              58     -0.588671  1 Cr fxxz       
    63     -0.588671  1 Cr fyyz              65      0.381897  1 Cr fzzz       
     5      0.131528  1 Cr s                 85     -0.058976  2 F  s          
    34     -0.039437  1 Cr dxx               37     -0.039437  1 Cr dyy        
 
 Vector   94  Occ=0.000000D+00  E= 7.008899D+00
              MO Center= -1.8D-09,  5.1D-09,  2.5D+00, r^2= 3.3D-01
   Bfn.  Coefficient  Atom+Function         Bfn.  Coefficient  Atom+Function  
  ----- ------------  ---------------      ----- ------------  ---------------
   115      2.310143  2 F  fyzz             112     -0.922538  2 F  fxzz       
   108     -0.532753  2 F  fxxy             113     -0.532754  2 F  fyyy       
   107      0.212751  2 F  fxxx             110      0.212751  2 F  fxyy       
    90     -0.045815  2 F  py         
 
 Vector   95  Occ=0.000000D+00  E= 7.008899D+00
              MO Center=  1.1D-08,  4.3D-09,  2.5D+00, r^2= 3.3D-01
   Bfn.  Coefficient  Atom+Function         Bfn.  Coefficient  Atom+Function  
  ----- ------------  ---------------      ----- ------------  ---------------
   112      2.310143  2 F  fxzz             115      0.922538  2 F  fyzz       
   107     -0.532754  2 F  fxxx             110     -0.532753  2 F  fxyy       
   108     -0.212751  2 F  fxxy             113     -0.212751  2 F  fyyy       
    89     -0.045815  2 F  px         
 
 Vector   96  Occ=0.000000D+00  E= 7.008979D+00
              MO Center= -4.7D-09, -5.1D-09,  2.5D+00, r^2= 3.3D-01
   Bfn.  Coefficient  Atom+Function         Bfn.  Coefficient  Atom+Function  
  ----- ------------  ---------------      ----- ------------  ---------------
   109      1.469068  2 F  fxxz             114      1.469068  2 F  fyyz       
   116     -1.030734  2 F  fzzz               5      0.263205  1 Cr s          
    39     -0.134893  1 Cr dzz                6      0.132638  1 Cr s          
    34     -0.100058  1 Cr dxx               37     -0.100058  1 Cr dyy        
     4     -0.060965  1 Cr s                 40     -0.052150  1 Cr dxx        
 
 Vector   97  Occ=0.000000D+00  E= 7.015843D+00
              MO Center=  2.0D-09,  2.1D-09,  2.5D+00, r^2= 3.3D-01
   Bfn.  Coefficient  Atom+Function         Bfn.  Coefficient  Atom+Function  
  ----- ------------  ---------------      ----- ------------  ---------------
   109      1.936492  2 F  fxxz             114     -1.936492  2 F  fyyz       
 
 Vector   98  Occ=0.000000D+00  E= 7.015843D+00
              MO Center=  2.0D-09,  2.1D-09,  2.5D+00, r^2= 3.3D-01
   Bfn.  Coefficient  Atom+Function         Bfn.  Coefficient  Atom+Function  
  ----- ------------  ---------------      ----- ------------  ---------------
   111      3.872983  2 F  fxyz       
 
 Vector   99  Occ=0.000000D+00  E= 7.029119D+00
              MO Center=  3.0D-09,  3.2D-09,  2.5D+00, r^2= 3.3D-01
   Bfn.  Coefficient  Atom+Function         Bfn.  Coefficient  Atom+Function  
  ----- ------------  ---------------      ----- ------------  ---------------
   110      2.371467  2 F  fxyy             107     -0.790489  2 F  fxxx       
   108      0.033870  2 F  fxxy       
 
 Vector  100  Occ=0.000000D+00  E= 7.029119D+00
              MO Center=  3.0D-09,  3.2D-09,  2.5D+00, r^2= 3.3D-01
   Bfn.  Coefficient  Atom+Function         Bfn.  Coefficient  Atom+Function  
  ----- ------------  ---------------      ----- ------------  ---------------
   108      2.371467  2 F  fxxy             113     -0.790489  2 F  fyyy       
   110     -0.033870  2 F  fxyy       
 
 Vector  101  Occ=0.000000D+00  E= 7.502687D+00
              MO Center= -1.4D-10, -4.0D-08,  2.5D+00, r^2= 5.2D-01
   Bfn.  Coefficient  Atom+Function         Bfn.  Coefficient  Atom+Function  
  ----- ------------  ---------------      ----- ------------  ---------------
    90      2.258942  2 F  py               108     -1.834463  2 F  fxxy       
   113     -1.834463  2 F  fyyy             115     -1.770793  2 F  fyzz       
    87      0.787668  2 F  py                93     -0.546088  2 F  py         
    44      0.097233  1 Cr dyz               20      0.043893  1 Cr py         
    17     -0.040507  1 Cr py                64      0.036637  1 Cr fyzz       
 
 Vector  102  Occ=0.000000D+00  E= 7.502687D+00
              MO Center= -3.8D-08,  8.3D-10,  2.5D+00, r^2= 5.2D-01
[...]
    90     -0.043412  2 F  py                89     -0.026045  2 F  px         
 
 Vector   96  Occ=0.000000D+00  E= 6.974865D+00
              MO Center=  3.9D-10, -2.9D-11,  2.5D+00, r^2= 3.3D-01
   Bfn.  Coefficient  Atom+Function         Bfn.  Coefficient  Atom+Function  
  ----- ------------  ---------------      ----- ------------  ---------------
   112      2.133036  2 F  fxzz             115     -1.279698  2 F  fyzz       
   107     -0.491971  2 F  fxxx             110     -0.491970  2 F  fxyy       
   108      0.295153  2 F  fxxy             113      0.295154  2 F  fyyy       
    89     -0.043412  2 F  px                90      0.026045  2 F  py         
 
 Vector   97  Occ=0.000000D+00  E= 6.989928D+00
              MO Center=  2.0D-09,  2.1D-09,  2.5D+00, r^2= 3.3D-01
   Bfn.  Coefficient  Atom+Function         Bfn.  Coefficient  Atom+Function  
  ----- ------------  ---------------      ----- ------------  ---------------
   111      3.872982  2 F  fxyz       
 
 Vector   98  Occ=0.000000D+00  E= 6.989928D+00
              MO Center=  2.0D-09,  2.1D-09,  2.5D+00, r^2= 3.3D-01
   Bfn.  Coefficient  Atom+Function         Bfn.  Coefficient  Atom+Function  
  ----- ------------  ---------------      ----- ------------  ---------------
   109      1.936491  2 F  fxxz             114     -1.936491  2 F  fyyz       
 
 Vector   99  Occ=0.000000D+00  E= 7.014956D+00
              MO Center=  3.1D-09,  3.2D-09,  2.5D+00, r^2= 3.3D-01
   Bfn.  Coefficient  Atom+Function         Bfn.  Coefficient  Atom+Function  
  ----- ------------  ---------------      ----- ------------  ---------------
   108      2.248672  2 F  fxxy             110      0.753972  2 F  fxyy       
   113     -0.749557  2 F  fyyy             107     -0.251324  2 F  fxxx       
 
 Vector  100  Occ=0.000000D+00  E= 7.014956D+00
              MO Center=  3.1D-09,  3.2D-09,  2.5D+00, r^2= 3.3D-01
   Bfn.  Coefficient  Atom+Function         Bfn.  Coefficient  Atom+Function  
  ----- ------------  ---------------      ----- ------------  ---------------
   110      2.248672  2 F  fxyy             108     -0.753972  2 F  fxxy       
   107     -0.749557  2 F  fxxx             113      0.251324  2 F  fyyy       
 
 Vector  101  Occ=0.000000D+00  E= 7.482905D+00
              MO Center= -1.5D-08, -9.8D-08,  2.5D+00, r^2= 5.2D-01
   Bfn.  Coefficient  Atom+Function         Bfn.  Coefficient  Atom+Function  
  ----- ------------  ---------------      ----- ------------  ---------------
    90      2.233866  2 F  py               108     -1.812638  2 F  fxxy       
   113     -1.812638  2 F  fyyy             115     -1.749684  2 F  fyzz       
    87      0.776432  2 F  py                93     -0.540207  2 F  py         
    89      0.355442  2 F  px               107     -0.288418  2 F  fxxx       
   110     -0.288418  2 F  fxyy             112     -0.278401  2 F  fxzz       
 
 Vector  102  Occ=0.000000D+00  E= 7.482905D+00
              MO Center= -6.8D-08,  1.1D-08,  2.5D+00, r^2= 5.2D-01
   Bfn.  Coefficient  Atom+Function         Bfn.  Coefficient  Atom+Function  
  ----- ------------  ---------------      ----- ------------  ---------------
    89      2.233866  2 F  px               107     -1.812638  2 F  fxxx       
   110     -1.812638  2 F  fxyy             112     -1.749684  2 F  fxzz       
    86      0.776432  2 F  px                92     -0.540207  2 F  px         
    90     -0.355442  2 F  py               108      0.288418  2 F  fxxy       
   113      0.288418  2 F  fyyy             115      0.278401  2 F  fyzz       
 
 Vector  103  Occ=0.000000D+00  E= 7.494574D+00
              MO Center=  4.8D-08,  5.1D-08,  2.5D+00, r^2= 5.5D-01
   Bfn.  Coefficient  Atom+Function         Bfn.  Coefficient  Atom+Function  
  ----- ------------  ---------------      ----- ------------  ---------------
    91      2.356324  2 F  pz               109     -1.873629  2 F  fxxz       
   114     -1.873629  2 F  fyyz             116     -1.830131  2 F  fzzz       
     6      0.952058  1 Cr s                  5     -0.865092  1 Cr s          
    88      0.770083  2 F  pz                84     -0.691115  2 F  s          
    94     -0.632159  2 F  pz                83      0.338693  2 F  s          
 
 Vector  104  Occ=0.000000D+00  E= 8.284607D+00
              MO Center= -6.4D-09, -1.2D-08,  2.5D+00, r^2= 2.4D-01
   Bfn.  Coefficient  Atom+Function         Bfn.  Coefficient  Atom+Function  
  ----- ------------  ---------------      ----- ------------  ---------------
    99      1.762924  2 F  dyz               97      0.959557  2 F  dxz        
   105     -0.889638  2 F  dyz              103     -0.484229  2 F  dxz        
    90     -0.025497  2 F  py         
 
 Vector  105  Occ=0.000000D+00  E= 8.284607D+00
              MO Center= -2.9D-09,  2.4D-09,  2.5D+00, r^2= 2.4D-01
   Bfn.  Coefficient  Atom+Function         Bfn.  Coefficient  Atom+Function  
  ----- ------------  ---------------      ----- ------------  ---------------
    97      1.762924  2 F  dxz               99     -0.959557  2 F  dyz        
   103     -0.889638  2 F  dxz              105      0.484229  2 F  dyz        
    89     -0.025497  2 F  px         
 
 Vector  106  Occ=0.000000D+00  E= 8.286804D+00
              MO Center=  1.7D-08,  1.8D-08,  2.5D+00, r^2= 2.6D-01
   Bfn.  Coefficient  Atom+Function         Bfn.  Coefficient  Atom+Function  
  ----- ------------  ---------------      ----- ------------  ---------------
   100      1.158396  2 F  dzz                6      0.607387  1 Cr s          
   106     -0.598615  2 F  dzz               95     -0.579924  2 F  dxx        
    98     -0.579924  2 F  dyy              101      0.286970  2 F  dxx        
   104      0.286970  2 F  dyy               45     -0.204973  1 Cr dzz        
    40     -0.176013  1 Cr dxx               43     -0.176013  1 Cr dyy        
 
 Vector  107  Occ=0.000000D+00  E= 8.319174D+00
              MO Center=  6.1D-09,  6.4D-09,  2.5D+00, r^2= 2.4D-01
   Bfn.  Coefficient  Atom+Function         Bfn.  Coefficient  Atom+Function  
  ----- ------------  ---------------      ----- ------------  ---------------
    95      1.003495  2 F  dxx               98     -1.003495  2 F  dyy        
   101     -0.504860  2 F  dxx              104      0.504860  2 F  dyy        
 
 Vector  108  Occ=0.000000D+00  E= 8.319174D+00
              MO Center=  6.1D-09,  6.4D-09,  2.5D+00, r^2= 2.4D-01
   Bfn.  Coefficient  Atom+Function         Bfn.  Coefficient  Atom+Function  
  ----- ------------  ---------------      ----- ------------  ---------------
    96      2.006989  2 F  dxy              102     -1.009721  2 F  dxy        
 
 Vector  109  Occ=0.000000D+00  E= 8.571628D+00
              MO Center=  3.6D-08,  3.7D-08,  2.4D+00, r^2= 5.3D-01
   Bfn.  Coefficient  Atom+Function         Bfn.  Coefficient  Atom+Function  
  ----- ------------  ---------------      ----- ------------  ---------------
    84     38.606894  2 F  s                 83    -20.159025  2 F  s          
   101    -10.245746  2 F  dxx              104    -10.245746  2 F  dyy        
   106    -10.238060  2 F  dzz              100     -0.630424  2 F  dzz        
    95     -0.621931  2 F  dxx               98     -0.621931  2 F  dyy        
    82      0.282827  2 F  s                 81      0.169337  2 F  s          
 
 Vector  110  Occ=0.000000D+00  E= 1.193558D+01
              MO Center= -8.1D-09, -7.7D-09, -9.2D-01, r^2= 4.2D-01
   Bfn.  Coefficient  Atom+Function         Bfn.  Coefficient  Atom+Function  
  ----- ------------  ---------------      ----- ------------  ---------------
    13      2.624338  1 Cr px                14      2.440633  1 Cr py         
    10      2.122498  1 Cr px                46     -2.059690  1 Cr fxxx       
    49     -2.059689  1 Cr fxyy              51     -2.059170  1 Cr fxzz       
    11      1.973923  1 Cr py                47     -1.915511  1 Cr fxxy       
    52     -1.915511  1 Cr fyyy              54     -1.915028  1 Cr fyzz       
 
 Vector  111  Occ=0.000000D+00  E= 1.193558D+01
              MO Center= -8.1D-10, -1.7D-09, -9.2D-01, r^2= 4.2D-01
   Bfn.  Coefficient  Atom+Function         Bfn.  Coefficient  Atom+Function  
  ----- ------------  ---------------      ----- ------------  ---------------
    14     -2.624338  1 Cr py                13      2.440633  1 Cr px         
    11     -2.122498  1 Cr py                47      2.059689  1 Cr fxxy       
    52      2.059690  1 Cr fyyy              54      2.059170  1 Cr fyzz       
    10      1.973923  1 Cr px                46     -1.915511  1 Cr fxxx       
    49     -1.915511  1 Cr fxyy              51     -1.915028  1 Cr fxzz       
 
 Vector  112  Occ=0.000000D+00  E= 1.194236D+01
              MO Center= -1.2D-09, -1.2D-09, -9.2D-01, r^2= 4.3D-01
   Bfn.  Coefficient  Atom+Function         Bfn.  Coefficient  Atom+Function  
  ----- ------------  ---------------      ----- ------------  ---------------
    15      3.605839  1 Cr pz                12      2.894685  1 Cr pz         
    48     -2.816089  1 Cr fxxz              53     -2.816089  1 Cr fyyz       
    55     -2.816138  1 Cr fzzz              58     -2.178370  1 Cr fxxz       
    63     -2.178370  1 Cr fyyz              65     -2.176457  1 Cr fzzz       
     9     -0.729326  1 Cr pz                18      0.706052  1 Cr pz         
 
 Vector  113  Occ=0.000000D+00  E= 2.213474D+01
              MO Center= -1.6D-10, -1.6D-10,  2.5D+00, r^2= 2.3D-01
   Bfn.  Coefficient  Atom+Function         Bfn.  Coefficient  Atom+Function  
  ----- ------------  ---------------      ----- ------------  ---------------
    84     11.960217  2 F  s                101     -3.559560  2 F  dxx        
   104     -3.559560  2 F  dyy              106     -3.556797  2 F  dzz        
    95     -3.214119  2 F  dxx               98     -3.214119  2 F  dyy        
   100     -3.214659  2 F  dzz               82     -1.949173  2 F  s          
    83      1.655929  2 F  s                 85      0.312129  2 F  s          
 
 Vector  114  Occ=0.000000D+00  E= 3.146899D+01
              MO Center=  5.3D-09,  5.5D-09, -9.2D-01, r^2= 4.4D-01
   Bfn.  Coefficient  Atom+Function         Bfn.  Coefficient  Atom+Function  
  ----- ------------  ---------------      ----- ------------  ---------------
     3     33.506752  1 Cr s                  4    -33.011968  1 Cr s          
    69     10.372927  1 Cr gxxyy             71     10.377568  1 Cr gxxzz      
    78     10.377568  1 Cr gyyzz             22     -8.321193  1 Cr dxx        
    25     -8.321193  1 Cr dyy               27     -8.321250  1 Cr dzz        
     2      7.617252  1 Cr s                 66      5.186463  1 Cr gxxxx      
 
 Vector  115  Occ=0.000000D+00  E= 3.963118D+01
              MO Center= -5.6D-10, -5.9D-10, -9.2D-01, r^2= 1.1D+00
   Bfn.  Coefficient  Atom+Function         Bfn.  Coefficient  Atom+Function  
  ----- ------------  ---------------      ----- ------------  ---------------
     4     36.405233  1 Cr s                 22    -16.716360  1 Cr dxx        
    25    -16.716360  1 Cr dyy               27    -16.717111  1 Cr dzz        
     3     11.532819  1 Cr s                 33     -4.382854  1 Cr dzz        
    28     -4.342306  1 Cr dxx               31     -4.342306  1 Cr dyy        
    69     -3.487576  1 Cr gxxyy             71     -3.469277  1 Cr gxxzz      
 
 Vector  116  Occ=0.000000D+00  E= 9.527827D+01
              MO Center= -1.6D-12, -1.7D-12,  2.5D+00, r^2= 6.9D-02
   Bfn.  Coefficient  Atom+Function         Bfn.  Coefficient  Atom+Function  
  ----- ------------  ---------------      ----- ------------  ---------------
    83     12.519423  2 F  s                 84     -8.037103  2 F  s          
    82     -4.282398  2 F  s                 95     -2.701066  2 F  dxx        
    98     -2.701066  2 F  dyy              100     -2.702174  2 F  dzz        
    81      1.721881  2 F  s                101      1.501305  2 F  dxx        
   104      1.501305  2 F  dyy              106      1.503862  2 F  dzz        
 

   alpha - beta orbital overlaps 
   ----------------------------- 


   alpha      1      2      3      4      5      6      7      8      9     10
    beta      1      3      2      5      6      4      7      8      9     10
 overlap   1.000  1.000  1.000  1.000  1.000  1.000  1.000  1.000  1.000  1.000


   alpha     11     12     13     14     15     16     17     18     19     20
    beta     11     17     18     12     19     20     17     18     16     15
 overlap   1.000  0.679  0.679  0.721  0.993  0.993  0.722  0.722  0.671  0.702


   alpha     21     22     23     24     25     26     27     28     29     30
    beta     21     22     23     24     26     25     27     28     29     30
 overlap   0.994  0.994  0.985  0.978  0.993  0.992  0.987  0.987  0.978  0.979


   alpha     31     32     33     34     35     36     37     38     39     40
    beta     31     32     33     34     35     36     37     38     39     40
 overlap   0.995  0.995  0.975  0.983  0.997  0.997  0.996  0.996  0.988  0.998


   alpha     41     42     43     44     45     46     47     48     49     50
    beta     41     42     43     44     45     46     47     52     53     50
 overlap   0.998  0.965  0.963  0.991  0.999  0.999  0.998  0.999  0.999  1.000


   alpha     51     52     53     54     55     56     57     58     59     60
    beta     51     49     48     54     59     58     56     57     55     61
 overlap   1.000  1.000  1.000  0.999  1.000  1.000  0.999  0.999  0.990  0.999


   alpha     61     62     63     64     65     66     67     68     69     70
    beta     60     63     62     64     65     66     67     68     69     70
 overlap   0.999  1.000  1.000  0.990  1.000  1.000  1.000  1.000  1.000  0.909


   alpha     71     72     73     74     75     76     77     78     79     80
    beta     71     72     73     74     75     76     77     79     80     78
 overlap   0.909  1.000  1.000  1.000  1.000  1.000  1.000  1.000  1.000  1.000


   alpha     81     82     83     84     85     86     87     88     89     90
    beta     81     82     83     84     85     86     92     93     87     88
 overlap   1.000  1.000  1.000  1.000  1.000  1.000  1.000  1.000  1.000  1.000


   alpha     91     92     93     94     95     96     97     98     99    100
    beta     90     91     89     96     95     94     98     97    100     99
 overlap   0.997  0.997  1.000  0.796  0.796  1.000  1.000  1.000  0.943  0.943


   alpha    101    102    103    104    105    106    107    108    109    110
    beta    101    102    103    107    108    105    104    106    109    110
 overlap   0.989  0.989  1.000  1.000  1.000  0.786  0.786  0.999  0.999  1.000


   alpha    111    112    113    114    115    116
    beta    111    112    113    114    115    116
 overlap   1.000  1.000  1.000  1.000  1.000  1.000

     --------------------------
     Expectation value of S2:  
     --------------------------
      <S2> =      9.1124 (Exact =     8.7500)
 

 center of mass
 --------------
 x =   0.00000000 y =   0.00000000 z =  -0.03134589

 moments of inertia (a.u.)
 ------------------
         566.085555812849           0.000000000000           0.000000000000
           0.000000000000         566.085555812849           0.000000000000
           0.000000000000           0.000000000000           0.000000000000
 
     Multipole analysis of the density
     ---------------------------------
 
     L   x y z        total         alpha         beta         nuclear
     -   - - -        -----         -----         ----         -------
     0   0 0 0     -0.000000    -19.000000    -14.000000     33.000000
 
     1   1 0 0     -0.000003     -0.000003      0.000000      0.000000
     1   0 1 0     -0.000003     -0.000003      0.000000      0.000000
     1   0 0 1     -3.166215      4.245820     -7.412035      0.000000
 
     2   2 0 0    -14.489577    -10.623823     -3.865754      0.000000
     2   1 1 0     -0.000000     -0.000000     -0.000000      0.000000
     2   1 0 1      0.000006      0.000006      0.000000      0.000000
     2   0 2 0    -14.489577    -10.623823     -3.865754      0.000000
     2   0 1 1      0.000007      0.000006      0.000000      0.000000
     2   0 0 2    -22.119005   -150.553117   -137.934582    266.368694
 

 Parallel integral file used      69 records with       0 large values


 Task  times  cpu:      306.8s     wall:      311.0s
 
 
                                NWChem Input Module
                                -------------------
 
 
 Summary of allocated global arrays
-----------------------------------
  No active global arrays



                         GA Statistics for process    0
                         ------------------------------

       create   destroy   get      put      acc     scatter   gather  read&inc
calls: 1303     1303     1.42e+04 1.06e+04 2747        0        0       71     
number of processes/call 1.54e+00 1.16e+00 2.08e+00 0.00e+00 0.00e+00
bytes total:             3.46e+08 9.18e+07 1.59e+08 0.00e+00 0.00e+00 5.68e+02
bytes remote:            1.24e+08 1.51e+07 6.14e+07 0.00e+00 0.00e+00 0.00e+00
Max memory consumed for GA by this process: 3553792 bytes
 
MA_summarize_allocated_blocks: starting scan ...
MA_summarize_allocated_blocks: scan completed: 0 heap blocks, 0 stack blocks
MA usage statistics:

	allocation statistics:
					      heap	     stack
					      ----	     -----
	current number of blocks	         0	         0
	maximum number of blocks	        21	        51
	current total bytes		         0	         0
	maximum total bytes		  95443552	  42758136
	maximum total K-bytes		     95444	     42759
	maximum total M-bytes		        96	        43
 
 
                                     CITATION
                                     --------
                Please cite the following reference when publishing
                           results obtained with NWChem:
 
                 M. Valiev, E.J. Bylaska, N. Govind, K. Kowalski,
              T.P. Straatsma, H.J.J. van Dam, D. Wang, J. Nieplocha,
                        E. Apra, T.L. Windus, W.A. de Jong
                 "NWChem: a comprehensive and scalable open-source
                  solution for large scale molecular simulations"
                      Comput. Phys. Commun. 181, 1477 (2010)
                           doi:10.1016/j.cpc.2010.04.018
 
                                      AUTHORS
                                      -------
          E. Apra, E. J. Bylaska, W. A. de Jong, N. Govind, K. Kowalski,
       T. P. Straatsma, M. Valiev, H. J. J. van Dam, D. Wang, T. L. Windus,
        J. Hammond, J. Autschbach, K. Bhaskaran-Nair, J. Brabec, K. Lopata,
    S. A. Fischer, S. Krishnamoorthy, M. Jacquelin, W. Ma, M. Klemm, O. Villa,
      Y. Chen, V. Anisimov, F. Aquino, S. Hirata, M. T. Hackler, V. Konjkov,
            D. Mejia-Rodriguez, T. Risthaus, M. Malagoli, A. Marenich,
   A. Otero-de-la-Roza, J. Mullin, P. Nichols, R. Peverati, J. Pittner, Y. Zhao,
        P.-D. Fan, A. Fonari, M. J. Williamson, R. J. Harrison, J. R. Rehr,
      M. Dupuis, D. Silverstein, D. M. A. Smith, J. Nieplocha, V. Tipparaju,
    M. Krishnan, B. E. Van Kuiken, A. Vazquez-Mayagoitia, L. Jensen, M. Swart,
      Q. Wu, T. Van Voorhis, A. A. Auer, M. Nooijen, L. D. Crosby, E. Brown,
      G. Cisneros, G. I. Fann, H. Fruchtl, J. Garza, K. Hirao, R. A. Kendall,
      J. A. Nichols, K. Tsemekhman, K. Wolinski, J. Anchell, D. E. Bernholdt,
      P. Borowski, T. Clark, D. Clerc, H. Dachsel, M. J. O. Deegan, K. Dyall,
    D. Elwood, E. Glendening, M. Gutowski, A. C. Hess, J. Jaffe, B. G. Johnson,
     J. Ju, R. Kobayashi, R. Kutteh, Z. Lin, R. Littlefield, X. Long, B. Meng,
      T. Nakajima, S. Niu, L. Pollack, M. Rosing, K. Glaesemann, G. Sandrone,
      M. Stave, H. Taylor, G. Thomas, J. H. van Lenthe, A. T. Wong, Z. Zhang.

 Total times  cpu:      307.1s     wall:      311.3s
