 argument  1 = /home/kohn/work/DATASETS/NWCHEM/rabeet/tm10/nwtpss/MnO.nw
  NWChem w/ OpenMP: maximum threads =  1
                                         
                                         
 
 
              Northwest Computational Chemistry Package (NWChem) 6.8
              ------------------------------------------------------
 
 
                    Environmental Molecular Sciences Laboratory
                       Pacific Northwest National Laboratory
                                Richland, WA 99352
 
                              Copyright (c) 1994-2017
                       Pacific Northwest National Laboratory
                            Battelle Memorial Institute
 
             NWChem is an open-source computational chemistry package
                        distributed under the terms of the
                      Educational Community License (ECL) 2.0
             A copy of the license is included with this distribution
                              in the LICENSE.TXT file
 
                                  ACKNOWLEDGMENT
                                  --------------

            This software and its documentation were developed at the
            EMSL at Pacific Northwest National Laboratory, a multiprogram
            national laboratory, operated for the U.S. Department of Energy
            by Battelle under Contract Number DE-AC05-76RL01830. Support
            for this work was provided by the Department of Energy Office
            of Biological and Environmental Research, Office of Basic
            Energy Sciences, and the Office of Advanced Scientific Computing.


           Job information
           ---------------

    hostname        = kohn
    program         = nwchem
    date            = Thu Sep 27 15:46:28 2018

    compiled        = Wed_Sep_26_21:04:37_2018
    source          = /home/kohn/softwares/nwchem/nwchem-6.8
    nwchem branch   = 6.8
    nwchem revision = v6.8-47-gdf6c956
    ga revision     = ga-5.6.3
    use scalapack   = F
    input           = /home/kohn/work/DATASETS/NWCHEM/rabeet/tm10/nwtpss/MnO.nw
    prefix          = MnO.
    data base       = ./MnO.db
    status          = startup
    nproc           =        4
    time left       =     -1s



           Memory information
           ------------------

    heap     =   13107198 doubles =    100.0 Mbytes
    stack    =   13107195 doubles =    100.0 Mbytes
    global   =   26214400 doubles =    200.0 Mbytes (distinct from heap & stack)
    total    =   52428793 doubles =    400.0 Mbytes
    verify   = yes
    hardfail = no 


           Directory information
           ---------------------
 
  0 permanent = .
  0 scratch   = .
 
 
 
 
                                NWChem Input Module
                                -------------------
 
 

 Scaling coordinates for geometry "geometry" by  1.889725989
 (inverse scale =  0.529177249)


          ------
          auto-z
          ------
     1 autoz failed with cvr_scaling = 1.2 changing to 1.3
     2 autoz failed with cvr_scaling = 1.3 changing to 1.4
     3 autoz failed with cvr_scaling = 1.4 changing to 1.5
     4 autoz failed with cvr_scaling = 1.5 changing to 1.6
 
 
                             Geometry "geometry" -> ""
                             -------------------------
 
 Output coordinates in angstroms (scale by  1.889725989 to convert to a.u.)
 
  No.       Tag          Charge          X              Y              Z
 ---- ---------------- ---------- -------------- -------------- --------------
    1 Mn                  25.0000     0.00000000     0.00000000    -0.74632000
    2 O                    8.0000     0.00000000     0.00000000     2.33225000
 
      Atomic Mass 
      ----------- 
 
      Mn                54.938100
      O                 15.994910
 

 Effective nuclear repulsion energy (a.u.)      34.3781202961

            Nuclear Dipole moment (a.u.) 
            ----------------------------
        X                 Y               Z
 ---------------- ---------------- ----------------
     0.0000000000     0.0000000000     0.0000000000
 


                                Z-matrix (autoz)
                                -------- 

 Units are Angstrom for bonds and degrees for angles
 
      Type          Name      I     J     K     L     M      Value
      ----------- --------  ----- ----- ----- ----- ----- ----------
    1 Stretch                  1     2                       3.07857
 
 
            XYZ format geometry
            -------------------
     2
 geometry
 Mn                    0.00000000     0.00000000    -0.74632000
 O                     0.00000000     0.00000000     2.33225000
 


 Summary of "ao basis" -> "" (cartesian)
 ------------------------------------------------------------------------------
       Tag                 Description            Shells   Functions and Types
 ---------------- ------------------------------  ------  ---------------------
 *                         def2-TZVPP                 on all atoms 


 
                                 NWChem DFT Module
                                 -----------------
 
 
                      Basis "ao basis" -> "ao basis" (cartesian)
                      -----
  Mn (Manganese)
  --------------
            Exponent  Coefficients 
       -------------- ---------------------------------------------------------
  1 S  2.77185002E+05  0.000228
  1 S  4.15507699E+04  0.001771
  1 S  9.45597002E+03  0.009208
  1 S  2.67652065E+03  0.037416
  1 S  8.71466875E+02  0.121649
  1 S  3.12983064E+02  0.288244
  1 S  1.21444541E+02  0.410416
  1 S  4.79225988E+01  0.213724
 
  2 S  3.03667232E+02 -0.024590
  2 S  9.38814032E+01 -0.116026
  2 S  1.48794212E+01  0.551121
  2 S  6.28652007E+00  0.537076
 
  3 S  9.48585913E+00 -0.228893
  3 S  1.56987062E+00  0.711962
 
  4 S  6.59032136E-01  1.000000
 
  5 S  1.06862924E-01  1.000000
 
  6 S  3.92674354E-02  1.000000
 
  7 P  1.44479782E+03  0.002399
  7 P  3.42065512E+02  0.019369
  7 P  1.09584009E+02  0.090236
  7 P  4.07479882E+01  0.257455
  7 P  1.61886266E+01  0.412724
  7 P  6.54845060E+00  0.240877
 
  8 P  2.53570864E+01 -0.028707
  8 P  3.48301688E+00  0.552081
  8 P  1.38588009E+00  0.972269
 
  9 P  5.25550949E-01  1.000000
 
 10 P  1.99300000E-01  1.000000
 
 11 P  7.55700000E-02  1.000000
 
 12 D  5.65631891E+01  0.011543
 12 D  1.62787347E+01  0.070300
 12 D  5.69642739E+00  0.224508
 12 D  2.14111479E+00  0.397031
 
 13 D  7.82918019E-01  1.000000
 
 14 D  2.59523112E-01  1.000000
 
 15 D  8.60000000E-02  1.000000
 
 16 F  2.97500000E+00  1.000000
 
 17 F  7.20000000E-01  1.000000
 
 18 G  1.75500000E+00  1.000000
 
  O (Oxygen)
  ----------
            Exponent  Coefficients 
       -------------- ---------------------------------------------------------
  1 S  2.70323826E+04  0.000217
  1 S  4.05238714E+03  0.001684
  1 S  9.22327227E+02  0.008740
  1 S  2.61240710E+02  0.035240
  1 S  8.53546414E+01  0.111535
  1 S  3.10350352E+01  0.255890
 
  2 S  1.22608607E+01  0.397687
  2 S  4.99870760E+00  0.246278
 
  3 S  1.17031082E+00  1.000000
 
  4 S  4.64747410E-01  1.000000
 
  5 S  1.85045364E-01  1.000000
 
  6 P  6.32749548E+01  0.006069
  6 P  1.46270494E+01  0.041913
  6 P  4.45012235E+00  0.161538
  6 P  1.52757996E+00  0.357070
 
  7 P  5.29351179E-01  1.000000
 
  8 P  1.74784213E-01  1.000000
 
  9 D  2.31400000E+00  1.000000
 
 10 D  6.45000000E-01  1.000000
 
 11 F  1.42800000E+00  1.000000
 


 Summary of "ao basis" -> "ao basis" (cartesian)
 ------------------------------------------------------------------------------
       Tag                 Description            Shells   Functions and Types
 ---------------- ------------------------------  ------  ---------------------
 Mn                        def2-TZVPP               18       80   6s5p4d2f1g
 O                         def2-TZVPP               11       36   5s3p2d1f




 Summary of "ao basis" -> "ao basis" (cartesian)
 ------------------------------------------------------------------------------
       Tag                 Description            Shells   Functions and Types
 ---------------- ------------------------------  ------  ---------------------
 Mn                        def2-TZVPP               18       80   6s5p4d2f1g
 O                         def2-TZVPP               11       36   5s3p2d1f


  Caching 1-el integrals 
 
            General Information
            -------------------
          SCF calculation type: DFT
          Wavefunction type:  spin polarized.
          No. of atoms     :     2
          No. of electrons :    33
           Alpha electrons :    19
            Beta electrons :    14
          Charge           :     0
          Spin multiplicity:     6
          Use of symmetry is: off; symmetry adaption is: off
          Maximum number of iterations: ***
          AO basis - number of functions:   116
                     number of shells:    29
          Convergence on energy requested:  1.00D-06
          Convergence on density requested:  1.00D-05
          Convergence on gradient requested:  5.00D-04
 
              XC Information
              --------------
                  TPSS metaGGA Exchange Functional  1.000          
             TPSS03 metaGGA Correlation Functional  1.000          
 
             Grid Information
             ----------------
          Grid used for XC integration:  medium    
          Radial quadrature: Mura-Knowles        
          Angular quadrature: Lebedev. 
          Tag              B.-S. Rad. Rad. Pts. Rad. Cut. Ang. Pts.
          ---              ---------- --------- --------- ---------
          Mn                  1.40      112           8.0       590
          O                   0.60       49          11.0       434
          Grid pruning is: on 
          Number of quadrature shells:   161
          Spatial weights used:  Erf1
 
          Convergence Information
          -----------------------
          Convergence aids based upon iterative change in 
          total energy or number of iterations. 
          Levelshifting, if invoked, occurs when the 
          HOMO/LUMO gap drops below (HL_TOL):  1.00D-02
          DIIS, if invoked, will attempt to extrapolate 
          using up to (NFOCK): 10 stored Fock matrices.

                    Damping( 0%)  Levelshifting(0.5)       DIIS
                  --------------- ------------------- ---------------
          dE  on:    start            ASAP                start   
          dE off:    2 iters        *** iters           *** iters 

 
      Screening Tolerance Information
      -------------------------------
          Density screening/tol_rho:  1.00D-10
          AO Gaussian exp screening on grid/accAOfunc:  14
          CD Gaussian exp screening on grid/accCDfunc:  20
          XC Gaussian exp screening on grid/accXCfunc:  20
          Schwarz screening/accCoul:  1.00D-08

 
      Superposition of Atomic Density Guess
      -------------------------------------
 
 Sum of atomic energies:       -1224.41134385
 
      Non-variational initial energy
      ------------------------------

 Total energy =   -1222.928075
 1-e energy   =   -1756.489148
 2-e energy   =     499.182954
 HOMO         =      -0.175849
 LUMO         =      -0.175637
 
   Time after variat. SCF:      5.7
   Time prior to 1st pass:      5.8

 Integral file          = ./MnO.aoints.0
 Record size in doubles =    65536    No. of integs per rec  =    43688
 Max. records in memory =      180    Max. records in file   =  1479058
 No. of bits per label  =        8    No. of bits per value  =       64


 #quartets = 7.094D+04 #integrals = 3.227D+06 #direct =  0.0% #cached =100.0%


File balance: exchanges=     4  moved=     5  time=   0.1


 Grid_pts file          = ./MnO.gridpts.0
 Record size in doubles =  12289        No. of grid_pts per rec  =   3070
 Max. records in memory =     10        Max. recs in file   =   7887672


           Memory utilization after 1st SCF pass: 
           Heap Space remaining (MW):        1.18             1176710
          Stack Space remaining (MW):       13.11            13106156

   convergence    iter        energy       DeltaE   RMS-Dens  Diis-err    time
 ---------------- ----- ----------------- --------- --------- ---------  ------
 d= 0,ls=0.0,diis     1  -1224.7185675921 -1.26D+03  2.58D-02  2.87D+00    11.3
                                                     3.30D-02  1.35D+00
 d= 0,ls=0.5,diis     2  -1200.4518061616  2.43D+01  9.59D-03  4.72D+01    14.6
                                                     6.87D-03  3.43D+01
 d= 0,ls=0.5,diis     3  -1205.0528402228 -4.60D+00  6.03D-03  3.28D+01    18.4
                                                     2.24D-03  1.86D+01
 d= 0,ls=0.5,diis     4  -1208.9183359371 -3.87D+00  2.67D-03  3.04D+01    22.6
                                                     8.50D-04  1.52D+01
 d= 0,ls=0.5,diis     5  -1210.2333752739 -1.32D+00  3.62D-03  2.37D+01    27.1
                                                     1.62D-02  1.42D+01
 d= 0,ls=0.5,diis     6  -1217.1058875572 -6.87D+00  3.20D-03  1.16D+01    31.4
                                                     1.22D-03  7.23D+00
 d= 0,ls=0.5,diis     7  -1218.2007609878 -1.09D+00  4.21D-03  1.27D+01    35.9
                                                     1.09D-03  6.39D+00
 d= 0,ls=0.5,diis     8  -1220.2287363109 -2.03D+00  1.30D-03  1.49D+01    40.5
                                                     8.59D-04  6.14D+00
 d= 0,ls=0.5,diis     9  -1220.3843180984 -1.56D-01  9.01D-04  1.44D+01    44.4
                                                     3.97D-04  5.84D+00
 d= 0,ls=0.5,diis    10  -1220.5495017781 -1.65D-01  6.13D-04  1.41D+01    48.2
                                                     2.12D-04  5.66D+00
 d= 0,ls=0.5,diis    11  -1220.7120787811 -1.63D-01  7.65D-02  1.36D+01    53.0
                                                     2.44D-02  5.49D+00
 d= 0,ls=0.5,diis    12  -1209.2286103770  1.15D+01  5.73D-02  2.83D+01    57.0
                                                     4.03D-03  1.89D+01
 d= 0,ls=0.5,diis    13  -1218.8386945160 -9.61D+00  1.83D-02  1.47D+01    60.9
                                                     2.12D-03  5.84D+00
 d= 0,ls=0.5,diis    14  -1221.8101879568 -2.97D+00  1.00D-02  1.06D+01    65.2
                                                     1.23D-03  3.10D+00
 d= 0,ls=0.5,diis    15  -1223.4726776197 -1.66D+00  8.73D-03  6.10D+00    70.4
                                                     2.96D-03  1.82D+00
 d= 0,ls=0.5,diis    16  -1224.7884473523 -1.32D+00  5.70D-03  2.19D+00    74.3
                                                     4.00D-03  8.77D-01
 d= 0,ls=0.5,diis    17  -1225.5179891157 -7.30D-01  2.71D-03  4.85D-01    79.5
                                                     4.62D-03  6.23D-01
 d= 0,ls=0.5,diis    18  -1225.8825267985 -3.65D-01  1.56D-03  2.25D-02    85.5
                                                     3.89D-03  1.10D-01
 d= 0,ls=0.5,diis    19  -1225.9395776075 -5.71D-02  9.35D-04  9.24D-02    90.3
                                                     4.17D-03  5.64D-02
 d= 0,ls=0.5,diis    20  -1225.7725135594  1.67D-01  6.29D-04  5.74D-01    94.8
                                                     3.07D-03  7.19D-01
 d= 0,ls=0.5,diis    21  -1225.5329076209  2.40D-01  3.88D-04  1.12D+00    98.7
                                                     2.43D-03  1.42D+00
 d= 0,ls=0.5,diis    22  -1225.2811413302  2.52D-01  3.75D-04  1.67D+00   103.7
                                                     1.50D-03  1.90D+00
 d= 0,ls=0.5,diis    23  -1225.1510121043  1.30D-01  4.05D-04  1.92D+00   108.3
                                                     9.68D-04  2.00D+00
 d= 0,ls=0.5,diis    24  -1225.1008930317  5.01D-02  2.68D-04  1.95D+00   113.9
                                                     7.77D-04  1.92D+00
  Resetting Diis
 d= 0,ls=0.5,diis    25  -1225.0526596613  4.82D-02  3.01D-04  2.02D+00   117.8
                                                     5.33D-04  1.87D+00
 d= 0,ls=0.5,diis    26  -1225.0461828288  6.48D-03  3.32D-02  1.98D+00   121.6
                                                     2.21D-02  1.79D+00
 d= 0,ls=0.5,diis    27  -1220.0710282710  4.98D+00  9.22D-03  2.21D+01   126.2
                                                     3.11D-03  1.07D+01
 d= 0,ls=0.5,diis    28  -1222.0943323509 -2.02D+00  1.08D-02  1.26D+01   130.0
                                                     1.28D-03  4.53D+00
 d= 0,ls=0.5,diis    29  -1223.5343510298 -1.44D+00  7.79D-03  6.96D+00   134.9
                                                     1.26D-03  2.58D+00
 d= 0,ls=0.5,diis    30  -1224.2994414763 -7.65D-01  6.68D-03  4.22D+00   139.0
                                                     7.60D-04  1.65D+00
 d= 0,ls=0.5,diis    31  -1224.7088354537 -4.09D-01  4.73D-03  2.50D+00   143.0
                                                     1.40D-03  1.31D+00
 d= 0,ls=0.5,diis    32  -1225.1049567881 -3.96D-01  2.45D-03  1.34D+00   147.3
                                                     1.67D-03  9.70D-01
 d= 0,ls=0.5,diis    33  -1225.3421498240 -2.37D-01  1.18D-03  9.13D-01   151.3
                                                     9.78D-04  9.26D-01
 d= 0,ls=0.5,diis    34  -1225.4135960762 -7.14D-02  8.13D-04  8.64D-01   154.8
                                                     1.62D-03  9.93D-01
 d= 0,ls=0.5,diis    35  -1225.5779988037 -1.64D-01  7.64D-04  5.86D-01   159.2
                                                     3.57D-03  8.57D-01
 d= 0,ls=0.5,diis    36  -1225.8672152098 -2.89D-01  4.63D-04  1.11D-01   163.3
                                                     3.73D-03  2.86D-01
 d= 0,ls=0.5,diis    37  -1225.9744126747 -1.07D-01  3.76D-04  9.41D-03   167.4
                                                     2.35D-03  6.64D-03
 d= 0,ls=0.5,diis    38  -1225.9631546479  1.13D-02  2.72D-04  7.36D-02   170.8
                                                     1.89D-03  7.53D-02
 d= 0,ls=0.5,diis    39  -1225.9207088838  4.24D-02  1.22D-04  1.70D-01   175.3
                                                     1.87D-03  2.30D-01
 d= 0,ls=0.5,diis    40  -1225.8389517697  8.18D-02  3.09D-04  3.43D-01   179.8
                                                     1.12D-03  4.84D-01
 d= 0,ls=0.5,diis    41  -1225.7993621764  3.96D-02  2.00D-04  4.06D-01   184.4
                                                     9.01D-04  5.80D-01
 d= 0,ls=0.5,diis    42  -1225.7662486471  3.31D-02  1.15D-04  4.61D-01   188.1
                                                     8.36D-04  6.49D-01
 d= 0,ls=0.5,diis    43  -1225.7282775934  3.80D-02  7.94D-05  5.31D-01   192.8
                                                     7.39D-04  7.20D-01
 d= 0,ls=0.5,diis    44  -1225.6927251996  3.56D-02  6.58D-05  5.97D-01   197.3
                                                     6.27D-04  7.76D-01
 d= 0,ls=0.5,diis    45  -1225.6639453862  2.88D-02  4.87D-05  6.49D-01   201.5
                                                     5.51D-04  8.10D-01
 d= 0,ls=0.5,diis    46  -1225.6390970945  2.48D-02  8.32D-05  6.95D-01   205.8
                                                     4.34D-04  8.35D-01
 d= 0,ls=0.5,diis    47  -1225.6280857305  1.10D-02  5.74D-05  7.06D-01   210.1
                                                     3.77D-04  8.29D-01
 d= 0,ls=0.5,diis    48  -1225.6172559689  1.08D-02  7.29D-05  7.20D-01   213.1
                                                     3.09D-04  8.23D-01
 d= 0,ls=0.5,diis    49  -1225.6151435111  2.11D-03  4.22D-04  7.21D-01   216.9
                                                     5.04D-04  8.07D-01
 d= 0,ls=0.5,diis    50  -1225.6810812116 -6.59D-02  3.93D-04  5.59D-01   221.2
                                                     7.34D-04  6.55D-01
 d= 0,ls=0.5,diis    51  -1225.7636859346 -8.26D-02  3.13D-04  3.97D-01   225.5
                                                     6.20D-04  5.01D-01
 d= 0,ls=0.5,diis    52  -1225.8216837298 -5.80D-02  3.40D-04  2.94D-01   229.0
                                                     6.89D-04  3.84D-01
 d= 0,ls=0.5,diis    53  -1225.8778152530 -5.61D-02  9.30D-04  1.95D-01   232.9
                                                     1.28D-03  2.67D-01
 d= 0,ls=0.5,diis    54  -1225.9560230214 -7.82D-02  7.84D-04  4.77D-02   237.3
                                                     1.68D-03  9.24D-02
 d= 0,ls=0.5,diis    55  -1225.9984259354 -4.24D-02  3.47D-04  1.72D-03   242.5
                                                     8.17D-04  8.29D-03
 d= 0,ls=0.5,diis    56  -1226.0045286989 -6.10D-03  3.08D-04  1.25D-03   247.8
                                                     3.52D-04  1.35D-03
 d= 0,ls=0.5,diis    57  -1226.0061185040 -1.59D-03  2.12D-04  3.44D-04   252.6
                                                     1.94D-04  4.54D-04
 d= 0,ls=0.5,diis    58  -1226.0067353359 -6.17D-04  1.58D-04  4.81D-05   257.1
                                                     1.29D-04  2.60D-04
 d= 0,ls=0.5,diis    59  -1226.0069440404 -2.09D-04  1.05D-04  8.89D-05   264.1
                                                     1.00D-04  4.03D-04
 d= 0,ls=0.5,diis    60  -1226.0070116907 -6.77D-05  6.66D-05  2.69D-04   269.0
                                                     7.99D-05  5.85D-04
 d= 0,ls=0.5,diis    61  -1226.0070580490 -4.64D-05  4.47D-05  3.78D-04   272.8
                                                     6.37D-05  6.67D-04
 d= 0,ls=0.5,diis    62  -1226.0071368446 -7.88D-05  3.48D-05  3.40D-04   278.2
                                                     5.48D-05  5.81D-04
 d= 0,ls=0.5,diis    63  -1226.0072175650 -8.07D-05  3.13D-05  2.68D-04   282.7
                                                     5.00D-05  4.61D-04
 d= 0,ls=0.5,diis    64  -1226.0072748787 -5.73D-05  3.09D-05  2.29D-04   287.9
                                                     4.69D-05  3.87D-04
 d= 0,ls=0.5,diis    65  -1226.0073343237 -5.94D-05  3.15D-05  1.73D-04   292.7
                                                     4.44D-05  2.96D-04
 d= 0,ls=0.5,diis    66  -1226.0073828102 -4.85D-05  3.86D-05  1.35D-04   297.8
                                                     4.84D-05  2.31D-04
 d= 0,ls=0.5,diis    67  -1226.0074281259 -4.53D-05  5.50D-05  1.08D-04   302.9
                                                     6.93D-05  1.81D-04
 d= 0,ls=0.5,diis    68  -1226.0075025342 -7.44D-05  5.69D-05  4.50D-05   307.7
                                                     7.11D-05  8.41D-05
 d= 0,ls=0.5,diis    69  -1226.0075656252 -6.31D-05  5.64D-05  1.83D-05   311.6
                                                     7.42D-05  3.68D-05
 d= 0,ls=0.5,diis    70  -1226.0076170194 -5.14D-05  5.54D-05  2.63D-05   316.2
                                                     7.40D-05  2.99D-05
 d= 0,ls=0.5,diis    71  -1226.0076524537 -3.54D-05  6.02D-05  7.80D-05   321.5
                                                     7.36D-05  8.45D-05
 d= 0,ls=0.5,diis    72  -1226.0076917435 -3.93D-05  6.18D-05  1.29D-04   326.4
                                                     7.31D-05  1.54D-04
 d= 0,ls=0.5,diis    73  -1226.0077350924 -4.33D-05  5.76D-05  1.91D-04   331.4
                                                     6.68D-05  2.43D-04
 d= 0,ls=0.5,diis    74  -1226.0077805867 -4.55D-05  6.13D-05  2.59D-04   335.5
                                                     7.02D-05  3.38D-04
 d= 0,ls=0.5,diis    75  -1226.0078373558 -5.68D-05  5.65D-05  3.27D-04   339.9
                                                     6.50D-05  4.35D-04
 d= 0,ls=0.5,diis    76  -1226.0079304524 -9.31D-05  5.72D-05  3.27D-04   344.8
                                                     6.66D-05  4.44D-04
 d= 0,ls=0.5,diis    77  -1226.0080316094 -1.01D-04  6.05D-05  3.41D-04   349.6
                                                     7.08D-05  4.63D-04
 d= 0,ls=0.5,diis    78  -1226.0081447451 -1.13D-04  6.35D-05  3.69D-04   354.3
                                                     7.60D-05  4.93D-04
 d= 0,ls=0.5,diis    79  -1226.0082773027 -1.33D-04  6.82D-05  4.05D-04   358.8
                                                     7.96D-05  5.21D-04
 d= 0,ls=0.5,diis    80  -1226.0084206148 -1.43D-04  7.27D-05  4.56D-04   365.0
                                                     8.44D-05  5.75D-04
 d= 0,ls=0.5,diis    81  -1226.0085979749 -1.77D-04  7.92D-05  4.92D-04   369.4
                                                     8.93D-05  6.02D-04
 d= 0,ls=0.5,diis    82  -1226.0087983395 -2.00D-04  8.65D-05  5.36D-04   374.5
                                                     9.53D-05  6.42D-04
 d= 0,ls=0.5,diis    83  -1226.0090295121 -2.31D-04  9.77D-05  5.90D-04   378.7
                                                     1.06D-04  6.87D-04
 d= 0,ls=0.5,diis    84  -1226.0093113146 -2.82D-04  1.07D-04  6.40D-04   382.4
                                                     1.16D-04  7.24D-04
 d= 0,ls=0.5,diis    85  -1226.0096521161 -3.41D-04  1.21D-04  7.02D-04   387.7
                                                     1.28D-04  7.37D-04
 d= 0,ls=0.5,diis    86  -1226.0100509689 -3.99D-04  1.37D-04  7.80D-04   393.0
                                                     1.41D-04  7.88D-04
 d= 0,ls=0.5,diis    87  -1226.0105248222 -4.74D-04  1.48D-04  8.84D-04   399.0
                                                     1.53D-04  8.72D-04
 d= 0,ls=0.5,diis    88  -1226.0110547941 -5.30D-04  1.62D-04  1.10D-03   403.5
                                                     1.61D-04  1.04D-03
 d= 0,ls=0.5,diis    89  -1226.0116557569 -6.01D-04  1.84D-04  1.34D-03   407.6
                                                     1.81D-04  1.26D-03
 d= 0,ls=0.5,diis    90  -1226.0124066883 -7.51D-04  2.01D-04  1.53D-03   411.7
                                                     1.91D-04  1.44D-03
 d= 0,ls=0.5,diis    91  -1226.0132310871 -8.24D-04  2.20D-04  1.92D-03   416.8
                                                     2.01D-04  1.83D-03
 d= 0,ls=0.5,diis    92  -1226.0141605698 -9.29D-04  2.45D-04  2.42D-03   421.0
                                                     2.13D-04  2.32D-03
 d= 0,ls=0.5,diis    93  -1226.0151724658 -1.01D-03  3.12D-04  3.17D-03   426.5
                                                     2.88D-04  3.05D-03
 d= 0,ls=0.5,diis    94  -1226.0162698086 -1.10D-03  3.13D-04  4.51D-03   431.6
                                                     2.70D-04  4.62D-03
 d= 0,ls=0.5,diis    95  -1226.0172608600 -9.91D-04  3.36D-04  6.95D-03   437.1
                                                     2.81D-04  7.21D-03
 d= 0,ls=0.5,diis    96  -1226.0182738852 -1.01D-03  3.71D-04  1.00D-02   443.1
                                                     3.04D-04  1.03D-02
 d= 0,ls=0.5,diis    97  -1226.0192863474 -1.01D-03  4.00D-04  1.38D-02   447.4
                                                     3.17D-04  1.43D-02
 d= 0,ls=0.5,diis    98  -1226.0201119578 -8.26D-04  4.31D-04  1.90D-02   452.0
                                                     3.33D-04  1.96D-02
 d= 0,ls=0.5,diis    99  -1226.0205707694 -4.59D-04  4.62D-04  2.63D-02   457.5
                                                     3.52D-04  2.68D-02
 d= 0,ls=0.5,diis   100  -1226.0209048175 -3.34D-04  4.93D-04  3.45D-02   462.8
                                                     3.61D-04  3.48D-02
 d= 0,ls=0.5,diis   101  -1226.0200682873  8.37D-04  5.78D-04  4.77D-02   467.3
                                                     5.19D-04  4.71D-02
 d= 0,ls=0.5,diis   102  -1226.0229454435 -2.88D-03  5.49D-04  4.53D-02   472.0
                                                     4.87D-04  4.56D-02
 d= 0,ls=0.5,diis   103  -1226.0227024910  2.43D-04  5.50D-04  5.84D-02   477.0
                                                     4.87D-04  5.78D-02
 d= 0,ls=0.5,diis   104  -1226.0209739653  1.73D-03  5.49D-04  7.72D-02   482.5
                                                     4.86D-04  7.44D-02
 d= 0,ls=0.5,diis   105  -1226.0181214425  2.85D-03  5.34D-04  9.88D-02   487.4
                                                     5.06D-04  9.30D-02
 d= 0,ls=0.5,diis   106  -1226.0153897906  2.73D-03  5.23D-04  1.17D-01   491.3
                                                     4.90D-04  1.09D-01
 d= 0,ls=0.5,diis   107  -1226.0113047041  4.09D-03  4.79D-04  1.41D-01   497.8
                                                     5.25D-04  1.29D-01
 d= 0,ls=0.5,diis   108  -1226.0110523780  2.52D-04  4.91D-04  1.54D-01   502.4
                                                     4.86D-04  1.38D-01
 d= 0,ls=0.5,diis   109  -1226.0033714531  7.68D-03  4.17D-04  1.90D-01   506.9
                                                     5.22D-04  1.68D-01
 d= 0,ls=0.5,diis   110  -1226.0066153787 -3.24D-03  4.44D-04  1.80D-01   511.0
                                                     7.28D-04  1.60D-01
 d= 0,ls=0.5,diis   111  -1226.0235701375 -1.70D-02  3.50D-04  1.20D-01   515.0
                                                     6.83D-04  1.10D-01
 d= 0,ls=0.5,diis   112  -1226.0361205932 -1.26D-02  3.84D-04  8.25D-02   519.9
                                                     7.24D-04  7.72D-02
 d= 0,ls=0.5,diis   113  -1226.0478964776 -1.18D-02  3.64D-04  4.53D-02   524.3
                                                     6.79D-04  4.38D-02
 d= 0,ls=0.5,diis   114  -1226.0560271310 -8.13D-03  2.29D-04  2.09D-02   529.8
                                                     6.52D-04  2.33D-02
 d= 0,ls=0.5,diis   115  -1226.0616645258 -5.64D-03  2.46D-04  9.88D-03   536.2
                                                     6.55D-04  1.25D-02
 d= 0,ls=0.5,diis   116  -1226.0655697063 -3.91D-03  2.00D-04  5.11D-03   541.8
                                                     5.94D-04  6.99D-03
 d= 0,ls=0.5,diis   117  -1226.0681682199 -2.60D-03  1.63D-04  3.72D-03   546.3
                                                     5.54D-04  5.13D-03
 d= 0,ls=0.5,diis   118  -1226.0704547479 -2.29D-03  2.54D-04  2.40D-03   552.8
                                                     5.44D-04  3.57D-03
 d= 0,ls=0.5,diis   119  -1226.0720912422 -1.64D-03  1.67D-04  3.17D-03   557.1
                                                     5.13D-04  3.97D-03
 d= 0,ls=0.5,diis   120  -1226.0738933103 -1.80D-03  1.79D-04  2.48D-03   561.9
                                                     5.10D-04  3.29D-03
 d= 0,ls=0.5,diis   121  -1226.0755426790 -1.65D-03  2.15D-04  2.38D-03   566.9
                                                     5.10D-04  2.90D-03
 d= 0,ls=0.5,diis   122  -1226.0770041787 -1.46D-03  1.57D-04  2.92D-03   571.8
                                                     4.69D-04  2.92D-03
 d= 0,ls=0.5,diis   123  -1226.0784949140 -1.49D-03  2.54D-04  2.12D-03   577.1
                                                     4.31D-04  2.22D-03
 d= 0,ls=0.5,diis   124  -1226.0794191542 -9.24D-04  2.17D-04  3.28D-03   581.0
                                                     3.93D-04  2.91D-03
 d= 0,ls=0.5,diis   125  -1226.0802657089 -8.47D-04  1.82D-04  3.70D-03   585.5
                                                     3.64D-04  3.25D-03
 d= 0,ls=0.5,diis   126  -1226.0810850282 -8.19D-04  1.62D-04  3.75D-03   588.1
                                                     3.33D-04  3.39D-03
 d= 0,ls=0.5,diis   127  -1226.0818756426 -7.91D-04  1.44D-04  3.51D-03   592.1
                                                     3.18D-04  3.33D-03
 d= 0,ls=0.5,diis   128  -1226.0827794977 -9.04D-04  1.67D-04  2.76D-03   596.0
                                                     3.21D-04  2.83D-03
 d= 0,ls=0.5,diis   129  -1226.0835556482 -7.76D-04  1.27D-04  2.58D-03   601.1
                                                     3.03D-04  2.58D-03
 d= 0,ls=0.5,diis   130  -1226.0845890030 -1.03D-03  1.50D-04  1.20D-03   604.6
                                                     2.97D-04  1.52D-03
 d= 0,ls=0.5,diis   131  -1226.0853318876 -7.43D-04  2.10D-04  9.86D-04   608.9
                                                     2.99D-04  1.18D-03
 d= 0,ls=0.5,diis   132  -1226.0858980106 -5.66D-04  1.69D-04  1.39D-03   613.1
                                                     2.70D-04  1.29D-03
 d= 0,ls=0.5,diis   133  -1226.0864924859 -5.94D-04  1.52D-04  1.21D-03   618.3
                                                     2.61D-04  1.13D-03
 d= 0,ls=0.5,diis   134  -1226.0871181019 -6.26D-04  1.85D-04  7.43D-04   622.9
                                                     2.63D-04  8.04D-04
 d= 0,ls=0.5,diis   135  -1226.0876596322 -5.42D-04  1.61D-04  7.04D-04   627.8
                                                     2.38D-04  7.46D-04
 d= 0,ls=0.5,diis   136  -1226.0881792840 -5.20D-04  1.63D-04  5.14D-04   632.6
                                                     2.29D-04  6.05D-04
 d= 0,ls=0.5,diis   137  -1226.0886732539 -4.94D-04  1.63D-04  4.03D-04   637.6
                                                     2.23D-04  5.13D-04
 d= 0,ls=0.5,diis   138  -1226.0891466177 -4.73D-04  1.65D-04  3.42D-04   641.1
                                                     2.19D-04  4.44D-04
 d= 0,ls=0.5,diis   139  -1226.0896056560 -4.59D-04  1.77D-04  2.90D-04   645.3
                                                     2.27D-04  3.86D-04
 d= 0,ls=0.5,diis   140  -1226.0900657006 -4.60D-04  1.66D-04  2.81D-04   649.5
                                                     2.19D-04  3.61D-04
 d= 0,ls=0.5,diis   141  -1226.0905218347 -4.56D-04  1.54D-04  2.24D-04   653.0
                                                     2.06D-04  3.02D-04
 d= 0,ls=0.5,diis   142  -1226.0909597743 -4.38D-04  1.47D-04  1.43D-04   656.8
                                                     1.90D-04  2.27D-04
 d= 0,ls=0.5,diis   143  -1226.0913591486 -3.99D-04  1.62D-04  1.17D-04   661.5
                                                     1.97D-04  1.95D-04
 d= 0,ls=0.5,diis   144  -1226.0917648661 -4.06D-04  1.24D-04  1.33D-04   665.8
                                                     1.49D-04  1.98D-04
 d= 0,ls=0.5,diis   145  -1226.0920519551 -2.87D-04  1.13D-04  1.57D-04   670.5
                                                     1.35D-04  2.45D-04
 d= 0,ls=0.5,diis   146  -1226.0923106875 -2.59D-04  1.17D-04  1.63D-04   674.5
                                                     1.43D-04  3.07D-04
 d= 0,ls=0.5,diis   147  -1226.0925957192 -2.85D-04  1.41D-04  1.34D-04   679.9
                                                     1.75D-04  2.99D-04
 d= 0,ls=0.5,diis   148  -1226.0929561399 -3.60D-04  1.30D-04  7.82D-05   684.2
                                                     1.52D-04  2.27D-04
 d= 0,ls=0.5,diis   149  -1226.0932847532 -3.29D-04  1.22D-04  7.76D-05   688.5
                                                     1.38D-04  2.26D-04
 d= 0,ls=0.5,diis   150  -1226.0935883424 -3.04D-04  1.18D-04  8.88D-05   693.0
                                                     1.32D-04  2.48D-04
 d= 0,ls=0.5,diis   151  -1226.0938749686 -2.87D-04  1.14D-04  1.00D-04   697.1
                                                     1.32D-04  2.77D-04
 d= 0,ls=0.5,diis   152  -1226.0941597218 -2.85D-04  1.07D-04  1.06D-04   701.1
                                                     1.45D-04  2.89D-04
 d= 0,ls=0.5,diis   153  -1226.0944689931 -3.09D-04  1.05D-04  1.11D-04   705.5
                                                     1.28D-04  2.42D-04
 d= 0,ls=0.5,diis   154  -1226.0947435487 -2.75D-04  1.01D-04  1.32D-04   710.9
                                                     1.09D-04  2.60D-04
 d= 0,ls=0.5,diis   155  -1226.0949772812 -2.34D-04  9.03D-05  1.66D-04   715.0
                                                     9.83D-05  3.32D-04
 d= 0,ls=0.5,diis   156  -1226.0951796615 -2.02D-04  8.48D-05  2.01D-04   718.4
                                                     9.87D-05  4.05D-04
 d= 0,ls=0.5,diis   157  -1226.0953837191 -2.04D-04  8.79D-05  2.17D-04   723.5
                                                     1.17D-04  4.30D-04
 d= 0,ls=0.5,diis   158  -1226.0956360041 -2.52D-04  8.66D-05  1.96D-04   727.8
                                                     1.05D-04  3.53D-04
 d= 0,ls=0.5,diis   159  -1226.0958551363 -2.19D-04  8.16D-05  2.19D-04   732.4
                                                     1.01D-04  3.82D-04
 d= 0,ls=0.5,diis   160  -1226.0960676158 -2.12D-04  7.06D-05  2.42D-04   736.8
                                                     9.59D-05  4.02D-04
 d= 0,ls=0.5,diis   161  -1226.0962574201 -1.90D-04  6.64D-05  3.00D-04   741.7
                                                     9.73D-05  4.29D-04
 d= 0,ls=0.5,diis   162  -1226.0964473652 -1.90D-04  5.78D-05  3.60D-04   746.3
                                                     8.71D-05  4.43D-04
 d= 0,ls=0.5,diis   163  -1226.0965987084 -1.51D-04  5.22D-05  4.65D-04   751.4
                                                     7.76D-05  5.09D-04
 d= 0,ls=0.5,diis   164  -1226.0967234613 -1.25D-04  7.28D-05  5.70D-04   756.8
                                                     1.03D-04  5.90D-04
 d= 0,ls=0.5,diis   165  -1226.0969379109 -2.14D-04  7.84D-05  5.21D-04   761.7
                                                     1.12D-04  5.31D-04
 d= 0,ls=0.5,diis   166  -1226.0971702825 -2.32D-04  7.03D-05  5.22D-04   765.7
                                                     1.13D-04  5.10D-04
 d= 0,ls=0.5,diis   167  -1226.0974036635 -2.33D-04  7.78D-05  5.60D-04   770.0
                                                     1.16D-04  4.83D-04
 d= 0,ls=0.5,diis   168  -1226.0976575432 -2.54D-04  6.88D-05  5.34D-04   774.2
                                                     1.02D-04  4.44D-04
 d= 0,ls=0.5,diis   169  -1226.0978608312 -2.03D-04  9.86D-05  6.30D-04   778.6
                                                     1.62D-04  4.94D-04
 d= 0,ls=0.5,diis   170  -1226.0981778844 -3.17D-04  8.59D-05  6.69D-04   783.5
                                                     1.38D-04  4.12D-04
 d= 0,ls=0.5,diis   171  -1226.0984381260 -2.60D-04  1.23D-04  8.20D-04   787.4
                                                     1.68D-04  4.82D-04
 d= 0,ls=0.5,diis   172  -1226.0988257881 -3.88D-04  7.63D-05  5.84D-04   791.1
                                                     1.07D-04  3.69D-04
 d= 0,ls=0.5,diis   173  -1226.0989674229 -1.42D-04  8.89D-05  1.05D-03   795.4
                                                     1.20D-04  6.28D-04
 d= 0,ls=0.5,diis   174  -1226.0992438019 -2.76D-04  1.28D-04  9.24D-04   799.6
                                                     1.66D-04  5.50D-04
 d= 0,ls=0.5,diis   175  -1226.0996587074 -4.15D-04  1.65D-04  5.29D-04   804.8
                                                     2.07D-04  3.38D-04
 d= 0,ls=0.5,diis   176  -1226.1001431334 -4.84D-04  1.62D-04  2.22D-04   809.5
                                                     2.18D-04  1.75D-04
 d= 0,ls=0.5,diis   177  -1226.1006031213 -4.60D-04  1.68D-04  1.59D-04   814.0
                                                     2.09D-04  1.34D-04
 d= 0,ls=0.5,diis   178  -1226.1010541568 -4.51D-04  1.54D-04  1.24D-04   818.0
                                                     1.91D-04  1.38D-04
 d= 0,ls=0.5,diis   179  -1226.1014893673 -4.35D-04  1.52D-04  1.03D-04   823.2
                                                     2.16D-04  1.43D-04
 d= 0,ls=0.5,diis   180  -1226.1019346693 -4.45D-04  2.36D-04  1.00D-04   827.4
                                                     3.21D-04  1.37D-04
 d= 0,ls=0.5,diis   181  -1226.1024566420 -5.22D-04  1.95D-04  2.42D-04   831.9
                                                     2.63D-04  2.66D-04
 d= 0,ls=0.5,diis   182  -1226.1029272298 -4.71D-04  1.35D-04  3.33D-04   836.3
                                                     1.86D-04  3.22D-04
 d= 0,ls=0.5,diis   183  -1226.1033394635 -4.12D-04  2.14D-04  1.54D-04   840.9
                                                     2.90D-04  1.78D-04
 d= 0,ls=0.5,diis   184  -1226.1037146716 -3.75D-04  1.75D-04  5.33D-04   845.9
                                                     2.39D-04  4.40D-04
 d= 0,ls=0.5,diis   185  -1226.1040875796 -3.73D-04  1.39D-04  6.41D-04   850.1
                                                     2.08D-04  4.83D-04
 d= 0,ls=0.5,diis   186  -1226.1044693896 -3.82D-04  1.80D-04  4.57D-04   854.5
                                                     2.56D-04  3.70D-04
 d= 0,ls=0.5,diis   187  -1226.1047483078 -2.79D-04  1.67D-04  9.01D-04   858.7
                                                     2.31D-04  5.97D-04
 d= 0,ls=0.5,diis   188  -1226.1049975680 -2.49D-04  1.36D-04  1.29D-03   863.1
                                                     2.15D-04  7.52D-04
 d= 0,ls=0.5,diis   189  -1226.1053147398 -3.17D-04  1.27D-04  1.09D-03   867.3
                                                     2.07D-04  6.58D-04
 d= 0,ls=0.5,diis   190  -1226.1055571717 -2.42D-04  1.08D-04  1.18D-03   872.2
                                                     1.91D-04  6.77D-04
 d= 0,ls=0.5,diis   191  -1226.1058158188 -2.59D-04  1.05D-04  1.02D-03   876.4
                                                     1.79D-04  5.87D-04
 d= 0,ls=0.5,diis   192  -1226.1060407607 -2.25D-04  9.98D-05  9.51D-04   881.6
                                                     1.86D-04  5.27D-04
 d= 0,ls=0.5,diis   193  -1226.1062369600 -1.96D-04  9.78D-05  9.23D-04   886.5
                                                     1.96D-04  5.14D-04
 d= 0,ls=0.5,diis   194  -1226.1063945546 -1.58D-04  8.04D-05  1.01D-03   892.1
                                                     1.71D-04  5.70D-04
 d= 0,ls=0.5,diis   195  -1226.1065718155 -1.77D-04  1.21D-04  8.70D-04   896.2
                                                     1.93D-04  5.01D-04
 d= 0,ls=0.5,diis   196  -1226.1066230939 -5.13D-05  1.24D-04  1.44D-03   901.0
                                                     2.06D-04  7.47D-04
 d= 0,ls=0.5,diis   197  -1226.1066325198 -9.43D-06  9.01D-05  2.15D-03   904.9
                                                     1.67D-04  1.04D-03
 d= 0,ls=0.5,diis   198  -1226.1067273173 -9.48D-05  6.31D-05  2.25D-03   911.0
                                                     1.38D-04  1.06D-03
 d= 0,ls=0.5,diis   199  -1226.1069367209 -2.09D-04  7.32D-05  1.61D-03   916.3
                                                     1.46D-04  7.61D-04
 d= 0,ls=0.5,diis   200  -1226.1069894001 -5.27D-05  5.43D-05  1.88D-03   920.6
                                                     1.27D-04  8.74D-04
 d= 0,ls=0.5,diis   201  -1226.1071011916 -1.12D-04  5.00D-05  1.72D-03   925.3
                                                     1.10D-04  7.89D-04
 d= 0,ls=0.5,diis   202  -1226.1072912022 -1.90D-04  3.59D-05  1.05D-03   930.8
                                                     1.06D-04  4.92D-04
 d= 0,ls=0.5,diis   203  -1226.1073821160 -9.09D-05  3.36D-05  9.29D-04   937.0
                                                     1.06D-04  4.44D-04
 d= 0,ls=0.5,diis   204  -1226.1074585234 -7.64D-05  6.19D-05  8.46D-04   941.5
                                                     1.40D-04  4.10D-04
 d= 0,ls=0.5,diis   205  -1226.1074761879 -1.77D-05  3.31D-05  1.11D-03   946.3
                                                     1.11D-04  5.42D-04
 d= 0,ls=0.5,diis   206  -1226.1075610797 -8.49D-05  2.68D-05  9.13D-04   951.8
                                                     1.01D-04  4.50D-04
 d= 0,ls=0.5,diis   207  -1226.1076524339 -9.14D-05  2.45D-05  6.66D-04   957.9
                                                     9.13D-05  3.36D-04
 d= 0,ls=0.5,diis   208  -1226.1077359838 -8.35D-05  2.71D-05  4.50D-04   963.4
                                                     9.17D-05  2.34D-04
 d= 0,ls=0.5,diis   209  -1226.1077931032 -5.71D-05  2.31D-05  3.76D-04   967.6
                                                     8.82D-05  1.94D-04
 d= 0,ls=0.5,diis   210  -1226.1078449687 -5.19D-05  2.28D-05  2.99D-04   974.6
                                                     8.67D-05  1.56D-04
 d= 0,ls=0.5,diis   211  -1226.1078872477 -4.23D-05  2.47D-05  2.58D-04   980.1
                                                     8.71D-05  1.36D-04
 d= 0,ls=0.5,diis   212  -1226.1079200874 -3.28D-05  2.68D-05  2.55D-04   984.6
                                                     8.70D-05  1.35D-04
 d= 0,ls=0.5,diis   213  -1226.1079507910 -3.07D-05  1.96D-05  2.53D-04   990.8
                                                     7.85D-05  1.32D-04
 d= 0,ls=0.5,diis   214  -1226.1079859488 -3.52D-05  5.05D-05  2.06D-04   996.0
                                                     1.06D-04  1.09D-04
 d= 0,ls=0.5,diis   215  -1226.1079858505  9.83D-08  4.76D-05  3.72D-04  1000.3
                                                     1.08D-04  1.87D-04
 d= 0,ls=0.5,diis   216  -1226.1079868095 -9.59D-07  3.12D-05  5.14D-04  1004.6
                                                     9.16D-05  2.48D-04
 d= 0,ls=0.5,diis   217  -1226.1080106883 -2.39D-05  2.56D-05  5.08D-04  1010.8
                                                     8.37D-05  2.36D-04
 d= 0,ls=0.5,diis   218  -1226.1080362029 -2.55D-05  2.48D-05  4.84D-04  1014.7
                                                     8.18D-05  2.21D-04
 d= 0,ls=0.5,diis   219  -1226.1080564689 -2.03D-05  1.72D-05  4.83D-04  1019.4
                                                     7.03D-05  2.18D-04
 d= 0,ls=0.5,diis   220  -1226.1080926352 -3.62D-05  2.53D-05  3.78D-04  1024.2
                                                     8.03D-05  1.69D-04
 d= 0,ls=0.5,diis   221  -1226.1081055608 -1.29D-05  2.68D-05  4.10D-04  1029.5
                                                     8.51D-05  1.88D-04
 d= 0,ls=0.5,diis   222  -1226.1081208910 -1.53D-05  1.93D-05  4.18D-04  1035.9
                                                     7.63D-05  1.95D-04
 d= 0,ls=0.5,diis   223  -1226.1081433465 -2.25D-05  3.21D-05  3.78D-04  1039.9
                                                     9.08D-05  1.73D-04
 d= 0,ls=0.5,diis   224  -1226.1081825861 -3.92D-05  2.24D-05  2.39D-04  1045.0
                                                     8.35D-05  1.25D-04
 d= 0,ls=0.5,diis   225  -1226.1082054325 -2.28D-05  2.17D-05  1.95D-04  1048.8
                                                     8.16D-05  1.07D-04
 d= 0,ls=0.5,diis   226  -1226.1082209338 -1.55D-05  3.96D-05  1.84D-04  1053.0
                                                     9.82D-05  1.02D-04
 d= 0,ls=0.5,diis   227  -1226.1082157864  5.15D-06  2.53D-05  2.71D-04  1057.8
                                                     8.47D-05  1.50D-04
 d= 0,ls=0.5,diis   228  -1226.1082310126 -1.52D-05  5.22D-05  2.41D-04  1062.2
                                                     6.20D-05  1.30D-04
 d= 0,ls=0.5,diis   229  -1226.1082801254 -4.91D-05  1.32D-05  4.40D-05  1066.5
                                                     4.81D-05  2.33D-05
 d= 0,ls=0.5,diis   230  -1226.1082888709 -8.75D-06  3.14D-05  5.10D-05  1071.9
                                                     7.06D-05  2.81D-05
 d= 0,ls=0.5,diis   231  -1226.1082867201  2.15D-06  2.75D-05  1.06D-04  1077.1
                                                     7.46D-05  5.99D-05
 d= 0,ls=0.5,diis   232  -1226.1082851314  1.59D-06  1.56D-05  1.53D-04  1081.6
                                                     6.39D-05  8.36D-05
 d= 0,ls=0.5,diis   233  -1226.1082955385 -1.04D-05  1.33D-05  1.29D-04  1085.0
                                                     6.12D-05  7.01D-05
 d= 0,ls=0.5,diis   234  -1226.1083045737 -9.04D-06  1.12D-05  1.16D-04  1090.5
                                                     5.65D-05  6.32D-05
 d= 0,ls=0.5,diis   235  -1226.1083142116 -9.64D-06  2.30D-05  9.75D-05  1095.0
                                                     7.12D-05  5.32D-05
 d= 0,ls=0.5,diis   236  -1226.1083154614 -1.25D-06  1.10D-05  1.22D-04  1102.6
                                                     5.83D-05  7.02D-05
 d= 0,ls=0.5,diis   237  -1226.1083276770 -1.22D-05  8.49D-06  9.01D-05  1106.7
                                                     5.26D-05  5.03D-05
 d= 0,ls=0.5,diis   238  -1226.1083372200 -9.54D-06  2.13D-05  7.09D-05  1111.6
                                                     6.89D-05  3.96D-05
 d= 0,ls=0.5,diis   239  -1226.1083375227 -3.03D-07  1.39D-05  9.62D-05  1116.1
                                                     6.51D-05  5.72D-05
 d= 0,ls=0.5,diis   240  -1226.1083421818 -4.66D-06  9.77D-06  9.77D-05  1121.1
                                                     5.65D-05  5.68D-05
 d= 0,ls=0.5,diis   241  -1226.1083513723 -9.19D-06  7.88D-06  7.36D-05  1125.0
                                                     5.16D-05  4.26D-05
 d= 0,ls=0.5,diis   242  -1226.1083597593 -8.39D-06  7.91D-06  5.36D-05  1129.0
                                                     4.27D-05  3.19D-05
 d= 0,ls=0.5,diis   243  -1226.1083688948 -9.14D-06  7.43D-06  3.09D-05  1133.0
                                                     3.43D-05  1.90D-05
 d= 0,ls=0.5,diis   244  -1226.1083762054 -7.31D-06  4.93D-06  1.64D-05  1137.4
                                                     3.32D-05  1.05D-05
 d= 0,ls=0.5,diis   245  -1226.1083810705 -4.87D-06  3.80D-06  1.49D-05  1141.3
                                                     3.28D-05  9.49D-06
 d= 0,ls=0.5,diis   246  -1226.1083848917 -3.82D-06  5.89D-06  1.38D-05  1145.2
                                                     2.99D-05  9.18D-06
 d= 0,ls=0.5,diis   247  -1226.1083894465 -4.55D-06  1.58D-05  1.21D-05  1149.9
                                                     4.21D-05  7.65D-06
 d= 0,ls=0.5,diis   248  -1226.1083921342 -2.69D-06  7.51D-06  2.74D-05  1154.2
                                                     3.57D-05  1.57D-05
 d= 0,ls=0.5,diis   249  -1226.1083970754 -4.94D-06  4.92D-06  2.49D-05  1158.3
                                                     3.29D-05  1.38D-05
 d= 0,ls=0.5,diis   250  -1226.1084012122 -4.14D-06  6.27D-06  2.22D-05  1162.6
                                                     3.25D-05  1.22D-05
 d= 0,ls=0.5,diis   251  -1226.1084052932 -4.08D-06  6.68D-06  2.11D-05  1167.4
                                                     3.25D-05  1.15D-05
 d= 0,ls=0.5,diis   252  -1226.1084092489 -3.96D-06  7.96D-06  2.07D-05  1172.4
                                                     3.34D-05  1.13D-05
 d= 0,ls=0.5,diis   253  -1226.1084130218 -3.77D-06  1.52D-05  2.23D-05  1178.4
                                                     4.35D-05  1.22D-05
 d= 0,ls=0.5,diis   254  -1226.1084159049 -2.88D-06  9.55D-06  3.45D-05  1182.6
                                                     3.89D-05  1.91D-05
 d= 0,ls=0.5,diis   255  -1226.1084208313 -4.93D-06  1.43D-05  3.13D-05  1187.1
                                                     4.21D-05  1.72D-05
 d= 0,ls=0.5,diis   256  -1226.1084261947 -5.36D-06  9.71D-06  2.89D-05  1191.7
                                                     3.32D-05  1.68D-05
 d= 0,ls=0.5,diis   257  -1226.1084324198 -6.23D-06  6.93D-06  1.64D-05  1197.4
                                                     2.88D-05  1.00D-05
 d= 0,ls=0.5,diis   258  -1226.1084366945 -4.27D-06  7.61D-06  1.18D-05  1201.6
                                                     2.91D-05  7.40D-06
 d= 0,ls=0.5,diis   259  -1226.1084400765 -3.38D-06  1.10D-05  1.17D-05  1206.0
                                                     2.15D-05  7.32D-06
 d= 0,ls=0.5,diis   260  -1226.1084444183 -4.34D-06  7.12D-06  4.01D-06  1211.5
                                                     1.70D-05  2.82D-06
 d= 0,ls=0.5,diis   261  -1226.1084472263 -2.81D-06  8.40D-06  1.60D-06  1215.8
                                                     2.04D-05  1.45D-06
 d= 0,ls=0.5,diis   262  -1226.1084495686 -2.34D-06  7.15D-06  2.85D-06  1220.7
                                                     1.91D-05  2.22D-06
 d= 0,ls=0.5,diis   263  -1226.1084520193 -2.45D-06  7.53D-06  2.55D-06  1226.1
                                                     1.92D-05  2.03D-06
 d= 0,ls=0.5,diis   264  -1226.1084543817 -2.36D-06  5.56D-06  2.68D-06  1232.1
                                                     1.60D-05  2.13D-06
 d= 0,ls=0.5,diis   265  -1226.1084566112 -2.23D-06  5.51D-06  1.43D-06  1237.3
                                                     1.54D-05  1.36D-06
 d= 0,ls=0.5,diis   266  -1226.1084585861 -1.97D-06  5.23D-06  9.93D-07  1241.5
                                                     1.47D-05  1.13D-06
 d= 0,ls=0.5,diis   267  -1226.1084604292 -1.84D-06  4.85D-06  7.14D-07  1246.0
                                                     1.39D-05  9.63D-07
 d= 0,ls=0.5,diis   268  -1226.1084621474 -1.72D-06  4.96D-06  5.02D-07  1249.6
                                                     1.38D-05  8.27D-07
 d= 0,ls=0.5,diis   269  -1226.1084638104 -1.66D-06  4.09D-06  4.59D-07  1255.2
                                                     1.26D-05  7.95D-07
 d= 0,ls=0.5,diis   270  -1226.1084653431 -1.53D-06  4.54D-06  2.57D-07  1259.0
                                                     1.33D-05  6.63D-07
 d= 0,ls=0.5,diis   271  -1226.1084668812 -1.54D-06  4.78D-06  2.92D-07  1263.8
                                                     1.37D-05  6.83D-07
 d= 0,ls=0.5,diis   272  -1226.1084684582 -1.58D-06  3.52D-06  3.44D-07  1268.1
                                                     1.18D-05  7.17D-07
 d= 0,ls=0.5,diis   273  -1226.1084698661 -1.41D-06  3.36D-06  1.43D-07  1272.9
                                                     1.15D-05  5.81D-07
 d= 0,ls=0.5,diis   274  -1226.1084711963 -1.33D-06  3.17D-06  1.06D-07  1277.9
                                                     1.12D-05  5.54D-07
 d= 0,ls=0.5,diis   275  -1226.1084724730 -1.28D-06  2.74D-06  8.62D-08  1281.8
                                                     1.05D-05  5.38D-07
 d= 0,ls=0.5,diis   276  -1226.1084736453 -1.17D-06  2.35D-06  8.09D-08  1286.6
                                                     9.69D-06  5.28D-07
 d= 0,ls=0.5,diis   277  -1226.1084747037 -1.06D-06  2.01D-06  1.21D-07  1291.2
                                                     8.78D-06  5.41D-07
 d= 0,ls=0.5,diis   278  -1226.1084756383 -9.35D-07  1.73D-06  2.21D-07  1296.4
                                                     8.49D-06  5.83D-07


         Total DFT energy =    -1226.108476511220
      One electron energy =    -1757.881699345552
           Coulomb energy =      557.977965066902
          Exchange energy =      -59.279741658509
       Correlation energy =       -1.303120870154
 Nuclear repulsion energy =       34.378120296092

 Numeric. integr. density =       32.999999936480

     Total iterative time =   1291.7s


 
                    DFT Final Alpha Molecular Orbital Analysis
                    ------------------------------------------
 
 Vector    1  Occ=1.000000D+00  E=-2.347163D+02
              MO Center=  1.1D-09, -3.7D-09, -7.5D-01, r^2= 1.4D-03
   Bfn.  Coefficient  Atom+Function         Bfn.  Coefficient  Atom+Function  
  ----- ------------  ---------------      ----- ------------  ---------------
     1      0.997299  1 Mn s                  4      0.030470  1 Mn s          
 
 Vector    2  Occ=1.000000D+00  E=-2.700997D+01
              MO Center= -2.8D-06,  4.8D-06, -7.5D-01, r^2= 2.6D-02
   Bfn.  Coefficient  Atom+Function         Bfn.  Coefficient  Atom+Function  
  ----- ------------  ---------------      ----- ------------  ---------------
     2      1.026179  1 Mn s                  1     -0.311801  1 Mn s          
 
 Vector    3  Occ=1.000000D+00  E=-2.309990D+01
              MO Center=  4.0D-06,  1.9D-06, -7.5D-01, r^2= 2.1D-02
   Bfn.  Coefficient  Atom+Function         Bfn.  Coefficient  Atom+Function  
  ----- ------------  ---------------      ----- ------------  ---------------
     7      0.927819  1 Mn px                 8      0.312790  1 Mn py         
     9      0.139437  1 Mn pz                13     -0.041627  1 Mn px         
    10      0.034049  1 Mn px         
 
 Vector    4  Occ=1.000000D+00  E=-2.309576D+01
              MO Center= -5.5D-06,  7.6D-06, -7.5D-01, r^2= 2.1D-02
   Bfn.  Coefficient  Atom+Function         Bfn.  Coefficient  Atom+Function  
  ----- ------------  ---------------      ----- ------------  ---------------
     9      0.891401  1 Mn pz                 8      0.347356  1 Mn py         
     7     -0.251072  1 Mn px                15     -0.039765  1 Mn pz         
    12      0.032381  1 Mn pz         
 
 Vector    5  Occ=1.000000D+00  E=-2.309261D+01
              MO Center=  2.9D-06, -1.1D-05, -7.5D-01, r^2= 2.1D-02
   Bfn.  Coefficient  Atom+Function         Bfn.  Coefficient  Atom+Function  
  ----- ------------  ---------------      ----- ------------  ---------------
     8      0.871599  1 Mn py                 9     -0.405266  1 Mn pz         
     7     -0.232930  1 Mn px                14     -0.039127  1 Mn py         
    11      0.031909  1 Mn py         
 
 Vector    6  Occ=1.000000D+00  E=-1.889380D+01
              MO Center=  2.3D-07,  3.3D-07,  2.3D+00, r^2= 1.5D-02
   Bfn.  Coefficient  Atom+Function         Bfn.  Coefficient  Atom+Function  
  ----- ------------  ---------------      ----- ------------  ---------------
    82      0.638428  2 O  s                 81      0.435712  2 O  s          
    84     -0.089637  2 O  s                 83      0.072460  2 O  s          
 
 Vector    7  Occ=1.000000D+00  E=-3.171579D+00
              MO Center= -1.6D-06, -1.5D-05, -7.5D-01, r^2= 2.4D-01
   Bfn.  Coefficient  Atom+Function         Bfn.  Coefficient  Atom+Function  
  ----- ------------  ---------------      ----- ------------  ---------------
     3      0.586939  1 Mn s                  2     -0.464055  1 Mn s          
     4      0.447031  1 Mn s                  1      0.116817  1 Mn s          
    22      0.032456  1 Mn dxx               27      0.030610  1 Mn dzz        
    25      0.030204  1 Mn dyy                5     -0.030034  1 Mn s          
 
 Vector    8  Occ=1.000000D+00  E=-2.064379D+00
              MO Center=  9.9D-05, -3.2D-05, -7.5D-01, r^2= 2.7D-01
   Bfn.  Coefficient  Atom+Function         Bfn.  Coefficient  Atom+Function  
  ----- ------------  ---------------      ----- ------------  ---------------
    10      0.827682  1 Mn px                 7     -0.352526  1 Mn px         
    11      0.280486  1 Mn py                13      0.225316  1 Mn px         
    12      0.131846  1 Mn pz                 8     -0.119463  1 Mn py         
    14      0.076332  1 Mn py                 9     -0.056144  1 Mn pz         
    15      0.035796  1 Mn pz         
 
 Vector    9  Occ=1.000000D+00  E=-2.056694D+00
              MO Center= -8.1D-05,  5.7D-05, -7.5D-01, r^2= 2.7D-01
   Bfn.  Coefficient  Atom+Function         Bfn.  Coefficient  Atom+Function  
  ----- ------------  ---------------      ----- ------------  ---------------
    12      0.815077  1 Mn pz                 9     -0.347171  1 Mn pz         
    11      0.261811  1 Mn py                15      0.223552  1 Mn pz         
    10     -0.218277  1 Mn px                 8     -0.111483  1 Mn py         
     7      0.092974  1 Mn px                14      0.071238  1 Mn py         
    13     -0.059776  1 Mn px         
 
 Vector   10  Occ=1.000000D+00  E=-2.045783D+00
              MO Center=  8.7D-05, -2.9D-04, -7.5D-01, r^2= 2.7D-01
   Bfn.  Coefficient  Atom+Function         Bfn.  Coefficient  Atom+Function  
  ----- ------------  ---------------      ----- ------------  ---------------
    11      0.800272  1 Mn py                 8     -0.340002  1 Mn py         
    12     -0.316134  1 Mn pz                10     -0.220910  1 Mn px         
    14      0.208916  1 Mn py                 9      0.134341  1 Mn pz         
     7      0.093848  1 Mn px                15     -0.083086  1 Mn pz         
    13     -0.057568  1 Mn px         
 
 Vector   11  Occ=1.000000D+00  E=-7.908343D-01
              MO Center=  1.3D-04,  3.4D-04,  2.3D+00, r^2= 4.6D-01
   Bfn.  Coefficient  Atom+Function         Bfn.  Coefficient  Atom+Function  
  ----- ------------  ---------------      ----- ------------  ---------------
    83      0.432275  2 O  s                 84      0.411002  2 O  s          
    82     -0.255637  2 O  s                 85      0.229320  2 O  s          
    81     -0.109149  2 O  s                104      0.036494  2 O  dyy        
   101      0.028567  2 O  dxx        
 
 Vector   12  Occ=1.000000D+00  E=-3.070737D-01
              MO Center= -1.9D-04, -1.3D-03, -7.4D-01, r^2= 5.8D-01
   Bfn.  Coefficient  Atom+Function         Bfn.  Coefficient  Atom+Function  
  ----- ------------  ---------------      ----- ------------  ---------------
    22      0.472852  1 Mn dxx               23      0.416988  1 Mn dxy        
    27     -0.391470  1 Mn dzz               28      0.331082  1 Mn dxx        
    29      0.290377  1 Mn dxy               33     -0.271706  1 Mn dzz        
    24      0.232955  1 Mn dxz               34      0.205572  1 Mn dxx        
    26     -0.203712  1 Mn dyz               35      0.178568  1 Mn dxy        
 
 Vector   13  Occ=1.000000D+00  E=-3.067243D-01
              MO Center=  1.0D-03, -1.9D-03, -7.4D-01, r^2= 5.8D-01
   Bfn.  Coefficient  Atom+Function         Bfn.  Coefficient  Atom+Function  
  ----- ------------  ---------------      ----- ------------  ---------------
    24      0.868274  1 Mn dxz               30      0.606735  1 Mn dxz        
    36      0.372179  1 Mn dxz               26      0.305332  1 Mn dyz        
    23      0.292240  1 Mn dxy               32      0.213071  1 Mn dyz        
    29      0.203513  1 Mn dxy               22     -0.186424  1 Mn dxx        
    28     -0.130493  1 Mn dxx               38      0.130334  1 Mn dyz        
 
 Vector   14  Occ=1.000000D+00  E=-2.999582D-01
              MO Center=  2.6D-04,  4.2D-04, -7.4D-01, r^2= 5.7D-01
   Bfn.  Coefficient  Atom+Function         Bfn.  Coefficient  Atom+Function  
  ----- ------------  ---------------      ----- ------------  ---------------
    23      0.780323  1 Mn dxy               29      0.538310  1 Mn dxy        
    24     -0.410648  1 Mn dxz               35      0.327356  1 Mn dxy        
    25      0.282814  1 Mn dyy               30     -0.283648  1 Mn dxz        
    22     -0.236111  1 Mn dxx               31      0.194953  1 Mn dyy        
    36     -0.171372  1 Mn dxz               28     -0.162851  1 Mn dxx        
 
 Vector   15  Occ=1.000000D+00  E=-2.971618D-01
              MO Center=  5.3D-04, -1.9D-03, -5.6D-01, r^2= 1.1D+00
   Bfn.  Coefficient  Atom+Function         Bfn.  Coefficient  Atom+Function  
  ----- ------------  ---------------      ----- ------------  ---------------
    26      0.768203  1 Mn dyz               32      0.530794  1 Mn dyz        
    38      0.321418  1 Mn dyz               27     -0.314949  1 Mn dzz        
    23     -0.237125  1 Mn dxy               25      0.236435  1 Mn dyy        
    33     -0.216522  1 Mn dzz               29     -0.163861  1 Mn dxy        
    31      0.163461  1 Mn dyy               24     -0.133078  1 Mn dxz        
 
 Vector   16  Occ=1.000000D+00  E=-2.855038D-01
              MO Center=  2.5D-05, -5.9D-03, -1.8D-01, r^2= 2.0D+00
   Bfn.  Coefficient  Atom+Function         Bfn.  Coefficient  Atom+Function  
  ----- ------------  ---------------      ----- ------------  ---------------
    25      0.423433  1 Mn dyy               26     -0.402072  1 Mn dyz        
    23     -0.331748  1 Mn dxy               31      0.284218  1 Mn dyy        
    27     -0.282568  1 Mn dzz               32     -0.278352  1 Mn dyz        
    29     -0.228360  1 Mn dxy               33     -0.203256  1 Mn dzz        
    87     -0.179902  2 O  py                38     -0.171191  1 Mn dyz        
 
 Vector   17  Occ=1.000000D+00  E=-2.836492D-01
              MO Center=  2.2D-03,  2.0D-03,  1.6D+00, r^2= 2.4D+00
   Bfn.  Coefficient  Atom+Function         Bfn.  Coefficient  Atom+Function  
  ----- ------------  ---------------      ----- ------------  ---------------
    26      0.400525  1 Mn dyz               87     -0.354800  2 O  py         
    90     -0.293518  2 O  py                32      0.275098  1 Mn dyz        
    86      0.248287  2 O  px                89      0.205493  2 O  px         
    93     -0.194191  2 O  py                24     -0.175154  1 Mn dxz        
    38      0.169356  1 Mn dyz               92      0.136170  2 O  px         
 
 Vector   18  Occ=1.000000D+00  E=-2.188652D-01
              MO Center=  7.4D-04,  6.7D-03,  5.4D-01, r^2= 4.0D+00
   Bfn.  Coefficient  Atom+Function         Bfn.  Coefficient  Atom+Function  
  ----- ------------  ---------------      ----- ------------  ---------------
     5      0.412758  1 Mn s                 88     -0.277731  2 O  pz         
    91     -0.232255  2 O  pz                 4     -0.217942  1 Mn s          
    94     -0.189502  2 O  pz                 6      0.162731  1 Mn s          
     3     -0.146914  1 Mn s                  2      0.093542  1 Mn s          
    37      0.085498  1 Mn dyy               31      0.081434  1 Mn dyy        
 
 Vector   19  Occ=1.000000D+00  E=-2.114557D-01
              MO Center= -9.5D-03, -6.2D-03,  2.3D+00, r^2= 7.8D-01
   Bfn.  Coefficient  Atom+Function         Bfn.  Coefficient  Atom+Function  
  ----- ------------  ---------------      ----- ------------  ---------------
    86      0.402693  2 O  px                89      0.327880  2 O  px         
    87      0.274597  2 O  py                92      0.266038  2 O  px         
    90      0.223608  2 O  py                93      0.181123  2 O  py         
    24     -0.045379  1 Mn dxz                5     -0.043494  1 Mn s          
    19      0.040778  1 Mn px                42      0.037485  1 Mn dxz        
 
 Vector   20  Occ=0.000000D+00  E=-1.807651D-01
              MO Center=  1.5D-02, -2.8D-02,  6.4D-01, r^2= 5.1D+00
   Bfn.  Coefficient  Atom+Function         Bfn.  Coefficient  Atom+Function  
  ----- ------------  ---------------      ----- ------------  ---------------
     5      0.439585  1 Mn s                 88      0.356968  2 O  pz         
    91      0.294902  2 O  pz                 6      0.288122  1 Mn s          
    94      0.247298  2 O  pz                 4     -0.222757  1 Mn s          
    21     -0.165932  1 Mn pz                 3     -0.123210  1 Mn s          
     2      0.079113  1 Mn s                 12      0.060040  1 Mn pz         
 
 Vector   21  Occ=0.000000D+00  E=-5.742872D-02
              MO Center=  6.1D-04, -1.1D-02, -8.4D-01, r^2= 4.2D+00
   Bfn.  Coefficient  Atom+Function         Bfn.  Coefficient  Atom+Function  
  ----- ------------  ---------------      ----- ------------  ---------------
    19      0.854094  1 Mn px                10     -0.224061  1 Mn px         
    20      0.209060  1 Mn py                16      0.159154  1 Mn px         
    42     -0.104495  1 Mn dxz               13     -0.082617  1 Mn px         
     7      0.080259  1 Mn px                11     -0.055506  1 Mn py         
    86     -0.044874  2 O  px                17      0.040911  1 Mn py         
 
 Vector   22  Occ=0.000000D+00  E=-4.675697D-02
              MO Center= -1.4D-02,  5.3D-02, -8.2D-01, r^2= 4.3D+00
   Bfn.  Coefficient  Atom+Function         Bfn.  Coefficient  Atom+Function  
  ----- ------------  ---------------      ----- ------------  ---------------
    20      0.855820  1 Mn py                11     -0.211181  1 Mn py         
    19     -0.211054  1 Mn px                21      0.200672  1 Mn pz         
    17      0.120394  1 Mn py                44     -0.105148  1 Mn dyz        
    14     -0.076581  1 Mn py                 8      0.075746  1 Mn py         
     5      0.060666  1 Mn s                 12     -0.052863  1 Mn pz         
 
 Vector   23  Occ=0.000000D+00  E=-3.093938D-02
              MO Center=  1.5D-02, -3.9D-02, -8.0D-01, r^2= 4.6D+00
   Bfn.  Coefficient  Atom+Function         Bfn.  Coefficient  Atom+Function  
  ----- ------------  ---------------      ----- ------------  ---------------
    21      0.881667  1 Mn pz                 6     -0.255359  1 Mn s          
     5      0.214478  1 Mn s                 12     -0.214948  1 Mn pz         
    20     -0.212103  1 Mn py                94      0.152344  2 O  pz         
    88      0.141136  2 O  pz                18      0.130350  1 Mn pz         
    40      0.119992  1 Mn dxx               43      0.116576  1 Mn dyy        
 
 Vector   24  Occ=0.000000D+00  E= 3.103536D-02
              MO Center=  4.9D-03, -1.7D-02, -8.4D-01, r^2= 1.4D+01
   Bfn.  Coefficient  Atom+Function         Bfn.  Coefficient  Atom+Function  
  ----- ------------  ---------------      ----- ------------  ---------------
     6      4.864383  1 Mn s                 45     -1.551950  1 Mn dzz        
    43     -1.454451  1 Mn dyy               40     -1.438951  1 Mn dxx        
    34     -0.829355  1 Mn dxx               37     -0.819816  1 Mn dyy        
    39     -0.809367  1 Mn dzz                4     -0.618707  1 Mn s          
     5      0.428413  1 Mn s                 31     -0.211959  1 Mn dyy        
 
 Vector   25  Occ=0.000000D+00  E= 1.334888D-01
              MO Center= -9.0D-03,  2.4D-02, -7.4D-01, r^2= 5.9D+00
   Bfn.  Coefficient  Atom+Function         Bfn.  Coefficient  Atom+Function  
  ----- ------------  ---------------      ----- ------------  ---------------
    41      1.434665  1 Mn dxy               40      0.639404  1 Mn dxx        
    43     -0.424724  1 Mn dyy               42      0.318408  1 Mn dxz        
    44     -0.267164  1 Mn dyz               23     -0.241675  1 Mn dxy        
    35     -0.209302  1 Mn dxy                6     -0.121972  1 Mn s          
    37      0.099704  1 Mn dyy               22     -0.097446  1 Mn dxx        
 
 Vector   26  Occ=0.000000D+00  E= 1.336197D-01
              MO Center= -3.8D-03,  2.1D-02, -7.4D-01, r^2= 5.9D+00
   Bfn.  Coefficient  Atom+Function         Bfn.  Coefficient  Atom+Function  
  ----- ------------  ---------------      ----- ------------  ---------------
    41      1.034823  1 Mn dxy               40     -0.784320  1 Mn dxx        
    43      0.667904  1 Mn dyy               42      0.407798  1 Mn dxz        
    44      0.211173  1 Mn dyz               23     -0.173851  1 Mn dxy        
    35     -0.149165  1 Mn dxy               22      0.125335  1 Mn dxx        
    37     -0.123102  1 Mn dyy               25     -0.119214  1 Mn dyy        
 
 Vector   27  Occ=0.000000D+00  E= 1.396597D-01
              MO Center=  2.5D-03, -1.1D-02, -7.1D-01, r^2= 5.9D+00
   Bfn.  Coefficient  Atom+Function         Bfn.  Coefficient  Atom+Function  
  ----- ------------  ---------------      ----- ------------  ---------------
    42      1.764477  1 Mn dxz               41     -0.501660  1 Mn dxy        
    24     -0.297727  1 Mn dxz               36     -0.242651  1 Mn dxz        
    16      0.102382  1 Mn px                89     -0.088234  2 O  px         
    23      0.083095  1 Mn dxy               43     -0.082996  1 Mn dyy        
    86     -0.081406  2 O  px                35      0.076563  1 Mn dxy        
 
 Vector   28  Occ=0.000000D+00  E= 1.430384D-01
              MO Center=  2.2D-03, -1.5D-03, -6.9D-01, r^2= 5.9D+00
   Bfn.  Coefficient  Atom+Function         Bfn.  Coefficient  Atom+Function  
  ----- ------------  ---------------      ----- ------------  ---------------
    44      1.807616  1 Mn dyz               26     -0.302980  1 Mn dyz        
    38     -0.260046  1 Mn dyz               40      0.187423  1 Mn dxx        
    43     -0.147927  1 Mn dyy               41      0.103758  1 Mn dxy        
    17      0.097375  1 Mn py                90     -0.094617  2 O  py         
    87     -0.082306  2 O  py                32     -0.063696  1 Mn dyz        
 
 Vector   29  Occ=0.000000D+00  E= 1.617057D-01
              MO Center= -1.8D-03,  5.2D-03, -7.9D-01, r^2= 6.5D+00
   Bfn.  Coefficient  Atom+Function         Bfn.  Coefficient  Atom+Function  
  ----- ------------  ---------------      ----- ------------  ---------------
    43      1.070222  1 Mn dyy                6     -0.926076  1 Mn s          
    40      0.897481  1 Mn dxx               45     -0.840759  1 Mn dzz        
     5     -0.767094  1 Mn s                 39      0.463758  1 Mn dzz        
    94     -0.355794  2 O  pz                 4      0.309483  1 Mn s          
    85      0.257519  2 O  s                 21     -0.232903  1 Mn pz         
 
 Vector   30  Occ=0.000000D+00  E= 2.567006D-01
              MO Center=  1.7D-02, -4.3D-02, -1.1D+00, r^2= 1.1D+01
   Bfn.  Coefficient  Atom+Function         Bfn.  Coefficient  Atom+Function  
  ----- ------------  ---------------      ----- ------------  ---------------
     5      7.718696  1 Mn s                  6      6.543282  1 Mn s          
    45     -3.848763  1 Mn dzz               40     -3.592648  1 Mn dxx        
    43     -3.593699  1 Mn dyy                4     -2.786142  1 Mn s          
    37     -2.467261  1 Mn dyy               34     -2.453662  1 Mn dxx        
    39     -2.404804  1 Mn dzz               33     -0.558740  1 Mn dzz        
 
 Vector   31  Occ=0.000000D+00  E= 3.085203D-01
              MO Center= -3.3D-02, -9.4D-03, -6.7D-01, r^2= 4.9D+00
   Bfn.  Coefficient  Atom+Function         Bfn.  Coefficient  Atom+Function  
  ----- ------------  ---------------      ----- ------------  ---------------
    16      1.939586  1 Mn px                19     -1.368442  1 Mn px         
    17      0.423344  1 Mn py                10     -0.369510  1 Mn px         
    20     -0.302384  1 Mn py                59     -0.248640  1 Mn fxyy       
    61     -0.245349  1 Mn fxzz              56     -0.238783  1 Mn fxxx       
     5     -0.163639  1 Mn s                  6     -0.152243  1 Mn s          
 
 Vector   32  Occ=0.000000D+00  E= 3.119383D-01
              MO Center= -1.1D-02,  1.5D-01,  2.0D-01, r^2= 6.4D+00
   Bfn.  Coefficient  Atom+Function         Bfn.  Coefficient  Atom+Function  
  ----- ------------  ---------------      ----- ------------  ---------------
    18      1.664885  1 Mn pz                 5      1.654892  1 Mn s          
     6      1.633491  1 Mn s                 21     -1.362897  1 Mn pz         
    45     -1.156758  1 Mn dzz               40     -0.832707  1 Mn dxx        
    43     -0.830220  1 Mn dyy               17      0.757642  1 Mn py         
     4     -0.631881  1 Mn s                 94     -0.556187  2 O  pz         
 
 Vector   33  Occ=0.000000D+00  E= 3.226159D-01
              MO Center=  2.4D-02, -9.5D-02, -5.2D-01, r^2= 5.2D+00
   Bfn.  Coefficient  Atom+Function         Bfn.  Coefficient  Atom+Function  
  ----- ------------  ---------------      ----- ------------  ---------------
    17      1.788286  1 Mn py                20     -1.234203  1 Mn py         
    18     -0.693135  1 Mn pz                21      0.547920  1 Mn pz         
    16     -0.434002  1 Mn px                 6     -0.430060  1 Mn s          
    11     -0.342800  1 Mn py                 5     -0.329101  1 Mn s          
    45      0.311152  1 Mn dzz               19      0.296457  1 Mn px         
 
 Vector   34  Occ=0.000000D+00  E= 4.408598D-01
              MO Center= -2.3D-01,  3.2D-01,  2.1D+00, r^2= 4.6D+00
   Bfn.  Coefficient  Atom+Function         Bfn.  Coefficient  Atom+Function  
  ----- ------------  ---------------      ----- ------------  ---------------
    85      1.577678  2 O  s                  5      1.423607  1 Mn s          
    18      0.964221  1 Mn pz                21     -0.854613  1 Mn pz         
    83     -0.840354  2 O  s                 84      0.674319  2 O  s          
    94      0.567090  2 O  pz                93      0.556737  2 O  py         
    91     -0.553199  2 O  pz               101     -0.535444  2 O  dxx        
 
 Vector   35  Occ=0.000000D+00  E= 4.508124D-01
              MO Center=  2.4D-01, -3.3D-01,  2.1D+00, r^2= 3.8D+00
   Bfn.  Coefficient  Atom+Function         Bfn.  Coefficient  Atom+Function  
  ----- ------------  ---------------      ----- ------------  ---------------
    93      1.010582  2 O  py                85     -0.917606  2 O  s          
     5     -0.831550  1 Mn s                 92     -0.729004  2 O  px         
    90     -0.700588  2 O  py                18     -0.523112  1 Mn pz         
    89      0.507650  2 O  px                83      0.486169  2 O  s          
    21      0.481548  1 Mn pz                44     -0.415087  1 Mn dyz        
 
 Vector   36  Occ=0.000000D+00  E= 4.710102D-01
              MO Center=  1.0D-03,  4.6D-05,  2.2D+00, r^2= 3.3D+00
   Bfn.  Coefficient  Atom+Function         Bfn.  Coefficient  Atom+Function  
  ----- ------------  ---------------      ----- ------------  ---------------
    92      1.156797  2 O  px                89     -0.839822  2 O  px         
    93      0.831864  2 O  py                90     -0.602056  2 O  py         
    42     -0.432516  1 Mn dxz               19     -0.328415  1 Mn px         
    44     -0.316920  1 Mn dyz               16      0.290255  1 Mn px         
    20     -0.243552  1 Mn py                86     -0.221133  2 O  px         
 
 Vector   37  Occ=0.000000D+00  E= 5.883503D-01
              MO Center= -6.9D-03,  6.3D-03,  1.0D+00, r^2= 4.7D+00
   Bfn.  Coefficient  Atom+Function         Bfn.  Coefficient  Atom+Function  
  ----- ------------  ---------------      ----- ------------  ---------------
    85      2.619914  2 O  s                 94     -1.563176  2 O  pz         
    45     -1.500910  1 Mn dzz               21     -1.216177  1 Mn pz         
    83     -1.135554  2 O  s                 91      0.786955  2 O  pz         
    84      0.753128  2 O  s                101     -0.721400  2 O  dxx        
   104     -0.720744  2 O  dyy              106     -0.713080  2 O  dzz        
 
 Vector   38  Occ=0.000000D+00  E= 7.187811D-01
              MO Center= -3.9D-03,  2.2D-02, -7.4D-01, r^2= 3.1D+00
   Bfn.  Coefficient  Atom+Function         Bfn.  Coefficient  Atom+Function  
  ----- ------------  ---------------      ----- ------------  ---------------
    35      2.241440  1 Mn dxy               41     -1.144666  1 Mn dxy        
    36      1.058069  1 Mn dxz               29     -0.997658  1 Mn dxy        
     5     -0.670028  1 Mn s                 37      0.605103  1 Mn dyy        
    42     -0.590161  1 Mn dxz               23     -0.535815  1 Mn dxy        
    30     -0.465827  1 Mn dxz               40      0.307681  1 Mn dxx        
 
 Vector   39  Occ=0.000000D+00  E= 7.193299D-01
              MO Center= -5.9D-03,  1.4D-02, -7.2D-01, r^2= 3.2D+00
   Bfn.  Coefficient  Atom+Function         Bfn.  Coefficient  Atom+Function  
  ----- ------------  ---------------      ----- ------------  ---------------
     5      2.381553  1 Mn s                 34     -2.004666  1 Mn dxx        
    43     -0.988447  1 Mn dyy               35     -0.762595  1 Mn dxy        
    38      0.725177  1 Mn dyz                4     -0.647151  1 Mn s          
    31     -0.608584  1 Mn dyy               45     -0.583460  1 Mn dzz        
     6      0.552322  1 Mn s                 39     -0.432878  1 Mn dzz        
 
 Vector   40  Occ=0.000000D+00  E= 7.275847D-01
              MO Center=  3.6D-03, -1.8D-02, -7.3D-01, r^2= 3.2D+00
   Bfn.  Coefficient  Atom+Function         Bfn.  Coefficient  Atom+Function  
  ----- ------------  ---------------      ----- ------------  ---------------
    36      2.306316  1 Mn dxz               42     -1.276741  1 Mn dxz        
[...]
   Bfn.  Coefficient  Atom+Function         Bfn.  Coefficient  Atom+Function  
  ----- ------------  ---------------      ----- ------------  ---------------
    74      3.994436  1 Mn gxyzz             69      2.356359  1 Mn gxxyy      
    73     -2.088307  1 Mn gxyyz             70      1.393068  1 Mn gxxyz      
    72     -1.116367  1 Mn gxyyy             78      1.107607  1 Mn gyyzz      
    71     -1.047327  1 Mn gxxzz             77     -1.019621  1 Mn gyyyz      
    76     -0.659901  1 Mn gyyyy             67     -0.651654  1 Mn gxxxy      
 
 Vector  100  Occ=0.000000D+00  E= 7.034662D+00
              MO Center=  5.3D-05, -2.8D-05, -7.5D-01, r^2= 4.5D-01
   Bfn.  Coefficient  Atom+Function         Bfn.  Coefficient  Atom+Function  
  ----- ------------  ---------------      ----- ------------  ---------------
    73      4.045321  1 Mn gxyyz             70     -2.969862  1 Mn gxxyz      
    69      2.334493  1 Mn gxxyy             72     -1.466352  1 Mn gxyyy      
    77      1.290706  1 Mn gyyyz             74     -0.806605  1 Mn gxyzz      
    29      0.693676  1 Mn dxy               76     -0.633469  1 Mn gyyyy      
    30     -0.435138  1 Mn dxz               67      0.399845  1 Mn gxxxy      
 
 Vector  101  Occ=0.000000D+00  E= 7.037601D+00
              MO Center=  9.8D-05, -4.4D-04, -7.5D-01, r^2= 4.6D-01
   Bfn.  Coefficient  Atom+Function         Bfn.  Coefficient  Atom+Function  
  ----- ------------  ---------------      ----- ------------  ---------------
    73      2.936492  1 Mn gxyyz             78      2.832757  1 Mn gyyzz      
    77     -2.752392  1 Mn gyyyz             74     -1.812244  1 Mn gxyzz      
    32      1.049690  1 Mn dyz               69     -0.844288  1 Mn gxxyy      
    79      0.624812  1 Mn gyzzz             76     -0.388845  1 Mn gyyyy      
    84      0.338810  2 O  s                 70      0.330677  1 Mn gxxyz      
 
 Vector  102  Occ=0.000000D+00  E= 7.039120D+00
              MO Center= -8.0D-05,  1.5D-04, -7.4D-01, r^2= 5.0D-01
   Bfn.  Coefficient  Atom+Function         Bfn.  Coefficient  Atom+Function  
  ----- ------------  ---------------      ----- ------------  ---------------
    78      2.602946  1 Mn gyyzz             73     -1.677242  1 Mn gxyyz      
    79     -1.671494  1 Mn gyzzz             77      1.631379  1 Mn gyyyz      
    72      1.512583  1 Mn gxyyy             74     -1.273133  1 Mn gxyzz      
    76     -1.202357  1 Mn gyyyy             33     -1.011647  1 Mn dzz        
    31      0.873341  1 Mn dyy               70      0.488218  1 Mn gxxyz      
 
 Vector  103  Occ=0.000000D+00  E= 7.874306D+00
              MO Center= -1.1D-04,  2.5D-04, -7.5D-01, r^2= 2.8D-01
   Bfn.  Coefficient  Atom+Function         Bfn.  Coefficient  Atom+Function  
  ----- ------------  ---------------      ----- ------------  ---------------
    51      2.133859  1 Mn fxzz              50      1.348977  1 Mn fxyz       
    47     -0.820931  1 Mn fxxy              61     -0.824730  1 Mn fxzz       
    46     -0.731474  1 Mn fxxx              54      0.565350  1 Mn fyzz       
    60     -0.518674  1 Mn fxyz              48     -0.476950  1 Mn fxxz       
    53      0.474082  1 Mn fyyz              57      0.314466  1 Mn fxxy       
 
 Vector  104  Occ=0.000000D+00  E= 7.877480D+00
              MO Center= -1.4D-04,  3.8D-04, -7.5D-01, r^2= 2.9D-01
   Bfn.  Coefficient  Atom+Function         Bfn.  Coefficient  Atom+Function  
  ----- ------------  ---------------      ----- ------------  ---------------
    48      2.070820  1 Mn fxxz              50      1.730035  1 Mn fxyz       
    54     -0.838435  1 Mn fyzz              58     -0.799731  1 Mn fxxz       
    53     -0.788318  1 Mn fyyz              60     -0.665102  1 Mn fxyz       
    47      0.609769  1 Mn fxxy              84     -0.509584  2 O  s          
    49      0.483095  1 Mn fxyy              55     -0.426922  1 Mn fzzz       
 
 Vector  105  Occ=0.000000D+00  E= 7.884318D+00
              MO Center= -2.3D-05,  9.0D-05, -7.5D-01, r^2= 2.8D-01
   Bfn.  Coefficient  Atom+Function         Bfn.  Coefficient  Atom+Function  
  ----- ------------  ---------------      ----- ------------  ---------------
    49      1.757056  1 Mn fxyy              47      1.516703  1 Mn fxxy       
    53      0.782548  1 Mn fyyz              59     -0.676579  1 Mn fxyy       
    52     -0.617969  1 Mn fyyy              50     -0.578534  1 Mn fxyz       
    57     -0.577083  1 Mn fxxy              46     -0.546674  1 Mn fxxx       
    48     -0.376303  1 Mn fxxz              54      0.344687  1 Mn fyzz       
 
 Vector  106  Occ=0.000000D+00  E= 7.885470D+00
              MO Center=  4.6D-07,  7.4D-05, -7.5D-01, r^2= 2.8D-01
   Bfn.  Coefficient  Atom+Function         Bfn.  Coefficient  Atom+Function  
  ----- ------------  ---------------      ----- ------------  ---------------
    49     -1.622072  1 Mn fxyy              47      1.595338  1 Mn fxxy       
    50      1.597165  1 Mn fxyz              59      0.630364  1 Mn fxyy       
    52     -0.611836  1 Mn fyyy              57     -0.610653  1 Mn fxxy       
    60     -0.613325  1 Mn fxyz              51      0.421964  1 Mn fxzz       
    46      0.402854  1 Mn fxxx              48     -0.368786  1 Mn fxxz       
 
 Vector  107  Occ=0.000000D+00  E= 7.890863D+00
              MO Center= -2.4D-05,  4.4D-05, -7.5D-01, r^2= 2.9D-01
   Bfn.  Coefficient  Atom+Function         Bfn.  Coefficient  Atom+Function  
  ----- ------------  ---------------      ----- ------------  ---------------
    54      2.240858  1 Mn fyzz              50      1.024801  1 Mn fxyz       
    64     -0.862846  1 Mn fyzz              53     -0.855234  1 Mn fyyz       
    51     -0.704550  1 Mn fxzz              47     -0.690173  1 Mn fxxy       
    48      0.531435  1 Mn fxxz              52     -0.516695  1 Mn fyyy       
    60     -0.393564  1 Mn fxyz              49      0.359489  1 Mn fxyy       
 
 Vector  108  Occ=0.000000D+00  E= 7.891438D+00
              MO Center= -1.4D-05, -9.2D-05, -7.5D-01, r^2= 2.8D-01
   Bfn.  Coefficient  Atom+Function         Bfn.  Coefficient  Atom+Function  
  ----- ------------  ---------------      ----- ------------  ---------------
    50      2.835064  1 Mn fxyz              51     -1.218808  1 Mn fxzz       
    60     -1.089511  1 Mn fxyz              48     -0.913679  1 Mn fxxz       
    53      0.910247  1 Mn fyyz              49      0.735837  1 Mn fxyy       
    54     -0.522636  1 Mn fyzz              61      0.472260  1 Mn fxzz       
    47     -0.424050  1 Mn fxxy              58      0.350661  1 Mn fxxz       
 
 Vector  109  Occ=0.000000D+00  E= 7.899960D+00
              MO Center=  2.6D-05, -9.1D-05, -7.4D-01, r^2= 3.0D-01
   Bfn.  Coefficient  Atom+Function         Bfn.  Coefficient  Atom+Function  
  ----- ------------  ---------------      ----- ------------  ---------------
    53      1.923807  1 Mn fyyz              84     -1.136174  2 O  s          
    48      0.960310  1 Mn fxxz              55     -0.962770  1 Mn fzzz       
    63     -0.752980  1 Mn fyyz              83      0.626011  2 O  s          
    54      0.582049  1 Mn fyzz              50     -0.541013  1 Mn fxyz       
    47     -0.538304  1 Mn fxxy              49     -0.446470  1 Mn fxyy       
 
 Vector  110  Occ=0.000000D+00  E= 1.625128D+01
              MO Center=  4.0D-06,  6.3D-06, -7.5D-01, r^2= 3.1D-01
   Bfn.  Coefficient  Atom+Function         Bfn.  Coefficient  Atom+Function  
  ----- ------------  ---------------      ----- ------------  ---------------
    13      4.447344  1 Mn px                10      3.355627  1 Mn px         
    46     -3.047016  1 Mn fxxx              49     -3.047709  1 Mn fxyy       
    51     -3.047003  1 Mn fxzz              56     -2.694643  1 Mn fxxx       
    59     -2.694649  1 Mn fxyy              61     -2.695171  1 Mn fxzz       
    14      1.286985  1 Mn py                11      0.970924  1 Mn py         
 
 Vector  111  Occ=0.000000D+00  E= 1.626070D+01
              MO Center= -8.0D-05,  2.6D-04, -7.4D-01, r^2= 3.4D-01
   Bfn.  Coefficient  Atom+Function         Bfn.  Coefficient  Atom+Function  
  ----- ------------  ---------------      ----- ------------  ---------------
    15      3.334590  1 Mn pz                14      3.082331  1 Mn py         
    12      2.504326  1 Mn pz                11      2.321356  1 Mn py         
    48     -2.276836  1 Mn fxxz              53     -2.277178  1 Mn fyyz       
    55     -2.277823  1 Mn fzzz              47     -2.109100  1 Mn fxxy       
    52     -2.109547  1 Mn fyyy              54     -2.108573  1 Mn fyzz       
 
 Vector  112  Occ=0.000000D+00  E= 1.626879D+01
              MO Center=  6.3D-05, -2.3D-04, -7.4D-01, r^2= 3.4D-01
   Bfn.  Coefficient  Atom+Function         Bfn.  Coefficient  Atom+Function  
  ----- ------------  ---------------      ----- ------------  ---------------
    14      3.220781  1 Mn py                15     -3.228405  1 Mn pz         
    11      2.419940  1 Mn py                12     -2.418706  1 Mn pz         
    47     -2.200195  1 Mn fxxy              48      2.200593  1 Mn fxxz       
    52     -2.200638  1 Mn fyyy              53      2.201493  1 Mn fyyz       
    54     -2.200475  1 Mn fyzz              55      2.201583  1 Mn fzzz       
 
 Vector  113  Occ=0.000000D+00  E= 1.644708D+01
              MO Center= -8.2D-07, -7.7D-07,  2.3D+00, r^2= 3.5D-01
   Bfn.  Coefficient  Atom+Function         Bfn.  Coefficient  Atom+Function  
  ----- ------------  ---------------      ----- ------------  ---------------
    84     13.935423  2 O  s                101     -4.038526  2 O  dxx        
   104     -4.039426  2 O  dyy              106     -4.025393  2 O  dzz        
    95     -3.160178  2 O  dxx               98     -3.158619  2 O  dyy        
   100     -3.166218  2 O  dzz               82     -1.834217  2 O  s          
    85      0.376317  2 O  s                 15      0.336654  1 Mn pz         
 
 Vector  114  Occ=0.000000D+00  E= 5.253159D+01
              MO Center= -1.8D-07,  2.7D-07, -7.5D-01, r^2= 1.3D-01
   Bfn.  Coefficient  Atom+Function         Bfn.  Coefficient  Atom+Function  
  ----- ------------  ---------------      ----- ------------  ---------------
     3     32.381389  1 Mn s                 22    -18.137915  1 Mn dxx        
    25    -18.137831  1 Mn dyy               27    -18.137837  1 Mn dzz        
     4      8.584999  1 Mn s                  2      6.091103  1 Mn s          
    28     -2.091960  1 Mn dxx               31     -2.091747  1 Mn dyy        
    33     -2.093932  1 Mn dzz                5     -1.449734  1 Mn s          
 
 Vector  115  Occ=0.000000D+00  E= 7.153499D+01
              MO Center= -8.7D-08,  1.2D-07,  2.3D+00, r^2= 7.9D-02
   Bfn.  Coefficient  Atom+Function         Bfn.  Coefficient  Atom+Function  
  ----- ------------  ---------------      ----- ------------  ---------------
    83     10.651250  2 O  s                 84     -5.201574  2 O  s          
    82     -4.125036  2 O  s                 95     -2.625085  2 O  dxx        
    98     -2.624886  2 O  dyy              100     -2.629154  2 O  dzz        
    81      1.704208  2 O  s                106      0.821508  2 O  dzz        
   101      0.811975  2 O  dxx              104      0.811917  2 O  dyy        
 
 Vector  116  Occ=0.000000D+00  E= 1.030698D+02
              MO Center= -2.4D-06,  5.8D-06, -7.5D-01, r^2= 2.8D-01
   Bfn.  Coefficient  Atom+Function         Bfn.  Coefficient  Atom+Function  
  ----- ------------  ---------------      ----- ------------  ---------------
     4     90.654205  1 Mn s                  3    -43.307267  1 Mn s          
    28    -14.811738  1 Mn dxx               31    -14.811274  1 Mn dyy        
    33    -14.810640  1 Mn dzz                2    -13.794734  1 Mn s          
    69    -12.161196  1 Mn gxxyy             71    -12.161205  1 Mn gxxzz      
    78    -12.161582  1 Mn gyyzz             66     -6.080419  1 Mn gxxxx      
 

   alpha - beta orbital overlaps 
   ----------------------------- 


   alpha      1      2      3      4      5      6      7      8      9     10
    beta      1      2      3      5      4      6      7      8      9     10
 overlap   1.000  1.000  1.000  0.866  0.866  1.000  1.000  0.986  0.985  0.999


   alpha     11     12     13     14     15     16     17     18     19     20
    beta     11     18     17     19     20     16     15     12     13     14
 overlap   0.999  0.804  0.918  0.979  0.881  0.659  0.788  0.751  0.988  0.620


   alpha     21     22     23     24     25     26     27     28     29     30
    beta     22     21     23     24     26     25     28     27     29     30
 overlap   0.992  0.916  0.910  0.993  0.808  0.811  0.886  0.912  0.967  0.987


   alpha     31     32     33     34     35     36     37     38     39     40
    beta     33     32     31     34     36     35     37     40     39     42
 overlap   0.992  0.893  0.919  0.802  0.819  0.998  0.991  0.804  0.775  0.830


   alpha     41     42     43     44     45     46     47     48     49     50
    beta     41     38     43     48     47     46     44     45     49     50
 overlap   0.848  0.957  0.889  0.853  0.996  0.889  0.833  0.995  0.998  0.992


   alpha     51     52     53     54     55     56     57     58     59     60
    beta     51     53     52     57     58     55     56     54     59     62
 overlap   0.986  0.831  0.645  0.801  0.905  0.877  0.685  0.663  0.944  0.991


   alpha     61     62     63     64     65     66     67     68     69     70
    beta     61     60     63     65     64     66     67     68     69     70
 overlap   0.962  0.935  0.993  0.964  0.823  0.963  0.777  0.919  0.795  0.882


   alpha     71     72     73     74     75     76     77     78     79     80
    beta     74     71     75     72     73     76     77     78     79     81
 overlap   0.854  0.875  0.811  0.733  0.932  0.941  0.985  0.859  0.993  0.722


   alpha     81     82     83     84     85     86     87     88     89     90
    beta     81     82     87     86     84     83     85     88     89     90
 overlap   0.673  0.999  0.976  0.999  0.864  0.999  0.857  0.971  0.962  0.979


   alpha     91     92     93     94     95     96     97     98     99    100
    beta     91     92     93     94     96     97     98     99     95    100
 overlap   0.966  0.955  0.972  0.961  0.984  0.974  0.756  0.799  0.858  0.973


   alpha    101    102    103    104    105    106    107    108    109    110
    beta    101    102    104    103    108    104    106    107    109    110
 overlap   0.977  0.906  0.576  0.606  0.780  0.586  0.927  0.790  0.845  0.999


   alpha    111    112    113    114    115    116
    beta    111    112    113    114    115    116
 overlap   0.994  0.995  1.000  1.000  1.000  1.000

     --------------------------
     Expectation value of S2:  
     --------------------------
      <S2> =      9.5443 (Exact =     8.7500)
 

 center of mass
 --------------
 x =   0.00000000 y =   0.00000000 z =  -0.09849906

 moments of inertia (a.u.)
 ------------------
         419.278684873463           0.000000000000           0.000000000000
           0.000000000000         419.278684873463           0.000000000000
           0.000000000000           0.000000000000           0.000000000000
 
     Multipole analysis of the density
     ---------------------------------
 
     L   x y z        total         alpha         beta         nuclear
     -   - - -        -----         -----         ----         -------
     0   0 0 0     -0.000000    -19.000000    -14.000000     33.000000
 
     1   1 0 0      0.018406      0.008824      0.009582      0.000000
     1   0 1 0     -0.048724      0.015034     -0.063759      0.000000
     1   0 0 1     -1.917686      1.198153     -3.115838      0.000000
 
     2   2 0 0    -15.467110     -9.326837     -6.140273      0.000000
     2   1 1 0     -0.000252     -0.071671      0.071418      0.000000
     2   1 0 1     -0.282985      0.100114     -0.383099      0.000000
     2   0 2 0    -16.633860     -9.159607     -7.474253      0.000000
     2   0 1 1      0.759111     -0.177435      0.936546      0.000000
     2   0 0 2    -21.088006   -122.253835   -103.955958    205.121788
 

 Parallel integral file used      76 records with       0 large values


 Task  times  cpu:     1253.1s     wall:     1308.2s
 
 
                                NWChem Input Module
                                -------------------
 
 
 Summary of allocated global arrays
-----------------------------------
  No active global arrays



                         GA Statistics for process    0
                         ------------------------------

       create   destroy   get      put      acc     scatter   gather  read&inc
calls: 6253     6253     6.79e+04 4.64e+04 1.68e+04    0        0       60     
number of processes/call 1.50e+00 1.10e+00 1.90e+00 0.00e+00 0.00e+00
bytes total:             1.82e+09 4.71e+08 8.73e+08 0.00e+00 0.00e+00 4.80e+02
bytes remote:            6.27e+08 7.43e+07 3.12e+08 0.00e+00 0.00e+00 0.00e+00
Max memory consumed for GA by this process: 3553792 bytes
 
MA_summarize_allocated_blocks: starting scan ...
MA_summarize_allocated_blocks: scan completed: 0 heap blocks, 0 stack blocks
MA usage statistics:

	allocation statistics:
					      heap	     stack
					      ----	     -----
	current number of blocks	         0	         0
	maximum number of blocks	        21	        51
	current total bytes		         0	         0
	maximum total bytes		  95443552	  42758136
	maximum total K-bytes		     95444	     42759
	maximum total M-bytes		        96	        43
 
 
                                     CITATION
                                     --------
                Please cite the following reference when publishing
                           results obtained with NWChem:
 
                 M. Valiev, E.J. Bylaska, N. Govind, K. Kowalski,
              T.P. Straatsma, H.J.J. van Dam, D. Wang, J. Nieplocha,
                        E. Apra, T.L. Windus, W.A. de Jong
                 "NWChem: a comprehensive and scalable open-source
                  solution for large scale molecular simulations"
                      Comput. Phys. Commun. 181, 1477 (2010)
                           doi:10.1016/j.cpc.2010.04.018
 
                                      AUTHORS
                                      -------
          E. Apra, E. J. Bylaska, W. A. de Jong, N. Govind, K. Kowalski,
       T. P. Straatsma, M. Valiev, H. J. J. van Dam, D. Wang, T. L. Windus,
        J. Hammond, J. Autschbach, K. Bhaskaran-Nair, J. Brabec, K. Lopata,
    S. A. Fischer, S. Krishnamoorthy, M. Jacquelin, W. Ma, M. Klemm, O. Villa,
      Y. Chen, V. Anisimov, F. Aquino, S. Hirata, M. T. Hackler, V. Konjkov,
            D. Mejia-Rodriguez, T. Risthaus, M. Malagoli, A. Marenich,
   A. Otero-de-la-Roza, J. Mullin, P. Nichols, R. Peverati, J. Pittner, Y. Zhao,
        P.-D. Fan, A. Fonari, M. J. Williamson, R. J. Harrison, J. R. Rehr,
      M. Dupuis, D. Silverstein, D. M. A. Smith, J. Nieplocha, V. Tipparaju,
    M. Krishnan, B. E. Van Kuiken, A. Vazquez-Mayagoitia, L. Jensen, M. Swart,
      Q. Wu, T. Van Voorhis, A. A. Auer, M. Nooijen, L. D. Crosby, E. Brown,
      G. Cisneros, G. I. Fann, H. Fruchtl, J. Garza, K. Hirao, R. A. Kendall,
      J. A. Nichols, K. Tsemekhman, K. Wolinski, J. Anchell, D. E. Bernholdt,
      P. Borowski, T. Clark, D. Clerc, H. Dachsel, M. J. O. Deegan, K. Dyall,
    D. Elwood, E. Glendening, M. Gutowski, A. C. Hess, J. Jaffe, B. G. Johnson,
     J. Ju, R. Kobayashi, R. Kutteh, Z. Lin, R. Littlefield, X. Long, B. Meng,
      T. Nakajima, S. Niu, L. Pollack, M. Rosing, K. Glaesemann, G. Sandrone,
      M. Stave, H. Taylor, G. Thomas, J. H. van Lenthe, A. T. Wong, Z. Zhang.

 Total times  cpu:     1253.3s     wall:     1308.4s
