 argument  1 = /home/kohn/work/DATASETS/NWCHEM/rabeet/tm10/nwtpss/Sc2.nw
  NWChem w/ OpenMP: maximum threads =  1
                                         
                                         
 
 
              Northwest Computational Chemistry Package (NWChem) 6.8
              ------------------------------------------------------
 
 
                    Environmental Molecular Sciences Laboratory
                       Pacific Northwest National Laboratory
                                Richland, WA 99352
 
                              Copyright (c) 1994-2017
                       Pacific Northwest National Laboratory
                            Battelle Memorial Institute
 
             NWChem is an open-source computational chemistry package
                        distributed under the terms of the
                      Educational Community License (ECL) 2.0
             A copy of the license is included with this distribution
                              in the LICENSE.TXT file
 
                                  ACKNOWLEDGMENT
                                  --------------

            This software and its documentation were developed at the
            EMSL at Pacific Northwest National Laboratory, a multiprogram
            national laboratory, operated for the U.S. Department of Energy
            by Battelle under Contract Number DE-AC05-76RL01830. Support
            for this work was provided by the Department of Energy Office
            of Biological and Environmental Research, Office of Basic
            Energy Sciences, and the Office of Advanced Scientific Computing.


           Job information
           ---------------

    hostname        = kohn
    program         = nwchem
    date            = Thu Sep 27 16:08:17 2018

    compiled        = Wed_Sep_26_21:04:37_2018
    source          = /home/kohn/softwares/nwchem/nwchem-6.8
    nwchem branch   = 6.8
    nwchem revision = v6.8-47-gdf6c956
    ga revision     = ga-5.6.3
    use scalapack   = F
    input           = /home/kohn/work/DATASETS/NWCHEM/rabeet/tm10/nwtpss/Sc2.nw
    prefix          = Sc2.
    data base       = ./Sc2.db
    status          = startup
    nproc           =        4
    time left       =     -1s



           Memory information
           ------------------

    heap     =   13107198 doubles =    100.0 Mbytes
    stack    =   13107195 doubles =    100.0 Mbytes
    global   =   26214400 doubles =    200.0 Mbytes (distinct from heap & stack)
    total    =   52428793 doubles =    400.0 Mbytes
    verify   = yes
    hardfail = no 


           Directory information
           ---------------------
 
  0 permanent = .
  0 scratch   = .
 
 
 
 
                                NWChem Input Module
                                -------------------
 
 

 Scaling coordinates for geometry "geometry" by  1.889725989
 (inverse scale =  0.529177249)


          ------
          auto-z
          ------
     1 autoz failed with cvr_scaling = 1.2 changing to 1.3
     2 autoz failed with cvr_scaling = 1.3 changing to 1.4
     3 autoz failed with cvr_scaling = 1.4 changing to 1.5
 
 
                             Geometry "geometry" -> ""
                             -------------------------
 
 Output coordinates in angstroms (scale by  1.889725989 to convert to a.u.)
 
  No.       Tag          Charge          X              Y              Z
 ---- ---------------- ---------- -------------- -------------- --------------
    1 Sc                  21.0000     0.00000000     0.00000000     2.41679000
    2 Sc                  21.0000     0.00000000     0.00000000    -2.41679000
 
      Atomic Mass 
      ----------- 
 
      Sc                44.955920
 

 Effective nuclear repulsion energy (a.u.)      48.2803981332

            Nuclear Dipole moment (a.u.) 
            ----------------------------
        X                 Y               Z
 ---------------- ---------------- ----------------
     0.0000000000     0.0000000000     0.0000000000
 


                                Z-matrix (autoz)
                                -------- 

 Units are Angstrom for bonds and degrees for angles
 
      Type          Name      I     J     K     L     M      Value
      ----------- --------  ----- ----- ----- ----- ----- ----------
    1 Stretch                  1     2                       4.83358
 
 
            XYZ format geometry
            -------------------
     2
 geometry
 Sc                    0.00000000     0.00000000     2.41679000
 Sc                    0.00000000     0.00000000    -2.41679000
 


 Summary of "ao basis" -> "" (cartesian)
 ------------------------------------------------------------------------------
       Tag                 Description            Shells   Functions and Types
 ---------------- ------------------------------  ------  ---------------------
 *                         def2-TZVPP                 on all atoms 


 
                                 NWChem DFT Module
                                 -----------------
 
 
                      Basis "ao basis" -> "ao basis" (cartesian)
                      -----
  Sc (Scandium)
  -------------
            Exponent  Coefficients 
       -------------- ---------------------------------------------------------
  1 S  1.91612919E+05  0.000231
  1 S  2.87238504E+04  0.001789
  1 S  6.53701165E+03  0.009299
  1 S  1.85030972E+03  0.037739
  1 S  6.02388552E+02  0.122271
  1 S  2.16173248E+02  0.288148
  1 S  8.37125179E+01  0.405175
  1 S  3.29087072E+01  0.205660
 
  2 S  2.11343932E+02 -0.024528
  2 S  6.51289201E+01 -0.115702
  2 S  1.00343115E+01  0.559953
  2 S  4.15968846E+00  0.560878
 
  3 S  6.00090416E+00 -0.228405
  3 S  9.82557841E-01  0.719490
 
  4 S  4.24831928E-01  1.000000
 
  5 S  7.71854621E-02  1.000000
 
  6 S  3.01472197E-02  1.000000
 
  7 P  9.47341228E+02  0.002474
  7 P  2.24096997E+02  0.019743
  7 P  7.15603349E+01  0.090357
  7 P  2.64448245E+01  0.252016
  7 P  1.03937983E+01  0.396755
  7 P  4.16063046E+00  0.232086
 
  8 P  1.55657371E+01 -0.027129
  8 P  2.11215449E+00  0.551093
  8 P  8.41847090E-01  1.009064
 
  9 P  3.22975427E-01  1.000000
 
 10 P  1.23900000E-01  1.000000
 
 11 P  4.75300000E-02  1.000000
 
 12 D  3.09893910E+01  0.011903
 12 D  8.69054651E+00  0.067656
 12 D  2.95202563E+00  0.213325
 12 D  1.07619107E+00  0.383911
 
 13 D  3.83389151E-01  1.000000
 
 14 D  1.25346861E-01  1.000000
 
 15 D  4.10000000E-02  1.000000
 
 16 F  4.42000000E-01  1.000000
 
 17 F  1.10000000E-01  1.000000
 
 18 G  2.47000000E-01  1.000000
 


 Summary of "ao basis" -> "ao basis" (cartesian)
 ------------------------------------------------------------------------------
       Tag                 Description            Shells   Functions and Types
 ---------------- ------------------------------  ------  ---------------------
 Sc                        def2-TZVPP               18       80   6s5p4d2f1g




 Summary of "ao basis" -> "ao basis" (cartesian)
 ------------------------------------------------------------------------------
       Tag                 Description            Shells   Functions and Types
 ---------------- ------------------------------  ------  ---------------------
 Sc                        def2-TZVPP               18       80   6s5p4d2f1g


  Caching 1-el integrals 
 
            General Information
            -------------------
          SCF calculation type: DFT
          Wavefunction type:  spin polarized.
          No. of atoms     :     2
          No. of electrons :    42
           Alpha electrons :    23
            Beta electrons :    19
          Charge           :     0
          Spin multiplicity:     5
          Use of symmetry is: off; symmetry adaption is: off
          Maximum number of iterations: ***
          AO basis - number of functions:   160
                     number of shells:    36
          Convergence on energy requested:  1.00D-06
          Convergence on density requested:  1.00D-05
          Convergence on gradient requested:  5.00D-04
 
              XC Information
              --------------
                  TPSS metaGGA Exchange Functional  1.000          
             TPSS03 metaGGA Correlation Functional  1.000          
 
             Grid Information
             ----------------
          Grid used for XC integration:  medium    
          Radial quadrature: Mura-Knowles        
          Angular quadrature: Lebedev. 
          Tag              B.-S. Rad. Rad. Pts. Rad. Cut. Ang. Pts.
          ---              ---------- --------- --------- ---------
          Sc                  1.60      112          16.0       590
          Grid pruning is: on 
          Number of quadrature shells:   224
          Spatial weights used:  Erf1
 
          Convergence Information
          -----------------------
          Convergence aids based upon iterative change in 
          total energy or number of iterations. 
          Levelshifting, if invoked, occurs when the 
          HOMO/LUMO gap drops below (HL_TOL):  1.00D-02
          DIIS, if invoked, will attempt to extrapolate 
          using up to (NFOCK): 10 stored Fock matrices.

                    Damping( 0%)  Levelshifting(0.5)       DIIS
                  --------------- ------------------- ---------------
          dE  on:    start            ASAP                start   
          dE off:    2 iters        *** iters           *** iters 

 
      Screening Tolerance Information
      -------------------------------
          Density screening/tol_rho:  1.00D-10
          AO Gaussian exp screening on grid/accAOfunc:  14
          CD Gaussian exp screening on grid/accCDfunc:  20
          XC Gaussian exp screening on grid/accXCfunc:  20
          Schwarz screening/accCoul:  1.00D-08

 
      Superposition of Atomic Density Guess
      -------------------------------------
 
 Sum of atomic energies:       -1519.45521788
 
      Non-variational initial energy
      ------------------------------

 Total energy =   -1518.971738
 1-e energy   =   -2176.891238
 2-e energy   =     609.639102
 HOMO         =       0.018652
 LUMO         =       0.022261
 
   Time after variat. SCF:      6.4
   Time prior to 1st pass:      6.4

 Integral file          = ./Sc2.aoints.0
 Record size in doubles =    65536    No. of integs per rec  =    43688
 Max. records in memory =        0    Max. records in file   =  1479058
 No. of bits per label  =        8    No. of bits per value  =       64


 #quartets = 1.753D+05 #integrals = 1.539D+07 #direct =  0.0% #cached =100.0%


File balance: exchanges=     4  moved=    21  time=   0.0


 Grid_pts file          = ./Sc2.gridpts.0
 Record size in doubles =  12289        No. of grid_pts per rec  =   3070
 Max. records in memory =     13        Max. recs in file   =   7887226


           Memory utilization after 1st SCF pass: 
           Heap Space remaining (MW):       12.94            12939878
          Stack Space remaining (MW):       13.11            13105836

   convergence    iter        energy       DeltaE   RMS-Dens  Diis-err    time
 ---------------- ----- ----------------- --------- --------- ---------  ------
 d= 0,ls=0.0,diis     1  -1520.7442758490 -1.57D+03  1.10D-01  3.91D-01    15.5
                                                     1.11D-02  3.23D-01
 d= 0,ls=0.5,diis     2  -1519.2159256397  1.53D+00  3.38D-03  5.02D+00    20.6
                                                     2.43D-03  3.11D+00
 d= 0,ls=0.5,diis     3  -1519.7944063330 -5.78D-01  3.00D-03  2.92D+00    27.6
                                                     1.33D-03  1.70D+00
 d= 0,ls=0.5,diis     4  -1520.2482128963 -4.54D-01  3.12D-03  1.60D+00    33.6
                                                     1.08D-03  8.90D-01
 d= 0,ls=0.5,diis     5  -1520.5517413596 -3.04D-01  2.37D-03  8.09D-01    39.3
                                                     6.25D-04  4.38D-01
 d= 0,ls=0.5,diis     6  -1520.6833560162 -1.32D-01  2.31D-03  5.36D-01    44.4
                                                     4.50D-04  2.92D-01
 d= 0,ls=0.5,diis     7  -1520.7560024296 -7.26D-02  1.83D-03  4.04D-01    49.8
                                                     3.38D-04  2.23D-01
  Resetting Diis
 d= 0,ls=0.5,diis     8  -1520.7947884743 -3.88D-02  1.11D-03  3.46D-01    55.6
                                                     2.29D-04  1.94D-01
 d= 0,ls=0.5,diis     9  -1520.8026836005 -7.90D-03  6.02D-03  3.57D-01    62.5
                                                     3.24D-03  2.02D-01
 d= 0,ls=0.5,diis    10  -1520.9169342811 -1.14D-01  2.57D-03  2.40D-01    67.7
                                                     1.89D-03  1.97D-01
 d= 0,ls=0.5,diis    11  -1520.9598392165 -4.29D-02  1.21D-03  7.69D-02    73.8
                                                     6.87D-04  5.25D-02
 d= 0,ls=0.5,diis    12  -1520.9801693274 -2.03D-02  1.05D-03  2.67D-02    80.0
                                                     4.30D-04  1.45D-02
 d= 0,ls=0.5,diis    13  -1520.9907054701 -1.05D-02  1.09D-03  1.12D-02    85.1
                                                     3.59D-04  4.48D-03
 d= 0,ls=0.5,diis    14  -1520.9976220796 -6.92D-03  9.96D-04  6.98D-03    90.5
                                                     3.08D-04  2.15D-03
 d= 0,ls=0.5,diis    15  -1521.0033276729 -5.71D-03  8.78D-04  6.15D-03    96.4
                                                     2.46D-04  1.73D-03
 d= 0,ls=0.5,diis    16  -1521.0084506446 -5.12D-03  7.71D-04  6.62D-03   101.7
                                                     1.79D-04  2.03D-03
 d= 0,ls=0.5,diis    17  -1521.0131561946 -4.71D-03  7.59D-04  7.56D-03   106.3
                                                     1.25D-04  2.59D-03
 d= 0,ls=0.5,diis    18  -1521.0174350327 -4.28D-03  8.36D-04  8.78D-03   112.7
                                                     9.59D-05  3.34D-03
 d= 0,ls=0.5,diis    19  -1521.0213428623 -3.91D-03  1.51D-03  9.91D-03   118.1
                                                     1.03D-04  4.07D-03
 d= 0,ls=0.5,diis    20  -1521.0272693484 -5.93D-03  2.09D-03  5.04D-03   123.1
                                                     2.15D-04  1.50D-03
 d= 0,ls=0.5,diis    21  -1521.0323047982 -5.04D-03  2.28D-03  2.42D-03   128.2
                                                     1.38D-04  2.87D-04
 d= 0,ls=0.5,diis    22  -1521.0359790789 -3.67D-03  2.29D-03  2.22D-03   133.5
                                                     1.14D-04  6.00D-04
 d= 0,ls=0.5,diis    23  -1521.0386903084 -2.71D-03  1.76D-03  2.73D-03   138.4
                                                     5.67D-05  1.19D-03
 d= 0,ls=0.5,diis    24  -1521.0410216204 -2.33D-03  1.42D-03  2.46D-03   145.0
                                                     4.35D-05  1.12D-03
 d= 0,ls=0.5,diis    25  -1521.0429960720 -1.97D-03  1.39D-03  1.90D-03   150.3
                                                     3.34D-05  8.48D-04
 d= 0,ls=0.5,diis    26  -1521.0446234333 -1.63D-03  1.32D-03  1.25D-03   154.8
                                                     9.91D-06  4.67D-04
 d= 0,ls=0.5,diis    27  -1521.0457932719 -1.17D-03  8.55D-04  1.06D-03   160.7
                                                     2.06D-05  4.29D-04
 d= 0,ls=0.5,diis    28  -1521.0467440471 -9.51D-04  4.55D-04  7.87D-04   166.5
                                                     3.80D-05  2.99D-04
 d= 0,ls=0.5,diis    29  -1521.0475131607 -7.69D-04  4.32D-04  4.55D-04   170.6
                                                     1.92D-05  1.10D-04
 d= 0,ls=0.5,diis    30  -1521.0480628862 -5.50D-04  4.06D-04  3.18D-04   176.7
                                                     2.13D-05  6.14D-05
 d= 0,ls=0.5,diis    31  -1521.0484676878 -4.05D-04  4.02D-04  2.61D-04   182.9
                                                     1.45D-05  6.21D-05
 d= 0,ls=0.5,diis    32  -1521.0487817805 -3.14D-04  2.85D-04  2.08D-04   188.5
                                                     1.93D-05  5.31D-05
 d= 0,ls=0.5,diis    33  -1521.0490229813 -2.41D-04  2.85D-04  1.63D-04   194.0
                                                     1.30D-05  4.15D-05
 d= 0,ls=0.5,diis    34  -1521.0492078112 -1.85D-04  2.54D-04  1.26D-04   199.6
                                                     1.29D-05  3.30D-05
 d= 0,ls=0.5,diis    35  -1521.0493518185 -1.44D-04  2.42D-04  9.26D-05   204.9
                                                     1.08D-05  2.27D-05
 d= 0,ls=0.5,diis    36  -1521.0494606091 -1.09D-04  2.02D-04  6.96D-05   210.5
                                                     8.47D-06  1.68D-05
 d= 0,ls=0.5,diis    37  -1521.0495427662 -8.22D-05  1.69D-04  5.37D-05   214.8
                                                     6.39D-06  1.32D-05
 d= 0,ls=0.5,diis    38  -1521.0496052802 -6.25D-05  1.36D-04  4.20D-05   220.7
                                                     4.94D-06  1.07D-05
 d= 0,ls=0.5,diis    39  -1521.0496530642 -4.78D-05  1.18D-04  3.23D-05   227.2
                                                     5.56D-06  8.29D-06
 d= 0,ls=0.5,diis    40  -1521.0496898031 -3.67D-05  1.00D-04  2.44D-05   232.6
                                                     4.29D-06  6.13D-06
 d= 0,ls=0.5,diis    41  -1521.0497175673 -2.78D-05  9.16D-05  1.93D-05   238.6
                                                     3.73D-06  5.18D-06
 d= 0,ls=0.5,diis    42  -1521.0497389220 -2.14D-05  7.44D-05  1.51D-05   245.0
                                                     4.14D-06  4.22D-06
 d= 0,ls=0.5,diis    43  -1521.0497551486 -1.62D-05  7.22D-05  1.22D-05   250.1
                                                     3.65D-06  3.64D-06
 d= 0,ls=0.5,diis    44  -1521.0497677087 -1.26D-05  6.88D-05  9.58D-06   256.0
                                                     3.76D-06  2.93D-06
 d= 0,ls=0.5,diis    45  -1521.0497774927 -9.78D-06  6.40D-05  7.21D-06   260.8
                                                     3.76D-06  2.16D-06
 d= 0,ls=0.5,diis    46  -1521.0497849416 -7.45D-06  6.14D-05  5.54D-06   266.4
                                                     4.44D-06  1.68D-06
 d= 0,ls=0.5,diis    47  -1521.0497906799 -5.74D-06  5.18D-05  4.19D-06   272.8
                                                     5.65D-06  1.28D-06
 d= 0,ls=0.5,diis    48  -1521.0497951132 -4.43D-06  4.58D-05  3.20D-06   278.0
                                                     6.60D-06  1.00D-06
 d= 0,ls=0.5,diis    49  -1521.0497986136 -3.50D-06  3.98D-05  2.42D-06   283.1
                                                     8.42D-06  7.82D-07
 d= 0,ls=0.5,diis    50  -1521.0498014562 -2.84D-06  3.44D-05  1.84D-06   288.5
                                                     1.04D-05  6.70D-07
 d= 0,ls=0.5,diis    51  -1521.0498038715 -2.42D-06  3.11D-05  1.45D-06   293.8
                                                     1.30D-05  6.68D-07
 d= 0,ls=0.5,diis    52  -1521.0498061518 -2.28D-06  2.59D-05  1.15D-06   299.6
                                                     1.68D-05  7.49D-07
 d= 0,ls=0.5,diis    53  -1521.0498085687 -2.42D-06  2.72D-05  9.86D-07   305.5
                                                     2.25D-05  9.90D-07
 d= 0,ls=0.5,diis    54  -1521.0498114952 -2.93D-06  2.21D-05  1.11D-06   311.5
                                                     2.65D-05  1.58D-06
 d= 0,ls=0.5,diis    55  -1521.0498156084 -4.11D-06  2.00D-05  1.14D-06   317.5
                                                     3.42D-05  2.36D-06
 d= 0,ls=0.5,diis    56  -1521.0498217132 -6.10D-06  1.86D-05  1.38D-06   322.6
                                                     4.54D-05  3.73D-06
 d= 0,ls=0.5,diis    57  -1521.0498311618 -9.45D-06  1.89D-05  1.55D-06   328.5
                                                     5.67D-05  5.75D-06
 d= 0,ls=0.5,diis    58  -1521.0498460392 -1.49D-05  1.82D-05  1.94D-06   335.1
                                                     7.10D-05  9.12D-06
 d= 0,ls=0.5,diis    59  -1521.0498698889 -2.38D-05  2.09D-05  2.53D-06   340.1
                                                     8.86D-05  1.46D-05
 d= 0,ls=0.5,diis    60  -1521.0499082084 -3.83D-05  2.43D-05  3.49D-06   344.8
                                                     1.11D-04  2.35D-05
 d= 0,ls=0.5,diis    61  -1521.0499699846 -6.18D-05  2.79D-05  5.05D-06   350.7
                                                     1.42D-04  3.80D-05
 d= 0,ls=0.5,diis    62  -1521.0500699186 -9.99D-05  3.33D-05  7.25D-06   356.9
                                                     1.86D-04  6.14D-05
 d= 0,ls=0.5,diis    63  -1521.0502315677 -1.62D-04  3.83D-05  1.10D-05   362.9
                                                     2.34D-04  9.96D-05
 d= 0,ls=0.5,diis    64  -1521.0504920348 -2.60D-04  4.52D-05  1.70D-05   369.1
                                                     3.03D-04  1.61D-04
 d= 0,ls=0.5,diis    65  -1521.0509102555 -4.18D-04  5.38D-05  2.65D-05   374.3
                                                     3.82D-04  2.60D-04
 d= 0,ls=0.5,diis    66  -1521.0515797073 -6.69D-04  6.42D-05  4.22D-05   379.6
                                                     4.78D-04  4.16D-04
 d= 0,ls=0.5,diis    67  -1521.0526440059 -1.06D-03  7.66D-05  6.87D-05   385.1
                                                     6.10D-04  6.61D-04
 d= 0,ls=0.5,diis    68  -1521.0543173402 -1.67D-03  9.11D-05  1.15D-04   392.5
                                                     8.14D-04  1.04D-03
 d= 0,ls=0.5,diis    69  -1521.0568922723 -2.57D-03  1.08D-04  1.98D-04   398.6
                                                     1.03D-03  1.59D-03
 d= 0,ls=0.5,diis    70  -1521.0607556909 -3.86D-03  1.28D-04  3.46D-04   404.4
                                                     1.12D-03  2.38D-03
 d= 0,ls=0.5,diis    71  -1521.0664006313 -5.64D-03  1.53D-04  6.24D-04   412.1
                                                     1.40D-03  3.43D-03
 d= 0,ls=0.5,diis    72  -1521.0741226963 -7.72D-03  1.82D-04  1.12D-03   418.4
                                                     1.62D-03  4.68D-03
 d= 0,ls=0.5,diis    73  -1521.0839546765 -9.83D-03  2.17D-04  1.97D-03   423.7
                                                     1.82D-03  5.99D-03
 d= 0,ls=0.5,diis    74  -1521.0953703078 -1.14D-02  2.60D-04  3.28D-03   430.4
                                                     2.19D-03  7.13D-03
 d= 0,ls=0.5,diis    75  -1521.1074571524 -1.21D-02  3.12D-04  5.06D-03   435.6
                                                     1.84D-03  7.93D-03
 d= 0,ls=0.5,diis    76  -1521.1190233624 -1.16D-02  3.83D-04  7.25D-03   440.7
                                                     6.42D-03  8.37D-03
 d= 0,ls=0.5,diis    77  -1521.1292752095 -1.03D-02  4.66D-04  9.50D-03   446.2
                                                     4.92D-03  8.47D-03
 d= 0,ls=0.5,diis    78  -1521.1375736318 -8.30D-03  5.63D-04  1.16D-02   451.9
                                                     1.37D-02  8.58D-03
 d= 0,ls=0.5,diis    79  -1521.1441832287 -6.61D-03  6.46D-04  1.40D-02   457.7
                                                     3.29D-02  8.92D-03
 d= 0,ls=0.5,diis    80  -1521.1494156284 -5.23D-03  7.72D-04  1.61D-02   463.3
                                                     5.63D-02  9.47D-03
 d= 0,ls=0.5,diis    81  -1521.1534400118 -4.02D-03  8.57D-04  1.81D-02   469.1
                                                     8.35D-02  1.03D-02
 d= 0,ls=0.5,diis    82  -1521.1571210425 -3.68D-03  1.14D-03  1.96D-02   474.6
                                                     6.31D-03  1.04D-02
 d= 0,ls=0.5,diis    83  -1521.1608068926 -3.69D-03  1.18D-03  2.11D-02   478.9
                                                     8.44D-03  1.05D-02
 d= 0,ls=0.5,diis    84  -1521.1637226252 -2.92D-03  1.05D-03  2.45D-02   484.9
                                                     3.71D-03  1.22D-02
 d= 0,ls=0.5,diis    85  -1521.1688898872 -5.17D-03  1.22D-03  2.36D-02   491.8
                                                     5.47D-03  1.13D-02
 d= 0,ls=0.5,diis    86  -1521.1757191062 -6.83D-03  1.84D-03  1.79D-02   496.5
                                                     7.61D-03  8.02D-03
 d= 0,ls=0.5,diis    87  -1521.1853822977 -9.66D-03  2.94D-03  8.82D-03   501.8
                                                     4.57D-03  2.64D-03
 d= 0,ls=0.5,diis    88  -1521.1931668845 -7.78D-03  2.76D-03  4.85D-03   508.0
                                                     1.64D-03  9.57D-04
 d= 0,ls=0.5,diis    89  -1521.1993936834 -6.23D-03  2.25D-03  3.56D-03   513.3
                                                     1.75D-03  5.30D-04
 d= 0,ls=0.5,diis    90  -1521.2048016391 -5.41D-03  2.29D-03  2.99D-03   519.4
                                                     1.77D-03  3.96D-04
 d= 0,ls=0.5,diis    91  -1521.2099351737 -5.13D-03  2.03D-03  2.36D-03   525.4
                                                     1.36D-03  1.67D-04
 d= 0,ls=0.5,diis    92  -1521.2144407318 -4.51D-03  1.93D-03  2.01D-03   531.9
                                                     9.18D-04  1.01D-04
 d= 0,ls=0.5,diis    93  -1521.2184613908 -4.02D-03  1.56D-03  1.79D-03   537.5
                                                     8.69D-04  1.17D-04
 d= 0,ls=0.5,diis    94  -1521.2218710523 -3.41D-03  1.95D-03  1.51D-03   543.3
                                                     9.94D-04  9.60D-05
 d= 0,ls=0.5,diis    95  -1521.2249224824 -3.05D-03  1.33D-03  1.64D-03   548.9
                                                     9.80D-04  3.24D-04
 d= 0,ls=0.5,diis    96  -1521.2274707350 -2.55D-03  1.36D-03  1.47D-03   553.9
                                                     1.08D-03  3.37D-04
 d= 0,ls=0.5,diis    97  -1521.2296616554 -2.19D-03  1.21D-03  1.14D-03   559.8
                                                     1.46D-03  2.42D-04
 d= 0,ls=0.5,diis    98  -1521.2314367534 -1.78D-03  9.07D-04  8.77D-04   564.7
                                                     1.23D-03  1.75D-04
 d= 0,ls=0.5,diis    99  -1521.2328490211 -1.41D-03  7.57D-04  6.85D-04   570.4
                                                     1.14D-03  1.28D-04
 d= 0,ls=0.5,diis   100  -1521.2339589218 -1.11D-03  7.11D-04  6.31D-04   575.8
                                                     8.71D-04  1.62D-04
 d= 0,ls=0.5,diis   101  -1521.2348572868 -8.98D-04  5.34D-04  5.01D-04   582.3
                                                     6.81D-04  1.32D-04
 d= 0,ls=0.5,diis   102  -1521.2355756500 -7.18D-04  4.82D-04  3.64D-04   586.8
                                                     3.98D-04  7.95D-05
 d= 0,ls=0.5,diis   103  -1521.2361397365 -5.64D-04  4.31D-04  2.85D-04   592.4
                                                     2.41D-04  5.90D-05
 d= 0,ls=0.5,diis   104  -1521.2365893543 -4.50D-04  3.88D-04  2.30D-04   598.0
                                                     1.62D-04  4.86D-05
 d= 0,ls=0.5,diis   105  -1521.2369531154 -3.64D-04  2.97D-04  1.83D-04   603.5
                                                     1.20D-04  3.43D-05
 d= 0,ls=0.5,diis   106  -1521.2372471001 -2.94D-04  2.67D-04  1.51D-04   610.4
                                                     1.01D-04  2.70D-05
 d= 0,ls=0.5,diis   107  -1521.2374911930 -2.44D-04  2.44D-04  1.26D-04   614.9
                                                     1.29D-04  2.17D-05
 d= 0,ls=0.5,diis   108  -1521.2376983957 -2.07D-04  2.42D-04  1.06D-04   620.2
                                                     1.19D-04  1.65D-05
 d= 0,ls=0.5,diis   109  -1521.2378787481 -1.80D-04  1.83D-04  9.07D-05   625.9
                                                     6.62D-05  1.12D-05
 d= 0,ls=0.5,diis   110  -1521.2380373302 -1.59D-04  1.57D-04  8.18D-05   631.4
                                                     7.33D-05  9.26D-06
 d= 0,ls=0.5,diis   111  -1521.2381816866 -1.44D-04  1.67D-04  7.68D-05   636.1
                                                     5.12D-05  9.12D-06
 d= 0,ls=0.5,diis   112  -1521.2383184089 -1.37D-04  1.69D-04  7.33D-05   641.7
                                                     2.89D-05  8.91D-06
 d= 0,ls=0.5,diis   113  -1521.2384515303 -1.33D-04  1.40D-04  7.22D-05   647.2
                                                     3.31D-05  9.04D-06
 d= 0,ls=0.5,diis   114  -1521.2385825277 -1.31D-04  1.24D-04  7.47D-05   653.0
                                                     7.03D-05  1.26D-05
 d= 0,ls=0.5,diis   115  -1521.2387169373 -1.34D-04  1.13D-04  7.74D-05   659.6
                                                     5.02D-05  1.55D-05
 d= 0,ls=0.5,diis   116  -1521.2388479091 -1.31D-04  1.07D-04  8.75D-05   666.2
                                                     4.43D-05  3.24D-05
 d= 0,ls=0.5,diis   117  -1521.2389703284 -1.22D-04  1.56D-04  1.08D-04   671.7
                                                     1.07D-04  7.12D-05
 d= 0,ls=0.5,diis   118  -1521.2391177220 -1.47D-04  1.38D-04  1.11D-04   678.0
                                                     1.14D-04  6.56D-05
 d= 0,ls=0.5,diis   119  -1521.2392677981 -1.50D-04  1.04D-04  1.21D-04   682.8
                                                     1.24D-04  7.93D-05
 d= 0,ls=0.5,diis   120  -1521.2394053297 -1.38D-04  1.48D-04  1.49D-04   688.9
                                                     2.22D-04  1.40D-04
 d= 0,ls=0.5,diis   121  -1521.2395816305 -1.76D-04  1.22D-04  1.53D-04   695.4
                                                     8.01D-05  1.28D-04
 d= 0,ls=0.5,diis   122  -1521.2397755475 -1.94D-04  1.30D-04  1.59D-04   703.3
                                                     1.14D-04  1.18D-04
 d= 0,ls=0.5,diis   123  -1521.2399930453 -2.17D-04  1.21D-04  1.62D-04   710.8
                                                     4.35D-05  1.01D-04
 d= 0,ls=0.5,diis   124  -1521.2402153596 -2.22D-04  1.24D-04  1.85D-04   715.9
                                                     1.70D-05  1.18D-04
 d= 0,ls=0.5,diis   125  -1521.2404513585 -2.36D-04  1.24D-04  2.10D-04   723.9
                                                     3.66D-05  1.45D-04
 d= 0,ls=0.5,diis   126  -1521.2406490401 -1.98D-04  1.20D-04  2.83D-04   729.0
                                                     5.37D-05  2.64D-04
 d= 0,ls=0.5,diis   127  -1521.2408473140 -1.98D-04  1.15D-04  3.65D-04   733.2
                                                     4.57D-05  3.79D-04
 d= 0,ls=0.5,diis   128  -1521.2410599907 -2.13D-04  1.13D-04  4.43D-04   738.3
                                                     7.26D-05  4.75D-04
 d= 0,ls=0.5,diis   129  -1521.2412987827 -2.39D-04  1.15D-04  5.04D-04   744.8
                                                     2.86D-05  5.43D-04
 d= 0,ls=0.5,diis   130  -1521.2415353654 -2.37D-04  1.16D-04  5.97D-04   750.4
                                                     5.00D-05  6.28D-04
 d= 0,ls=0.5,diis   131  -1521.2417920644 -2.57D-04  1.18D-04  6.76D-04   755.2
                                                     5.34D-05  7.03D-04
 d= 0,ls=0.5,diis   132  -1521.2420713694 -2.79D-04  1.25D-04  7.50D-04   760.0
                                                     3.12D-05  7.74D-04
 d= 0,ls=0.5,diis   133  -1521.2423735814 -3.02D-04  1.35D-04  8.28D-04   765.5
                                                     6.22D-05  8.25D-04
 d= 0,ls=0.5,diis   134  -1521.2426546680 -2.81D-04  1.88D-04  9.77D-04   770.2
                                                     7.28D-05  9.11D-04
 d= 0,ls=0.5,diis   135  -1521.2431190071 -4.64D-04  1.55D-04  1.01D-03   775.8
                                                     1.07D-04  7.01D-04
 d= 0,ls=0.5,diis   136  -1521.2434963303 -3.77D-04  1.52D-04  1.16D-03   781.7
                                                     2.54D-05  8.01D-04
 d= 0,ls=0.5,diis   137  -1521.2438858375 -3.90D-04  1.55D-04  1.31D-03   787.4
                                                     2.80D-05  9.10D-04
 d= 0,ls=0.5,diis   138  -1521.2442868629 -4.01D-04  1.62D-04  1.48D-03   791.7
                                                     1.07D-04  1.04D-03
 d= 0,ls=0.5,diis   139  -1521.2447257915 -4.39D-04  1.61D-04  1.64D-03   797.0
                                                     4.02D-05  1.16D-03
 d= 0,ls=0.5,diis   140  -1521.2451062058 -3.80D-04  1.59D-04  1.86D-03   801.9
                                                     5.34D-05  1.34D-03
 d= 0,ls=0.5,diis   141  -1521.2454432573 -3.37D-04  1.75D-04  2.16D-03   806.6
                                                     9.67D-05  1.63D-03
 d= 0,ls=0.5,diis   142  -1521.2458842824 -4.41D-04  1.75D-04  2.35D-03   811.9
                                                     1.56D-04  1.66D-03
 d= 0,ls=0.5,diis   143  -1521.2463126391 -4.28D-04  1.62D-04  2.53D-03   817.6
                                                     8.59D-05  1.78D-03
 d= 0,ls=0.5,diis   144  -1521.2467720573 -4.59D-04  1.59D-04  2.69D-03   822.6
                                                     1.00D-04  1.89D-03
 d= 0,ls=0.5,diis   145  -1521.2472555562 -4.83D-04  1.57D-04  2.89D-03   827.9
                                                     8.61D-05  1.98D-03
 d= 0,ls=0.5,diis   146  -1521.2477362280 -4.81D-04  1.68D-04  3.06D-03   834.0
                                                     3.24D-04  2.12D-03
 d= 0,ls=0.5,diis   147  -1521.2483970785 -6.61D-04  2.19D-04  2.98D-03   838.5
                                                     2.37D-04  2.12D-03
 d= 0,ls=0.5,diis   148  -1521.2493555657 -9.58D-04  2.75D-04  2.55D-03   844.8
                                                     2.29D-04  1.87D-03
 d= 0,ls=0.5,diis   149  -1521.2505210672 -1.17D-03  2.78D-04  2.07D-03   850.4
                                                     4.78D-04  1.31D-03
 d= 0,ls=0.5,diis   150  -1521.2515203603 -9.99D-04  3.04D-04  1.86D-03   856.0
                                                     4.10D-04  1.21D-03
 d= 0,ls=0.5,diis   151  -1521.2525311012 -1.01D-03  2.35D-04  1.75D-03   861.7
                                                     1.83D-04  9.99D-04
 d= 0,ls=0.5,diis   152  -1521.2535087265 -9.78D-04  2.18D-04  1.57D-03   867.0
                                                     1.57D-04  9.84D-04
 d= 0,ls=0.5,diis   153  -1521.2544305072 -9.22D-04  2.10D-04  1.48D-03   871.6
                                                     1.60D-04  9.94D-04
 d= 0,ls=0.5,diis   154  -1521.2553324899 -9.02D-04  2.43D-04  1.40D-03   877.0
                                                     2.34D-04  9.77D-04
 d= 0,ls=0.5,diis   155  -1521.2563220776 -9.90D-04  9.56D-04  1.23D-03   883.3
                                                     4.23D-04  7.24D-04
 d= 0,ls=0.5,diis   156  -1521.2579369936 -1.61D-03  4.29D-04  7.37D-04   889.0
                                                     3.38D-04  2.17D-04
 d= 0,ls=0.5,diis   157  -1521.2591481247 -1.21D-03  3.18D-04  6.49D-04   895.4
                                                     1.66D-04  1.76D-04
 d= 0,ls=0.5,diis   158  -1521.2602570563 -1.11D-03  2.87D-04  5.66D-04   900.1
                                                     1.72D-04  1.12D-04
 d= 0,ls=0.5,diis   159  -1521.2612543170 -9.97D-04  2.97D-04  5.24D-04   905.8
                                                     1.70D-04  9.28D-05
 d= 0,ls=0.5,diis   160  -1521.2621595753 -9.05D-04  3.73D-04  5.27D-04   911.4
                                                     2.23D-04  1.08D-04
 d= 0,ls=0.5,diis   161  -1521.2629998872 -8.40D-04  2.80D-04  5.79D-04   916.9
                                                     2.19D-04  2.24D-04
 d= 0,ls=0.5,diis   162  -1521.2637868611 -7.87D-04  3.92D-04  5.59D-04   922.3
                                                     2.67D-04  2.04D-04
 d= 0,ls=0.5,diis   163  -1521.2645303230 -7.43D-04  3.73D-04  5.63D-04   928.2
                                                     5.16D-04  3.54D-04
 d= 0,ls=0.5,diis   164  -1521.2652648642 -7.35D-04  2.73D-04  4.81D-04   932.9
                                                     4.00D-04  3.75D-04
 d= 0,ls=0.5,diis   165  -1521.2659099377 -6.45D-04  2.74D-04  3.99D-04   938.5
                                                     5.02D-04  2.94D-04
 d= 0,ls=0.5,diis   166  -1521.2664458888 -5.36D-04  2.69D-04  3.72D-04   943.7
                                                     5.81D-04  3.12D-04
 d= 0,ls=0.5,diis   167  -1521.2669144850 -4.69D-04  2.12D-04  3.51D-04   948.8
                                                     1.94D-04  3.35D-04
 d= 0,ls=0.5,diis   168  -1521.2673301019 -4.16D-04  1.85D-04  3.18D-04   953.5
                                                     3.34D-04  2.96D-04
 d= 0,ls=0.5,diis   169  -1521.2676935830 -3.63D-04  1.84D-04  2.83D-04   958.9
                                                     3.81D-04  2.56D-04
 d= 0,ls=0.5,diis   170  -1521.2680151149 -3.22D-04  1.53D-04  2.43D-04   967.0
                                                     2.08D-04  1.98D-04
 d= 0,ls=0.5,diis   171  -1521.2682964332 -2.81D-04  1.46D-04  2.01D-04   973.6
                                                     1.42D-04  1.49D-04
 d= 0,ls=0.5,diis   172  -1521.2685290557 -2.33D-04  1.35D-04  1.81D-04   979.6
                                                     1.80D-04  1.55D-04
 d= 0,ls=0.5,diis   173  -1521.2687287996 -2.00D-04  1.20D-04  1.74D-04   984.8
                                                     1.48D-04  1.80D-04
 d= 0,ls=0.5,diis   174  -1521.2689113149 -1.83D-04  1.44D-04  1.51D-04   991.7
                                                     3.40D-04  1.66D-04
 d= 0,ls=0.5,diis   175  -1521.2690763622 -1.65D-04  1.03D-04  1.24D-04   997.2
                                                     1.40D-04  1.43D-04
 d= 0,ls=0.5,diis   176  -1521.2692096863 -1.33D-04  9.09D-05  1.10D-04  1002.3
                                                     1.72D-04  1.31D-04
 d= 0,ls=0.5,diis   177  -1521.2693237031 -1.14D-04  1.15D-04  9.62D-05  1008.0
                                                     4.19D-04  1.15D-04
 d= 0,ls=0.5,diis   178  -1521.2694197206 -9.60D-05  8.50D-05  9.01D-05  1015.5
                                                     2.08D-04  9.69D-05
 d= 0,ls=0.5,diis   179  -1521.2695018423 -8.21D-05  7.50D-05  7.87D-05  1021.2
                                                     1.53D-04  7.73D-05
 d= 0,ls=0.5,diis   180  -1521.2695714458 -6.96D-05  7.24D-05  7.03D-05  1026.7
                                                     2.12D-04  7.56D-05
 d= 0,ls=0.5,diis   181  -1521.2696324325 -6.10D-05  6.48D-05  6.07D-05  1032.7
                                                     1.41D-04  6.73D-05
 d= 0,ls=0.5,diis   182  -1521.2696874220 -5.50D-05  5.61D-05  4.87D-05  1038.8
                                                     2.70D-04  5.45D-05
 d= 0,ls=0.5,diis   183  -1521.2697320250 -4.46D-05  5.53D-05  4.42D-05  1043.8
                                                     3.80D-04  4.66D-05
 d= 0,ls=0.5,diis   184  -1521.2697694680 -3.74D-05  6.02D-05  4.03D-05  1049.0
                                                     9.06D-05  3.99D-05
 d= 0,ls=0.5,diis   185  -1521.2698004567 -3.10D-05  5.35D-05  3.92D-05  1054.8
                                                     1.29D-04  4.33D-05
 d= 0,ls=0.5,diis   186  -1521.2698314795 -3.10D-05  4.53D-05  3.13D-05  1060.9
                                                     2.81D-05  3.34D-05
 d= 0,ls=0.5,diis   187  -1521.2698583197 -2.68D-05  4.07D-05  2.21D-05  1065.5
                                                     1.16D-04  2.16D-05
 d= 0,ls=0.5,diis   188  -1521.2698791373 -2.08D-05  3.92D-05  1.67D-05  1070.9
                                                     1.09D-04  1.25D-05
 d= 0,ls=0.5,diis   189  -1521.2698950128 -1.59D-05  3.07D-05  1.46D-05  1077.1
                                                     2.42D-05  9.53D-06
 d= 0,ls=0.5,diis   190  -1521.2699088090 -1.38D-05  3.14D-05  1.19D-05  1082.3
                                                     3.18D-05  6.52D-06
 d= 0,ls=0.5,diis   191  -1521.2699208363 -1.20D-05  2.98D-05  9.27D-06  1089.2
                                                     7.35D-05  5.35D-06
 d= 0,ls=0.5,diis   192  -1521.2699307804 -9.94D-06  2.37D-05  7.52D-06  1094.4
                                                     3.84D-05  4.65D-06
 d= 0,ls=0.5,diis   193  -1521.2699392720 -8.49D-06  2.26D-05  6.12D-06  1101.1
                                                     7.41D-05  3.57D-06
 d= 0,ls=0.5,diis   194  -1521.2699462001 -6.93D-06  2.02D-05  5.38D-06  1106.4
                                                     6.38D-05  3.05D-06
 d= 0,ls=0.5,diis   195  -1521.2699521119 -5.91D-06  1.78D-05  4.64D-06  1112.4
                                                     3.55D-05  2.60D-06
 d= 0,ls=0.5,diis   196  -1521.2699572932 -5.18D-06  1.65D-05  3.84D-06  1118.0
                                                     2.25D-05  2.22D-06
 d= 0,ls=0.5,diis   197  -1521.2699617697 -4.48D-06  1.48D-05  3.15D-06  1124.7
                                                     2.06D-05  1.89D-06
 d= 0,ls=0.5,diis   198  -1521.2699656277 -3.86D-06  1.35D-05  2.50D-06  1129.7
                                                     1.70D-05  1.49D-06
 d= 0,ls=0.5,diis   199  -1521.2699687769 -3.15D-06  1.38D-05  2.18D-06  1133.7
                                                     1.16D-05  1.26D-06
 d= 0,ls=0.5,diis   200  -1521.2699714128 -2.64D-06  1.53D-05  2.02D-06  1138.9
                                                     4.18D-05  1.18D-06
 d= 0,ls=0.5,diis   201  -1521.2699737826 -2.37D-06  1.30D-05  1.90D-06  1143.7
                                                     3.02D-05  1.53D-06
 d= 0,ls=0.5,diis   202  -1521.2699758775 -2.09D-06  1.14D-05  1.76D-06  1149.1
                                                     2.08D-05  1.64D-06
 d= 0,ls=0.5,diis   203  -1521.2699777271 -1.85D-06  1.07D-05  1.50D-06  1153.9
                                                     1.55D-05  1.56D-06
 d= 0,ls=0.5,diis   204  -1521.2699793051 -1.58D-06  1.00D-05  1.29D-06  1158.3
                                                     2.38D-05  1.34D-06
 d= 0,ls=0.5,diis   205  -1521.2699806685 -1.36D-06  1.14D-05  1.09D-06  1163.0
                                                     1.91D-05  1.22D-06
 d= 0,ls=0.5,diis   206  -1521.2699818235 -1.15D-06  1.03D-05  9.97D-07  1168.2
                                                     3.11D-05  1.11D-06
 d= 0,ls=0.5,diis   207  -1521.2699828506 -1.03D-06  1.08D-05  9.51D-07  1173.4
                                                     3.34D-05  1.12D-06
 d= 0,ls=0.5,diis   208  -1521.2699837521 -9.02D-07  8.35D-06  9.11D-07  1178.5
                                                     9.56D-06  1.18D-06


         Total DFT energy =    -1521.269984547342
      One electron energy =    -2179.917028901659
           Coulomb energy =      688.396897476476
          Exchange energy =      -76.370692085994
       Correlation energy =       -1.659559169406
 Nuclear repulsion energy =       48.280398133240

 Numeric. integr. density =       42.000000100708

     Total iterative time =   1174.4s


 
                    DFT Final Alpha Molecular Orbital Analysis
                    ------------------------------------------
 
 Vector    1  Occ=1.000000D+00  E=-1.610016D+02
              MO Center= -1.3D-10, -2.4D-10, -2.4D+00, r^2= 2.0D-03
   Bfn.  Coefficient  Atom+Function         Bfn.  Coefficient  Atom+Function  
  ----- ------------  ---------------      ----- ------------  ---------------
    81      0.997778  2 Sc s          
 
 Vector    2  Occ=1.000000D+00  E=-1.610010D+02
              MO Center= -2.1D-10, -1.0D-10,  2.4D+00, r^2= 2.0D-03
   Bfn.  Coefficient  Atom+Function         Bfn.  Coefficient  Atom+Function  
  ----- ------------  ---------------      ----- ------------  ---------------
     1      0.997778  1 Sc s          
 
 Vector    3  Occ=1.000000D+00  E=-1.727069D+01
              MO Center= -3.9D-07, -2.6D-07, -2.4D+00, r^2= 3.9D-02
   Bfn.  Coefficient  Atom+Function         Bfn.  Coefficient  Atom+Function  
  ----- ------------  ---------------      ----- ------------  ---------------
    82      1.038397  2 Sc s                 81     -0.302169  2 Sc s          
    83      0.065073  2 Sc s                 84     -0.056065  2 Sc s          
 
 Vector    4  Occ=1.000000D+00  E=-1.726991D+01
              MO Center= -4.5D-07, -6.2D-08,  2.4D+00, r^2= 3.9D-02
   Bfn.  Coefficient  Atom+Function         Bfn.  Coefficient  Atom+Function  
  ----- ------------  ---------------      ----- ------------  ---------------
     2      1.038397  1 Sc s                  1     -0.302170  1 Sc s          
     3      0.065085  1 Sc s                  4     -0.056044  1 Sc s          
 
 Vector    5  Occ=1.000000D+00  E=-1.421434D+01
              MO Center=  5.4D-08, -2.6D-08, -2.4D+00, r^2= 3.3D-02
   Bfn.  Coefficient  Atom+Function         Bfn.  Coefficient  Atom+Function  
  ----- ------------  ---------------      ----- ------------  ---------------
    89      0.988581  2 Sc pz                92      0.040000  2 Sc pz         
    95     -0.039937  2 Sc pz         
 
 Vector    6  Occ=1.000000D+00  E=-1.421353D+01
              MO Center=  4.0D-08, -1.5D-08,  2.4D+00, r^2= 3.3D-02
   Bfn.  Coefficient  Atom+Function         Bfn.  Coefficient  Atom+Function  
  ----- ------------  ---------------      ----- ------------  ---------------
     9      0.988586  1 Sc pz                12      0.039996  1 Sc pz         
    15     -0.039928  1 Sc pz         
 
 Vector    7  Occ=1.000000D+00  E=-1.421007D+01
              MO Center=  1.4D-07,  3.2D-07, -2.4D+00, r^2= 3.3D-02
   Bfn.  Coefficient  Atom+Function         Bfn.  Coefficient  Atom+Function  
  ----- ------------  ---------------      ----- ------------  ---------------
    88      0.899756  2 Sc py                87      0.409689  2 Sc px         
    91      0.036240  2 Sc py                94     -0.035979  2 Sc py         
 
 Vector    8  Occ=1.000000D+00  E=-1.421005D+01
              MO Center=  1.5D-07, -9.3D-08, -2.4D+00, r^2= 3.3D-02
   Bfn.  Coefficient  Atom+Function         Bfn.  Coefficient  Atom+Function  
  ----- ------------  ---------------      ----- ------------  ---------------
    87      0.899742  2 Sc px                88     -0.409691  2 Sc py         
    90      0.036239  2 Sc px                93     -0.035978  2 Sc px         
 
 Vector    9  Occ=1.000000D+00  E=-1.420933D+01
              MO Center=  9.3D-08,  2.1D-07,  2.4D+00, r^2= 3.3D-02
   Bfn.  Coefficient  Atom+Function         Bfn.  Coefficient  Atom+Function  
  ----- ------------  ---------------      ----- ------------  ---------------
     8      0.876293  1 Sc py                 7      0.457730  1 Sc px         
    11      0.035296  1 Sc py                14     -0.035042  1 Sc py         
 
 Vector   10  Occ=1.000000D+00  E=-1.420931D+01
              MO Center=  2.5D-07, -1.5D-07,  2.4D+00, r^2= 3.3D-02
   Bfn.  Coefficient  Atom+Function         Bfn.  Coefficient  Atom+Function  
  ----- ------------  ---------------      ----- ------------  ---------------
     7      0.876284  1 Sc px                 8     -0.457731  1 Sc py         
    10      0.035295  1 Sc px                13     -0.035040  1 Sc px         
 
 Vector   11  Occ=1.000000D+00  E=-1.970576D+00
              MO Center=  8.0D-06, -5.3D-06, -2.4D+00, r^2= 3.8D-01
   Bfn.  Coefficient  Atom+Function         Bfn.  Coefficient  Atom+Function  
  ----- ------------  ---------------      ----- ------------  ---------------
    83      0.560048  2 Sc s                 82     -0.437315  2 Sc s          
    84      0.382315  2 Sc s                 81      0.109374  2 Sc s          
    85     -0.066095  2 Sc s                107      0.065202  2 Sc dzz        
   102      0.061400  2 Sc dxx              105      0.061410  2 Sc dyy        
    86      0.029882  2 Sc s                108      0.026437  2 Sc dxx        
 
 Vector   12  Occ=1.000000D+00  E=-1.969997D+00
              MO Center=  3.3D-06, -1.2D-06,  2.4D+00, r^2= 3.8D-01
   Bfn.  Coefficient  Atom+Function         Bfn.  Coefficient  Atom+Function  
  ----- ------------  ---------------      ----- ------------  ---------------
     3      0.559975  1 Sc s                  2     -0.437295  1 Sc s          
     4      0.382378  1 Sc s                  1      0.109366  1 Sc s          
     5     -0.066392  1 Sc s                 27      0.065162  1 Sc dzz        
    22      0.061421  1 Sc dxx               25      0.061430  1 Sc dyy        
     6      0.030069  1 Sc s                 28      0.026488  1 Sc dxx        
 
 Vector   13  Occ=1.000000D+00  E=-1.196744D+00
              MO Center= -3.3D-06, -2.8D-07, -2.4D+00, r^2= 4.9D-01
   Bfn.  Coefficient  Atom+Function         Bfn.  Coefficient  Atom+Function  
  ----- ------------  ---------------      ----- ------------  ---------------
    92      0.863132  2 Sc pz                89     -0.352411  2 Sc pz         
    95      0.240486  2 Sc pz                12     -0.029337  1 Sc pz         
 
 Vector   14  Occ=1.000000D+00  E=-1.196180D+00
              MO Center= -3.1D-06,  7.1D-07,  2.4D+00, r^2= 4.9D-01
   Bfn.  Coefficient  Atom+Function         Bfn.  Coefficient  Atom+Function  
  ----- ------------  ---------------      ----- ------------  ---------------
    12      0.862969  1 Sc pz                 9     -0.352361  1 Sc pz         
    15      0.240602  1 Sc pz                92      0.029514  2 Sc pz         
 
 Vector   15  Occ=1.000000D+00  E=-1.190941D+00
              MO Center=  6.5D-06,  3.0D-06, -2.4D+00, r^2= 4.6D-01
   Bfn.  Coefficient  Atom+Function         Bfn.  Coefficient  Atom+Function  
  ----- ------------  ---------------      ----- ------------  ---------------
    91      0.752827  2 Sc py                90      0.419670  2 Sc px         
    88     -0.307281  2 Sc py                94      0.206922  2 Sc py         
    87     -0.171296  2 Sc px                93      0.115345  2 Sc px         
   127      0.036960  2 Sc fxxy       
 
 Vector   16  Occ=1.000000D+00  E=-1.190909D+00
              MO Center=  4.5D-06, -3.1D-06, -2.4D+00, r^2= 4.6D-01
   Bfn.  Coefficient  Atom+Function         Bfn.  Coefficient  Atom+Function  
  ----- ------------  ---------------      ----- ------------  ---------------
    90      0.752803  2 Sc px                91     -0.419676  2 Sc py         
    87     -0.307269  2 Sc px                93      0.206891  2 Sc px         
    88      0.171298  2 Sc py                94     -0.115344  2 Sc py         
   129      0.036978  2 Sc fxyy       
 
 Vector   17  Occ=1.000000D+00  E=-1.190438D+00
              MO Center=  3.8D-06,  2.1D-06,  2.4D+00, r^2= 4.6D-01
   Bfn.  Coefficient  Atom+Function         Bfn.  Coefficient  Atom+Function  
  ----- ------------  ---------------      ----- ------------  ---------------
    11      0.725196  1 Sc py                10      0.465586  1 Sc px         
     8     -0.296015  1 Sc py                14      0.199420  1 Sc py         
     7     -0.190045  1 Sc px                13      0.128025  1 Sc px         
    47      0.036480  1 Sc fxxy       
 
 Vector   18  Occ=1.000000D+00  E=-1.190404D+00
              MO Center=  5.7D-06, -3.1D-06,  2.4D+00, r^2= 4.6D-01
   Bfn.  Coefficient  Atom+Function         Bfn.  Coefficient  Atom+Function  
  ----- ------------  ---------------      ----- ------------  ---------------
    10      0.725180  1 Sc px                11     -0.465591  1 Sc py         
     7     -0.296006  1 Sc px                13      0.199391  1 Sc px         
     8      0.190047  1 Sc py                14     -0.128022  1 Sc py         
    49      0.036497  1 Sc fxyy       
 
 Vector   19  Occ=1.000000D+00  E=-1.538620D-01
              MO Center= -8.8D-05,  8.3D-05,  1.1D-02, r^2= 1.0D+01
   Bfn.  Coefficient  Atom+Function         Bfn.  Coefficient  Atom+Function  
  ----- ------------  ---------------      ----- ------------  ---------------
     6      1.052381  1 Sc s                 86      1.046106  2 Sc s          
     5     -0.417467  1 Sc s                 85     -0.414119  2 Sc s          
    40     -0.185039  1 Sc dxx               43     -0.185014  1 Sc dyy        
   120     -0.183939  2 Sc dxx              123     -0.183914  2 Sc dyy        
    45     -0.178506  1 Sc dzz              125     -0.177461  2 Sc dzz        
 
 Vector   20  Occ=1.000000D+00  E=-1.387178D-01
              MO Center=  7.0D-05,  3.4D-05, -1.4D-02, r^2= 1.3D+01
   Bfn.  Coefficient  Atom+Function         Bfn.  Coefficient  Atom+Function  
  ----- ------------  ---------------      ----- ------------  ---------------
     6      1.275415  1 Sc s                 86     -1.281788  2 Sc s          
     5     -0.677617  1 Sc s                 85      0.680819  2 Sc s          
   125      0.223100  2 Sc dzz               45     -0.221830  1 Sc dzz        
   120      0.212144  2 Sc dxx              123      0.212074  2 Sc dyy        
    40     -0.210943  1 Sc dxx               43     -0.210877  1 Sc dyy        
 
 Vector   21  Occ=1.000000D+00  E=-1.089280D-01
              MO Center= -8.8D-05,  2.6D-05, -7.5D-01, r^2= 6.9D+00
   Bfn.  Coefficient  Atom+Function         Bfn.  Coefficient  Atom+Function  
  ----- ------------  ---------------      ----- ------------  ---------------
   103      0.734598  2 Sc dxy               23      0.526212  1 Sc dxy        
   109      0.522224  2 Sc dxy              115      0.417218  2 Sc dxy        
    29      0.374126  1 Sc dxy               35      0.301546  1 Sc dxy        
   121      0.153164  2 Sc dxy               41      0.110153  1 Sc dxy        
    22      0.050495  1 Sc dxx               25     -0.050746  1 Sc dyy        
 
 Vector   22  Occ=1.000000D+00  E=-1.079938D-01
              MO Center= -6.4D-04,  1.2D-04,  7.5D-01, r^2= 6.9D+00
   Bfn.  Coefficient  Atom+Function         Bfn.  Coefficient  Atom+Function  
  ----- ------------  ---------------      ----- ------------  ---------------
    23      0.730376  1 Sc dxy              103     -0.538092  2 Sc dxy        
    29      0.519852  1 Sc dxy               35      0.410114  1 Sc dxy        
   109     -0.382933  2 Sc dxy              115     -0.299565  2 Sc dxy        
    41      0.153682  1 Sc dxy              121     -0.112775  2 Sc dxy        
    25     -0.071031  1 Sc dyy               22      0.070288  1 Sc dxx        
 
 Vector   23  Occ=1.000000D+00  E=-1.035296D-01
              MO Center= -7.9D-04,  1.9D-04,  1.9D-02, r^2= 7.1D+00
   Bfn.  Coefficient  Atom+Function         Bfn.  Coefficient  Atom+Function  
  ----- ------------  ---------------      ----- ------------  ---------------
    27      0.371744  1 Sc dzz              107      0.369198  2 Sc dzz        
    33      0.251890  1 Sc dzz              113      0.249821  2 Sc dzz        
    39      0.216239  1 Sc dzz              119      0.214063  2 Sc dzz        
    25     -0.187601  1 Sc dyy              105     -0.186402  2 Sc dyy        
    22     -0.181412  1 Sc dxx              102     -0.180062  2 Sc dxx        
 
 Vector   24  Occ=0.000000D+00  E=-9.632359D-02
              MO Center=  2.1D-03, -4.4D-04, -2.0D-02, r^2= 9.4D+00
   Bfn.  Coefficient  Atom+Function         Bfn.  Coefficient  Atom+Function  
  ----- ------------  ---------------      ----- ------------  ---------------
   107     -0.370981  2 Sc dzz               27      0.367817  1 Sc dzz        
   113     -0.280750  2 Sc dzz               33      0.278611  1 Sc dzz        
    86     -0.279548  2 Sc s                  6      0.274576  1 Sc s          
    85      0.249683  2 Sc s                  5     -0.245538  1 Sc s          
   119     -0.234389  2 Sc dzz               39      0.233035  1 Sc dzz        
 
 Vector   25  Occ=0.000000D+00  E=-7.256227D-02
              MO Center=  3.6D-04,  3.9D-04, -2.4D-01, r^2= 7.9D+00
   Bfn.  Coefficient  Atom+Function         Bfn.  Coefficient  Atom+Function  
  ----- ------------  ---------------      ----- ------------  ---------------
   106      0.595030  2 Sc dyz               26     -0.539959  1 Sc dyz        
   112      0.408783  2 Sc dyz              118      0.375356  2 Sc dyz        
    32     -0.370930  1 Sc dyz               38     -0.344621  1 Sc dyz        
   104      0.268951  2 Sc dxz               24     -0.244733  1 Sc dxz        
   124      0.187407  2 Sc dyz              110      0.184769  2 Sc dxz        
 
 Vector   26  Occ=0.000000D+00  E=-7.248587D-02
              MO Center=  1.5D-03, -6.2D-04, -2.5D-01, r^2= 7.9D+00
   Bfn.  Coefficient  Atom+Function         Bfn.  Coefficient  Atom+Function  
  ----- ------------  ---------------      ----- ------------  ---------------
   104      0.595017  2 Sc dxz               24     -0.539760  1 Sc dxz        
   110      0.408774  2 Sc dxz              116      0.375376  2 Sc dxz        
    30     -0.370793  1 Sc dxz               36     -0.344527  1 Sc dxz        
   106     -0.269648  2 Sc dyz               26      0.243904  1 Sc dyz        
   122      0.187574  2 Sc dxz              112     -0.185247  2 Sc dyz        
 
 Vector   27  Occ=0.000000D+00  E=-6.910239D-02
              MO Center=  1.6D-03, -7.6D-04,  2.4D-01, r^2= 9.8D+00
   Bfn.  Coefficient  Atom+Function         Bfn.  Coefficient  Atom+Function  
  ----- ------------  ---------------      ----- ------------  ---------------
    26      0.570718  1 Sc dyz              106      0.517128  2 Sc dyz        
    32      0.394638  1 Sc dyz              112      0.357590  2 Sc dyz        
    38      0.330125  1 Sc dyz              118      0.295349  2 Sc dyz        
    24      0.281831  1 Sc dxz              104      0.256038  2 Sc dxz        
    44      0.207837  1 Sc dyz               30      0.194883  1 Sc dxz        
 
 Vector   28  Occ=0.000000D+00  E=-6.902989D-02
              MO Center=  5.2D-04,  4.5D-04,  2.5D-01, r^2= 9.8D+00
   Bfn.  Coefficient  Atom+Function         Bfn.  Coefficient  Atom+Function  
  ----- ------------  ---------------      ----- ------------  ---------------
    24      0.570588  1 Sc dxz              104      0.516716  2 Sc dxz        
    30      0.394547  1 Sc dxz              110      0.357306  2 Sc dxz        
    36      0.330083  1 Sc dxz              116      0.295130  2 Sc dxz        
    26     -0.282515  1 Sc dyz              106     -0.255202  2 Sc dyz        
    42      0.208049  1 Sc dxz               32     -0.195349  1 Sc dyz        
 
 Vector   29  Occ=0.000000D+00  E=-6.178805D-02
              MO Center= -8.7D-04,  6.2D-05,  1.1D-02, r^2= 1.4D+01
   Bfn.  Coefficient  Atom+Function         Bfn.  Coefficient  Atom+Function  
  ----- ------------  ---------------      ----- ------------  ---------------
    21     -0.592950  1 Sc pz               101      0.591426  2 Sc pz         
     5      0.557376  1 Sc s                 85      0.556051  2 Sc s          
     6     -0.440191  1 Sc s                 86     -0.441186  2 Sc s          
    18     -0.185745  1 Sc pz                98      0.184749  2 Sc pz         
    12      0.164718  1 Sc pz                92     -0.164041  2 Sc pz         
 
 Vector   30  Occ=0.000000D+00  E=-6.007945D-02
              MO Center=  1.8D-03, -1.8D-04, -2.7D-01, r^2= 7.9D+00
   Bfn.  Coefficient  Atom+Function         Bfn.  Coefficient  Atom+Function  
  ----- ------------  ---------------      ----- ------------  ---------------
   102      0.324973  2 Sc dxx              105     -0.321213  2 Sc dyy        
    22      0.287366  1 Sc dxx               25     -0.283540  1 Sc dyy        
   108      0.225349  2 Sc dxx              111     -0.222628  2 Sc dyy        
   114      0.203585  2 Sc dxx              117     -0.201499  2 Sc dyy        
    28      0.199331  1 Sc dxx               31     -0.196569  1 Sc dyy        
 
 Vector   31  Occ=0.000000D+00  E=-5.838838D-02
              MO Center= -2.4D-03,  4.8D-04,  2.7D-01, r^2= 7.8D+00
   Bfn.  Coefficient  Atom+Function         Bfn.  Coefficient  Atom+Function  
  ----- ------------  ---------------      ----- ------------  ---------------
    22      0.324669  1 Sc dxx               25     -0.324688  1 Sc dyy        
   102     -0.294477  2 Sc dxx              105      0.294906  2 Sc dyy        
    28      0.225275  1 Sc dxx               31     -0.225243  1 Sc dyy        
   108     -0.204253  2 Sc dxx              111      0.204525  2 Sc dyy        
    34      0.201921  1 Sc dxx               37     -0.201940  1 Sc dyy        
 
 Vector   32  Occ=0.000000D+00  E=-5.438286D-02
              MO Center= -4.5D-04,  9.5D-04,  1.1D-02, r^2= 1.2D+01
   Bfn.  Coefficient  Atom+Function         Bfn.  Coefficient  Atom+Function  
  ----- ------------  ---------------      ----- ------------  ---------------
    20      0.570697  1 Sc py               100      0.567993  2 Sc py         
    19      0.438809  1 Sc px                99      0.436730  2 Sc px         
    17      0.149857  1 Sc py                97      0.149233  2 Sc py         
    11     -0.127066  1 Sc py                91     -0.126502  2 Sc py         
    16      0.115274  1 Sc px                96      0.114797  2 Sc px         
 
 Vector   33  Occ=0.000000D+00  E=-5.437321D-02
              MO Center= -1.1D-03, -8.8D-04,  1.1D-02, r^2= 1.2D+01
   Bfn.  Coefficient  Atom+Function         Bfn.  Coefficient  Atom+Function  
  ----- ------------  ---------------      ----- ------------  ---------------
    19      0.570673  1 Sc px                99      0.567993  2 Sc px         
    20     -0.438865  1 Sc py               100     -0.436787  2 Sc py         
    16      0.149916  1 Sc px                96      0.149298  2 Sc px         
    10     -0.127076  1 Sc px                90     -0.126518  2 Sc px         
    17     -0.115240  1 Sc py                97     -0.114757  2 Sc py         
 
 Vector   34  Occ=0.000000D+00  E=-3.470458D-02
              MO Center= -1.1D-03, -1.4D-03, -9.7D-03, r^2= 1.2D+01
   Bfn.  Coefficient  Atom+Function         Bfn.  Coefficient  Atom+Function  
  ----- ------------  ---------------      ----- ------------  ---------------
    20      0.605270  1 Sc py               100     -0.607839  2 Sc py         
    19      0.405272  1 Sc px                99     -0.406973  2 Sc px         
    26     -0.224787  1 Sc dyz              106     -0.223995  2 Sc dyz        
    17      0.155871  1 Sc py                97     -0.156591  2 Sc py         
    32     -0.154174  1 Sc dyz              112     -0.153584  2 Sc dyz        
 
 Vector   35  Occ=0.000000D+00  E=-3.468963D-02
              MO Center= -1.1D-03,  1.9D-03, -9.6D-03, r^2= 1.2D+01
   Bfn.  Coefficient  Atom+Function         Bfn.  Coefficient  Atom+Function  
  ----- ------------  ---------------      ----- ------------  ---------------
    19      0.605172  1 Sc px                99     -0.607707  2 Sc px         
    20     -0.405326  1 Sc py               100      0.407019  2 Sc py         
    24     -0.225196  1 Sc dxz              104     -0.224387  2 Sc dxz        
    16      0.155893  1 Sc px                96     -0.156606  2 Sc px         
    30     -0.154456  1 Sc dxz              110     -0.153855  2 Sc dxz        
 
 Vector   36  Occ=0.000000D+00  E= 8.710615D-04
              MO Center=  2.3D-03, -4.8D-04, -6.9D-03, r^2= 1.8D+01
   Bfn.  Coefficient  Atom+Function         Bfn.  Coefficient  Atom+Function  
  ----- ------------  ---------------      ----- ------------  ---------------
     5      2.274431  1 Sc s                 85     -2.250744  2 Sc s          
     6     -1.022525  1 Sc s                 86      1.002949  2 Sc s          
     4     -0.464217  1 Sc s                 84      0.460827  2 Sc s          
   125      0.424319  2 Sc dzz               45     -0.419904  1 Sc dzz        
    34     -0.302432  1 Sc dxx               37     -0.302411  1 Sc dyy        
 
 Vector   37  Occ=0.000000D+00  E= 3.269370D-02
              MO Center= -2.5D-04,  9.0D-05,  5.1D-03, r^2= 2.1D+01
   Bfn.  Coefficient  Atom+Function         Bfn.  Coefficient  Atom+Function  
  ----- ------------  ---------------      ----- ------------  ---------------
     5     11.878197  1 Sc s                 85     11.873499  2 Sc s          
     6     -8.267054  1 Sc s                 86     -8.270358  2 Sc s          
     4     -1.877648  1 Sc s                 84     -1.876164  2 Sc s          
    45      1.824729  1 Sc dzz              125      1.824253  2 Sc dzz        
    40      1.429246  1 Sc dxx               43      1.429230  1 Sc dyy        
 
 Vector   38  Occ=0.000000D+00  E= 5.096180D-02
              MO Center=  1.8D-04, -4.3D-05,  5.2D-03, r^2= 1.7D+01
   Bfn.  Coefficient  Atom+Function         Bfn.  Coefficient  Atom+Function  
  ----- ------------  ---------------      ----- ------------  ---------------
    41      1.229517  1 Sc dxy              121      1.230692  2 Sc dxy        
    35     -0.500941  1 Sc dxy              115     -0.499708  2 Sc dxy        
    23     -0.260642  1 Sc dxy              103     -0.260153  2 Sc dxy        
    67      0.181643  1 Sc gxxxy             72      0.181651  1 Sc gxyyy      
    74      0.182116  1 Sc gxyzz            147      0.181627  2 Sc gxxxy      
 
 Vector   39  Occ=0.000000D+00  E= 5.377001D-02
              MO Center=  1.3D-04, -1.4D-05, -5.3D-03, r^2= 2.4D+01
   Bfn.  Coefficient  Atom+Function         Bfn.  Coefficient  Atom+Function  
  ----- ------------  ---------------      ----- ------------  ---------------
    85     -5.568063  2 Sc s                  5      5.539320  1 Sc s          
     4     -1.226107  1 Sc s                 84      1.230276  2 Sc s          
    86      1.125874  2 Sc s                  6     -1.102897  1 Sc s          
    39     -0.883182  1 Sc dzz              119      0.885795  2 Sc dzz        
    34     -0.860146  1 Sc dxx               37     -0.860100  1 Sc dyy        
 
 Vector   40  Occ=0.000000D+00  E= 5.925782D-02
              MO Center= -2.9D-04,  7.3D-05,  3.0D-03, r^2= 1.7D+01
   Bfn.  Coefficient  Atom+Function         Bfn.  Coefficient  Atom+Function  
  ----- ------------  ---------------      ----- ------------  ---------------
    40      0.626591  1 Sc dxx               43     -0.626857  1 Sc dyy        
   120      0.620130  2 Sc dxx              123     -0.620404  2 Sc dyy        
    34     -0.320993  1 Sc dxx               37      0.320970  1 Sc dyy        
   114     -0.318750  2 Sc dxx              117      0.318749  2 Sc dyy        
   121     -0.230455  2 Sc dxy               41     -0.160341  1 Sc dxy        
 
 Vector   41  Occ=0.000000D+00  E= 6.440905D-02
              MO Center=  7.5D-05,  5.6D-04,  2.4D-03, r^2= 1.9D+01
   Bfn.  Coefficient  Atom+Function         Bfn.  Coefficient  Atom+Function  
  ----- ------------  ---------------      ----- ------------  ---------------
    44      1.117623  1 Sc dyz              124     -1.116722  2 Sc dyz        
    38     -0.521827  1 Sc dyz              118      0.520222  2 Sc dyz        
    42      0.393647  1 Sc dxz              122     -0.393262  2 Sc dxz        
    26     -0.312594  1 Sc dyz              106      0.311782  2 Sc dyz        
    20      0.272164  1 Sc py               100      0.271011  2 Sc py         
 
 Vector   42  Occ=0.000000D+00  E= 6.443541D-02
              MO Center=  5.6D-03, -1.8D-03,  2.3D-03, r^2= 1.9D+01
   Bfn.  Coefficient  Atom+Function         Bfn.  Coefficient  Atom+Function  
  ----- ------------  ---------------      ----- ------------  ---------------
    42      1.117627  1 Sc dxz              122     -1.116744  2 Sc dxz        
    36     -0.522091  1 Sc dxz              116      0.520489  2 Sc dxz        
    44     -0.393587  1 Sc dyz              124      0.393347  2 Sc dyz        
    24     -0.312622  1 Sc dxz              104      0.311812  2 Sc dxz        
    19      0.272221  1 Sc px                99      0.271064  2 Sc px         
 
 Vector   43  Occ=0.000000D+00  E= 7.056754D-02
              MO Center= -2.1D-04,  4.1D-05, -5.3D-03, r^2= 2.0D+01
   Bfn.  Coefficient  Atom+Function         Bfn.  Coefficient  Atom+Function  
  ----- ------------  ---------------      ----- ------------  ---------------
    41      1.492758  1 Sc dxy              121     -1.485517  2 Sc dxy        
    35     -0.540403  1 Sc dxy              115      0.534262  2 Sc dxy        
    23     -0.260744  1 Sc dxy              103      0.258485  2 Sc dxy        
    67      0.201151  1 Sc gxxxy             72      0.201159  1 Sc gxyyy      
   147     -0.199471  2 Sc gxxxy            152     -0.199478  2 Sc gxyyy      
 
 Vector   44  Occ=0.000000D+00  E= 7.204998D-02
              MO Center= -6.6D-03,  1.4D-03,  2.2D-02, r^2= 2.7D+01
   Bfn.  Coefficient  Atom+Function         Bfn.  Coefficient  Atom+Function  
  ----- ------------  ---------------      ----- ------------  ---------------
     5      1.322897  1 Sc s                 85      1.297386  2 Sc s          
    45     -1.268044  1 Sc dzz              125     -1.264011  2 Sc dzz        
    86      1.213400  2 Sc s                  6      1.178803  1 Sc s          
   101      0.621220  2 Sc pz                21     -0.608597  1 Sc pz         
    34     -0.503020  1 Sc dxx               37     -0.503144  1 Sc dyy        
 
 Vector   45  Occ=0.000000D+00  E= 7.891026D-02
              MO Center=  3.8D-04, -4.6D-05, -3.1D-03, r^2= 2.0D+01
   Bfn.  Coefficient  Atom+Function         Bfn.  Coefficient  Atom+Function  
  ----- ------------  ---------------      ----- ------------  ---------------
    40      0.758999  1 Sc dxx               43     -0.759154  1 Sc dyy        
   120     -0.761716  2 Sc dxx              123      0.761877  2 Sc dyy        
    34     -0.337740  1 Sc dxx               37      0.337875  1 Sc dyy        
   114      0.339110  2 Sc dxx              117     -0.339242  2 Sc dyy        
    41     -0.251103  1 Sc dxy              121      0.225448  2 Sc dxy        
 
 Vector   46  Occ=0.000000D+00  E= 8.938820D-02
              MO Center=  8.8D-04,  5.0D-04,  7.3D-04, r^2= 2.5D+01
   Bfn.  Coefficient  Atom+Function         Bfn.  Coefficient  Atom+Function  
  ----- ------------  ---------------      ----- ------------  ---------------
    44      1.712158  1 Sc dyz              124      1.712480  2 Sc dyz        
    42      0.903406  1 Sc dxz              122      0.903617  2 Sc dxz        
    38     -0.706980  1 Sc dyz              118     -0.706152  2 Sc dyz        
    36     -0.373067  1 Sc dxz              116     -0.372657  2 Sc dxz        
    79      0.264814  1 Sc gyzzz            159      0.264684  2 Sc gyzzz      
 
 Vector   47  Occ=0.000000D+00  E= 8.939833D-02
              MO Center= -4.2D-04, -6.5D-04,  8.9D-04, r^2= 2.5D+01
   Bfn.  Coefficient  Atom+Function         Bfn.  Coefficient  Atom+Function  
  ----- ------------  ---------------      ----- ------------  ---------------
    42      1.712105  1 Sc dxz              122      1.712404  2 Sc dxz        
    44     -0.903475  1 Sc dyz              124     -0.903594  2 Sc dyz        
    36     -0.707178  1 Sc dxz              116     -0.706334  2 Sc dxz        
    38      0.373143  1 Sc dyz              118      0.372669  2 Sc dyz        
    75      0.264868  1 Sc gxzzz            155      0.264734  2 Sc gxzzz      
 
 Vector   48  Occ=0.000000D+00  E= 9.180751D-02
              MO Center=  1.3D-04,  1.6D-05, -2.2D-02, r^2= 2.8D+01
   Bfn.  Coefficient  Atom+Function         Bfn.  Coefficient  Atom+Function  
  ----- ------------  ---------------      ----- ------------  ---------------
     6      6.072970  1 Sc s                 86     -6.054181  2 Sc s          
     5     -5.166741  1 Sc s                 85      5.158324  2 Sc s          
    21     -2.719524  1 Sc pz               101     -2.718349  2 Sc pz         
    40     -1.589993  1 Sc dxx               43     -1.589929  1 Sc dyy        
   120      1.587172  2 Sc dxx              123      1.587107  2 Sc dyy        
 
 Vector   49  Occ=0.000000D+00  E= 1.284058D-01
              MO Center= -6.4D-05, -1.4D-04,  5.4D-04, r^2= 1.7D+01
   Bfn.  Coefficient  Atom+Function         Bfn.  Coefficient  Atom+Function  
  ----- ------------  ---------------      ----- ------------  ---------------
    19      1.637947  1 Sc px                99      1.634457  2 Sc px         
    61     -0.987472  1 Sc fxzz             141     -0.985813  2 Sc fxzz       
    59     -0.959353  1 Sc fxyy             139     -0.962630  2 Sc fxyy       
    56     -0.913420  1 Sc fxxx             136     -0.910450  2 Sc fxxx       
    20      0.855291  1 Sc py               100      0.853495  2 Sc py         
 
 Vector   50  Occ=0.000000D+00  E= 1.284127D-01
              MO Center= -7.6D-05,  1.2D-04,  4.9D-04, r^2= 1.7D+01
   Bfn.  Coefficient  Atom+Function         Bfn.  Coefficient  Atom+Function  
  ----- ------------  ---------------      ----- ------------  ---------------
    20      1.637958  1 Sc py               100      1.634475  2 Sc py         
    64     -0.987606  1 Sc fyzz             144     -0.985963  2 Sc fyzz       
    57     -0.959458  1 Sc fxxy             137     -0.962745  2 Sc fxxy       
    62     -0.913422  1 Sc fyyy             142     -0.910456  2 Sc fyyy       
    19     -0.855238  1 Sc px                99     -0.853484  2 Sc px         
 
 Vector   51  Occ=0.000000D+00  E= 1.570006D-01
              MO Center=  9.4D-04, -2.2D-04,  2.8D-03, r^2= 1.4D+01
   Bfn.  Coefficient  Atom+Function         Bfn.  Coefficient  Atom+Function  
  ----- ------------  ---------------      ----- ------------  ---------------
     6     10.110061  1 Sc s                 86     10.122078  2 Sc s          
     5     -8.279746  1 Sc s                 85     -8.281796  2 Sc s          
    45     -3.005289  1 Sc dzz              125     -3.000950  2 Sc dzz        
    40     -2.297411  1 Sc dxx               43     -2.297363  1 Sc dyy        
   120     -2.300023  2 Sc dxx              123     -2.299975  2 Sc dyy        
 
 Vector   52  Occ=0.000000D+00  E= 1.606372D-01
              MO Center= -9.4D-04, -1.0D-03, -3.0D-03, r^2= 1.7D+01
   Bfn.  Coefficient  Atom+Function         Bfn.  Coefficient  Atom+Function  
  ----- ------------  ---------------      ----- ------------  ---------------
    20      1.943695  1 Sc py               100     -1.945939  2 Sc py         
    19      1.601877  1 Sc px                99     -1.603670  2 Sc px         
    64     -0.972028  1 Sc fyzz             144      0.972729  2 Sc fyzz       
    57     -0.915084  1 Sc fxxy             137      0.914212  2 Sc fxxy       
    62     -0.861537  1 Sc fyyy             142      0.863511  2 Sc fyyy       
 
 Vector   53  Occ=0.000000D+00  E= 1.606463D-01
              MO Center= -1.2D-03,  1.4D-03, -3.0D-03, r^2= 1.7D+01
   Bfn.  Coefficient  Atom+Function         Bfn.  Coefficient  Atom+Function  
  ----- ------------  ---------------      ----- ------------  ---------------
    19      1.943789  1 Sc px                99     -1.946011  2 Sc px         
    20     -1.601893  1 Sc py               100      1.603668  2 Sc py         
    61     -0.971865  1 Sc fxzz             141      0.972563  2 Sc fxzz       
    59     -0.915042  1 Sc fxyy             139      0.914146  2 Sc fxyy       
    56     -0.861586  1 Sc fxxx             136      0.863546  2 Sc fxxx       
 
 Vector   54  Occ=0.000000D+00  E= 2.355153D-01
              MO Center=  6.9D-04, -1.7D-04, -9.8D-03, r^2= 1.9D+01
   Bfn.  Coefficient  Atom+Function         Bfn.  Coefficient  Atom+Function  
  ----- ------------  ---------------      ----- ------------  ---------------
    86     -6.724036  2 Sc s                 21     -6.662121  1 Sc pz         
   101     -6.670232  2 Sc pz                 6      6.400564  1 Sc s          
    85      4.718669  2 Sc s                  5     -4.403178  1 Sc s          
    65      1.857428  1 Sc fzzz             145      1.860770  2 Sc fzzz       
    58      1.719886  1 Sc fxxz              63      1.719911  1 Sc fyyz       
 
 Vector   55  Occ=0.000000D+00  E= 2.446515D-01
              MO Center= -2.8D-03,  6.6D-04,  1.3D-02, r^2= 2.1D+01
   Bfn.  Coefficient  Atom+Function         Bfn.  Coefficient  Atom+Function  
  ----- ------------  ---------------      ----- ------------  ---------------
     6    -43.629772  1 Sc s                 86    -43.558045  2 Sc s          
     5     42.610623  1 Sc s                 85     42.542248  2 Sc s          
    45     10.940411  1 Sc dzz              125     10.953116  2 Sc dzz        
    40     10.293575  1 Sc dxx               43     10.293604  1 Sc dyy        
   120     10.281194  2 Sc dxx              123     10.281225  2 Sc dyy        
 
 Vector   56  Occ=0.000000D+00  E= 2.519081D-01
              MO Center= -1.1D-03,  1.8D-04,  2.2D-03, r^2= 9.3D+00
   Bfn.  Coefficient  Atom+Function         Bfn.  Coefficient  Atom+Function  
  ----- ------------  ---------------      ----- ------------  ---------------
    38      1.716452  1 Sc dyz              118     -1.713119  2 Sc dyz        
    64     -1.398077  1 Sc fyzz             144     -1.396951  2 Sc fyzz       
    77     -0.688512  1 Sc gyyyz            157      0.687116  2 Sc gyyyz      
    70     -0.678526  1 Sc gxxyz            150      0.676979  2 Sc gxxyz      
    79     -0.638481  1 Sc gyzzz            159      0.637282  2 Sc gyzzz      
 
 Vector   57  Occ=0.000000D+00  E= 2.519336D-01
              MO Center=  3.8D-03, -8.0D-04,  2.1D-03, r^2= 9.3D+00
   Bfn.  Coefficient  Atom+Function         Bfn.  Coefficient  Atom+Function  
  ----- ------------  ---------------      ----- ------------  ---------------
    36      1.716181  1 Sc dxz              116     -1.712853  2 Sc dxz        
    61     -1.398283  1 Sc fxzz             141     -1.397162  2 Sc fxzz       
    68     -0.688434  1 Sc gxxxz            148      0.687039  2 Sc gxxxz      
    73     -0.678409  1 Sc gxyyz            153      0.676864  2 Sc gxyyz      
    75     -0.638419  1 Sc gxzzz            155      0.637222  2 Sc gxzzz      
 
 Vector   58  Occ=0.000000D+00  E= 2.685365D-01
              MO Center=  1.2D-03, -2.7D-04,  6.5D-04, r^2= 1.3D+01
   Bfn.  Coefficient  Atom+Function         Bfn.  Coefficient  Atom+Function  
  ----- ------------  ---------------      ----- ------------  ---------------
    60      2.409572  1 Sc fxyz             140     -2.409604  2 Sc fxyz       
   115      1.160213  2 Sc dxy               35      1.147435  1 Sc dxy        
   154     -0.426730  2 Sc gxyzz             74     -0.422539  1 Sc gxyzz      
   147     -0.408047  2 Sc gxxxy            152     -0.408046  2 Sc gxyyy      
    67     -0.403620  1 Sc gxxxy             72     -0.403619  1 Sc gxyyy      
 
 Vector   59  Occ=0.000000D+00  E= 2.791205D-01
              MO Center= -1.0D-03,  2.1D-04,  1.6D-04, r^2= 1.3D+01
   Bfn.  Coefficient  Atom+Function         Bfn.  Coefficient  Atom+Function  
  ----- ------------  ---------------      ----- ------------  ---------------
    58      1.255226  1 Sc fxxz              63     -1.255954  1 Sc fyyz       
   138     -1.250927  2 Sc fxxz             143      1.251629  2 Sc fyyz       
    34      0.426173  1 Sc dxx              114      0.425605  2 Sc dxx        
    37     -0.420068  1 Sc dyy              117     -0.419480  2 Sc dyy        
   140      0.412101  2 Sc fxyz              60     -0.375793  1 Sc fxyz       
 
 Vector   60  Occ=0.000000D+00  E= 2.840154D-01
              MO Center=  1.3D-03, -2.7D-04, -1.2D-03, r^2= 2.7D+01
   Bfn.  Coefficient  Atom+Function         Bfn.  Coefficient  Atom+Function  
  ----- ------------  ---------------      ----- ------------  ---------------
     5     60.463225  1 Sc s                 85     60.445791  2 Sc s          
     6    -55.309075  1 Sc s                 86    -55.258429  2 Sc s          
[...]
    35      2.864960  1 Sc dxy              147     -2.866268  2 Sc gxxxy      
   152     -2.866319  2 Sc gxyyy             74     -2.785053  1 Sc gxyzz      
    67     -2.719017  1 Sc gxxxy             72     -2.719059  1 Sc gxyyy      
   109      1.772912  2 Sc dxy               29      1.685804  1 Sc dxy        
 
 Vector  146  Occ=0.000000D+00  E= 2.116019D+00
              MO Center= -2.8D-03,  5.4D-04,  4.5D-02, r^2= 8.0D+00
   Bfn.  Coefficient  Atom+Function         Bfn.  Coefficient  Atom+Function  
  ----- ------------  ---------------      ----- ------------  ---------------
    35      3.112951  1 Sc dxy              115     -3.077204  2 Sc dxy        
    67     -2.905761  1 Sc gxxxy             72     -2.905808  1 Sc gxyyy      
    74     -2.914324  1 Sc gxyzz            147      2.871963  2 Sc gxxxy      
   152      2.872014  2 Sc gxyyy            154      2.878672  2 Sc gxyzz      
    29      1.735671  1 Sc dxy              109     -1.714231  2 Sc dxy        
 
 Vector  147  Occ=0.000000D+00  E= 2.117885D+00
              MO Center=  2.3D-03,  8.4D-04,  7.9D-02, r^2= 8.0D+00
   Bfn.  Coefficient  Atom+Function         Bfn.  Coefficient  Atom+Function  
  ----- ------------  ---------------      ----- ------------  ---------------
    38      3.029549  1 Sc dyz              118      2.941229  2 Sc dyz        
    70     -2.793323  1 Sc gxxyz             77     -2.792306  1 Sc gyyyz      
   150     -2.712237  2 Sc gxxyz            157     -2.711121  2 Sc gyyyz      
    79     -2.658216  1 Sc gyzzz            159     -2.571830  2 Sc gyzzz      
    36      1.766753  1 Sc dxz              116      1.715540  2 Sc dxz        
 
 Vector  148  Occ=0.000000D+00  E= 2.117913D+00
              MO Center=  7.4D-04, -1.4D-03,  8.0D-02, r^2= 8.0D+00
   Bfn.  Coefficient  Atom+Function         Bfn.  Coefficient  Atom+Function  
  ----- ------------  ---------------      ----- ------------  ---------------
    36      3.034042  1 Sc dxz              116      2.945400  2 Sc dxz        
    68     -2.796468  1 Sc gxxxz             73     -2.797516  1 Sc gxyyz      
   148     -2.714985  2 Sc gxxxz            153     -2.716134  2 Sc gxyyz      
    75     -2.662160  1 Sc gxzzz            155     -2.575459  2 Sc gxzzz      
    38     -1.764072  1 Sc dyz              118     -1.712212  2 Sc dyz        
 
 Vector  149  Occ=0.000000D+00  E= 2.185669D+00
              MO Center= -6.6D-05,  8.2D-06, -3.1D-02, r^2= 7.8D+00
   Bfn.  Coefficient  Atom+Function         Bfn.  Coefficient  Atom+Function  
  ----- ------------  ---------------      ----- ------------  ---------------
    85     -3.354895  2 Sc s                  5      3.294825  1 Sc s          
   160      2.332878  2 Sc gzzzz             80     -2.302009  1 Sc gzzzz      
   114      2.278080  2 Sc dxx              117      2.276994  2 Sc dyy        
    34     -2.265066  1 Sc dxx               37     -2.264055  1 Sc dyy        
   119     -1.972133  2 Sc dzz               39      1.940300  1 Sc dzz        
 
 Vector  150  Occ=0.000000D+00  E= 2.213375D+00
              MO Center=  2.8D-05, -1.9D-05,  3.0D-02, r^2= 7.4D+00
   Bfn.  Coefficient  Atom+Function         Bfn.  Coefficient  Atom+Function  
  ----- ------------  ---------------      ----- ------------  ---------------
     5      4.420986  1 Sc s                 85      4.366607  2 Sc s          
     6     -4.297961  1 Sc s                 86     -4.300409  2 Sc s          
    80     -2.187800  1 Sc gzzzz            160     -2.157495  2 Sc gzzzz      
    39      1.938564  1 Sc dzz              119      1.915437  2 Sc dzz        
    71     -1.351108  1 Sc gxxzz             78     -1.351801  1 Sc gyyzz      
 
 Vector  151  Occ=0.000000D+00  E= 4.190394D+00
              MO Center= -9.4D-07, -2.7D-06, -5.2D-02, r^2= 7.1D+00
   Bfn.  Coefficient  Atom+Function         Bfn.  Coefficient  Atom+Function  
  ----- ------------  ---------------      ----- ------------  ---------------
    94      6.987406  2 Sc py                14      6.837319  1 Sc py         
   127     -4.264433  2 Sc fxxy             132     -4.266662  2 Sc fyyy       
   134     -4.277327  2 Sc fyzz              47     -4.171941  1 Sc fxxy       
    52     -4.174147  1 Sc fyyy              54     -4.184650  1 Sc fyzz       
    93      2.942775  2 Sc px                13      2.882112  1 Sc px         
 
 Vector  152  Occ=0.000000D+00  E= 4.190480D+00
              MO Center= -1.5D-05,  5.8D-06, -5.3D-02, r^2= 7.1D+00
   Bfn.  Coefficient  Atom+Function         Bfn.  Coefficient  Atom+Function  
  ----- ------------  ---------------      ----- ------------  ---------------
    93      6.987428  2 Sc px                13      6.837274  1 Sc px         
   126     -4.266658  2 Sc fxxx             129     -4.264437  2 Sc fxyy       
   131     -4.277335  2 Sc fxzz              46     -4.174103  1 Sc fxxx       
    49     -4.171904  1 Sc fxyy              51     -4.184617  1 Sc fxzz       
    94     -2.945351  2 Sc py                14     -2.879484  1 Sc py         
 
 Vector  153  Occ=0.000000D+00  E= 4.205143D+00
              MO Center= -5.7D-06, -1.4D-05,  5.2D-02, r^2= 7.2D+00
   Bfn.  Coefficient  Atom+Function         Bfn.  Coefficient  Atom+Function  
  ----- ------------  ---------------      ----- ------------  ---------------
    14      6.981326  1 Sc py                94     -6.831079  2 Sc py         
    47     -4.295886  1 Sc fxxy              52     -4.298118  1 Sc fyyy       
    54     -4.302869  1 Sc fyzz             127      4.204321  2 Sc fxxy       
   132      4.206481  2 Sc fyyy             134      4.211072  2 Sc fyzz       
    13      2.944688  1 Sc px                93     -2.883886  2 Sc px         
 
 Vector  154  Occ=0.000000D+00  E= 4.205229D+00
              MO Center= -7.0D-05,  2.9D-05,  5.3D-02, r^2= 7.2D+00
   Bfn.  Coefficient  Atom+Function         Bfn.  Coefficient  Atom+Function  
  ----- ------------  ---------------      ----- ------------  ---------------
    13      6.981365  1 Sc px                93     -6.831036  2 Sc px         
    46     -4.298125  1 Sc fxxx              49     -4.295899  1 Sc fxyy       
    51     -4.302886  1 Sc fxzz             126      4.206438  2 Sc fxxx       
   129      4.204286  2 Sc fxyy             131      4.211039  2 Sc fxzz       
    14     -2.947265  1 Sc py                94      2.881257  2 Sc py         
 
 Vector  155  Occ=0.000000D+00  E= 4.230056D+00
              MO Center=  1.0D-05, -3.0D-06, -3.5D-02, r^2= 7.3D+00
   Bfn.  Coefficient  Atom+Function         Bfn.  Coefficient  Atom+Function  
  ----- ------------  ---------------      ----- ------------  ---------------
    95     -7.545823  2 Sc pz                15      7.438712  1 Sc pz         
   128      4.707659  2 Sc fxxz             133      4.707661  2 Sc fyyz       
   135      4.706152  2 Sc fzzz              48     -4.639068  1 Sc fxxz       
    53     -4.639070  1 Sc fyyz              55     -4.637647  1 Sc fzzz       
    92      2.720514  2 Sc pz                12     -2.681514  1 Sc pz         
 
 Vector  156  Occ=0.000000D+00  E= 4.267049D+00
              MO Center=  7.3D-05, -1.6D-05,  3.5D-02, r^2= 7.1D+00
   Bfn.  Coefficient  Atom+Function         Bfn.  Coefficient  Atom+Function  
  ----- ------------  ---------------      ----- ------------  ---------------
    15      7.492326  1 Sc pz                95      7.384426  2 Sc pz         
    48     -4.792280  1 Sc fxxz              53     -4.792283  1 Sc fyyz       
    55     -4.786341  1 Sc fzzz             128     -4.725052  2 Sc fxxz       
   133     -4.725055  2 Sc fyyz             135     -4.719086  2 Sc fzzz       
    12     -2.731692  1 Sc pz                92     -2.692742  2 Sc pz         
 
 Vector  157  Occ=0.000000D+00  E= 5.300143D+00
              MO Center=  1.1D-05, -3.2D-06, -6.0D-03, r^2= 8.5D+00
   Bfn.  Coefficient  Atom+Function         Bfn.  Coefficient  Atom+Function  
  ----- ------------  ---------------      ----- ------------  ---------------
     5     21.342272  1 Sc s                 85     21.430697  2 Sc s          
    34     -6.627102  1 Sc dxx               37     -6.627118  1 Sc dyy        
   114     -6.646863  2 Sc dxx              117     -6.646880  2 Sc dyy        
    39     -6.516894  1 Sc dzz              119     -6.536471  2 Sc dzz        
     3     -5.933338  1 Sc s                 83     -5.948727  2 Sc s          
 
 Vector  158  Occ=0.000000D+00  E= 5.393561D+00
              MO Center=  5.8D-06, -2.0D-06,  6.1D-03, r^2= 9.8D+00
   Bfn.  Coefficient  Atom+Function         Bfn.  Coefficient  Atom+Function  
  ----- ------------  ---------------      ----- ------------  ---------------
     5     35.037957  1 Sc s                 85    -34.984679  2 Sc s          
     6    -13.948445  1 Sc s                 86     13.940570  2 Sc s          
    34     -7.765802  1 Sc dxx               37     -7.765817  1 Sc dyy        
   114      7.749888  2 Sc dxx              117      7.749904  2 Sc dyy        
    39     -7.646317  1 Sc dzz              119      7.630950  2 Sc dzz        
 
 Vector  159  Occ=0.000000D+00  E= 4.738749D+01
              MO Center=  2.5D-08, -6.9D-09, -1.8D-03, r^2= 7.7D+00
   Bfn.  Coefficient  Atom+Function         Bfn.  Coefficient  Atom+Function  
  ----- ------------  ---------------      ----- ------------  ---------------
     4     31.175277  1 Sc s                 84     31.197764  2 Sc s          
     5     18.998772  1 Sc s                 85     19.019895  2 Sc s          
    22    -18.911087  1 Sc dxx               25    -18.911087  1 Sc dyy        
    27    -18.911847  1 Sc dzz              102    -18.925228  2 Sc dxx        
   105    -18.925228  2 Sc dyy              107    -18.925992  2 Sc dzz        
 
 Vector  160  Occ=0.000000D+00  E= 4.779072D+01
              MO Center=  6.9D-08, -2.3D-08,  1.8D-03, r^2= 8.3D+00
   Bfn.  Coefficient  Atom+Function         Bfn.  Coefficient  Atom+Function  
  ----- ------------  ---------------      ----- ------------  ---------------
     4     30.113891  1 Sc s                 84    -30.090684  2 Sc s          
     5     28.624965  1 Sc s                 85    -28.610653  2 Sc s          
    22    -18.983648  1 Sc dxx               25    -18.983648  1 Sc dyy        
    27    -18.988487  1 Sc dzz              102     18.969546  2 Sc dxx        
   105     18.969547  2 Sc dyy              107     18.974388  2 Sc dzz        
 

   alpha - beta orbital overlaps 
   ----------------------------- 


   alpha      1      2      3      4      5      6      7      8      9     10
    beta      1      2      3      4      5      6      7      8      9     10
 overlap   1.000  1.000  1.000  1.000  1.000  1.000  1.000  1.000  1.000  1.000


   alpha     11     12     13     14     15     16     17     18     19     20
    beta     11     12     13     14     15     16     17     18     19     20
 overlap   1.000  1.000  1.000  1.000  0.990  0.990  0.989  0.989  0.956  0.992


   alpha     21     22     23     24     25     26     27     28     29     30
    beta     30     33     21     29     22     23     24     25     28     26
 overlap   0.983  0.988  0.762  0.895  0.980  0.978  0.987  0.987  0.715  0.998


   alpha     31     32     33     34     35     36     37     38     39     40
    beta     27     31     32     34     35     36     37     39     42     38
 overlap   0.998  0.915  0.915  0.949  0.949  0.975  0.993  0.985  0.988  0.999


   alpha     41     42     43     44     45     46     47     48     49     50
    beta     40     41     45     43     44     46     47     48     49     50
 overlap   0.996  0.996  0.991  0.995  0.999  0.971  0.971  0.986  0.716  0.716


   alpha     51     52     53     54     55     56     57     58     59     60
    beta     51     52     53     54     55     58     59     57     56     60
 overlap   0.994  0.931  0.931  0.984  0.947  0.981  0.980  0.983  0.978  0.956


   alpha     61     62     63     64     65     66     67     68     69     70
    beta     64     62     61     69     67     66     65     63     68     72
 overlap   0.980  0.994  0.994  0.995  0.983  0.983  0.901  0.976  0.979  0.977


   alpha     71     72     73     74     75     76     77     78     79     80
    beta     73     71     74     75     70     77     76     78     79     80
 overlap   0.977  0.912  0.985  0.986  0.983  1.000  0.981  0.997  0.962  0.962


   alpha     81     82     83     84     85     86     87     88     89     90
    beta     81     82     83     87     85     84     86     88     89     90
 overlap   0.874  0.714  0.714  0.858  0.727  0.727  0.995  0.962  0.995  0.992


   alpha     91     92     93     94     95     96     97     98     99    100
    beta     92     96     93     94     91     95     97     98    100     99
 overlap   0.998  0.998  0.994  0.994  0.998  0.999  0.978  0.978  0.968  0.978


   alpha    101    102    103    104    105    106    107    108    109    110
    beta    111    112    107    108    103    115    102    101    104    106
 overlap   0.956  0.956  0.949  0.820  0.999  0.751  0.911  0.696  0.996  0.938


   alpha    111    112    113    114    115    116    117    118    119    120
    beta    105    109    110    113    114    116    117    118    124    123
 overlap   0.937  0.922  0.800  0.998  1.000  0.981  0.981  0.926  0.811  0.812


   alpha    121    122    123    124    125    126    127    128    129    130
    beta    120    126    125    122    121    128    119    129    127    130
 overlap   0.997  0.912  0.913  0.798  0.798  0.992  0.992  1.000  0.998  0.980


   alpha    131    132    133    134    135    136    137    138    139    140
    beta    131    132    133    138    134    135    136    137    139    140
 overlap   0.980  0.990  0.990  0.840  0.994  0.990  0.984  0.911  0.984  0.993


   alpha    141    142    143    144    145    146    147    148    149    150
    beta    145    146    143    143    144    142    147    148    150    149
 overlap   0.996  0.998  0.731  0.666  0.790  0.997  0.988  0.989  0.991  0.992


   alpha    151    152    153    154    155    156    157    158    159    160
    beta    151    152    153    154    155    156    157    158    159    160
 overlap   0.994  0.994  0.994  0.994  1.000  0.999  1.000  1.000  1.000  1.000


     --------------------------
     Expectation value of S2:  
     --------------------------
      <S2> =      6.0601 (Exact =     6.0000)
 

 center of mass
 --------------
 x =   0.00000000 y =   0.00000000 z =   0.00000000

 moments of inertia (a.u.)
 ------------------
        1875.393418138708           0.000000000000           0.000000000000
           0.000000000000        1875.393418138708           0.000000000000
           0.000000000000           0.000000000000           0.000000000000
 
     Multipole analysis of the density
     ---------------------------------
 
     L   x y z        total         alpha         beta         nuclear
     -   - - -        -----         -----         ----         -------
     0   0 0 0     -0.000000    -23.000000    -19.000000     42.000000
 
     1   1 0 0      0.001419      0.002855     -0.001436      0.000000
     1   0 1 0     -0.000459     -0.000844      0.000385      0.000000
     1   0 0 1      0.003876     -0.029522      0.033398      0.000000
 
     2   2 0 0    -31.905913    -22.177755     -9.728158      0.000000
     2   1 1 0     -0.002869     -0.002500     -0.000369      0.000000
     2   1 0 1     -0.002308     -0.002576      0.000267      0.000000
     2   0 2 0    -31.958502    -22.230730     -9.727772      0.000000
     2   0 1 1     -0.000050     -0.000003     -0.000047      0.000000
     2   0 0 2    -25.392355   -505.525184   -395.908898    876.041727
 

------------------------------------------------------------
EAF file 0: "./Sc2.aoints.0" size=46661632 bytes
------------------------------------------------------------
               write      read    awrite     aread      wait
               -----      ----    ------     -----      ----
     calls:       89       208         0     18304     18304
   data(b): 4.67e+07  1.09e+08  0.00e+00  9.60e+09
   time(s): 0.00e+00  0.00e+00  0.00e+00  0.00e+00  0.00e+00
rate(mb/s): 0.00e+00  0.00e+00
------------------------------------------------------------


 Parallel integral file used     354 records with       0 large values


 Task  times  cpu:     1157.8s     wall:     1187.7s
 
 
                                NWChem Input Module
                                -------------------
 
 
 Summary of allocated global arrays
-----------------------------------
  No active global arrays



                         GA Statistics for process    0
                         ------------------------------

       create   destroy   get      put      acc     scatter   gather  read&inc
calls: 4713     4713     6.89e+04 4.08e+04 2.14e+04    0        0      102     
number of processes/call 1.38e+00 1.09e+00 1.53e+00 0.00e+00 0.00e+00
bytes total:             3.00e+09 4.51e+08 1.68e+09 0.00e+00 0.00e+00 8.16e+02
bytes remote:            1.24e+09 1.41e+08 5.80e+08 0.00e+00 0.00e+00 0.00e+00
Max memory consumed for GA by this process: 3942400 bytes
 
MA_summarize_allocated_blocks: starting scan ...
MA_summarize_allocated_blocks: scan completed: 0 heap blocks, 0 stack blocks
MA usage statistics:

	allocation statistics:
					      heap	     stack
					      ----	     -----
	current number of blocks	         0	         0
	maximum number of blocks	        20	        51
	current total bytes		         0	         0
	maximum total bytes		   1338424	  44616760
	maximum total K-bytes		      1339	     44617
	maximum total M-bytes		         2	        45
 
 
                                     CITATION
                                     --------
                Please cite the following reference when publishing
                           results obtained with NWChem:
 
                 M. Valiev, E.J. Bylaska, N. Govind, K. Kowalski,
              T.P. Straatsma, H.J.J. van Dam, D. Wang, J. Nieplocha,
                        E. Apra, T.L. Windus, W.A. de Jong
                 "NWChem: a comprehensive and scalable open-source
                  solution for large scale molecular simulations"
                      Comput. Phys. Commun. 181, 1477 (2010)
                           doi:10.1016/j.cpc.2010.04.018
 
                                      AUTHORS
                                      -------
          E. Apra, E. J. Bylaska, W. A. de Jong, N. Govind, K. Kowalski,
       T. P. Straatsma, M. Valiev, H. J. J. van Dam, D. Wang, T. L. Windus,
        J. Hammond, J. Autschbach, K. Bhaskaran-Nair, J. Brabec, K. Lopata,
    S. A. Fischer, S. Krishnamoorthy, M. Jacquelin, W. Ma, M. Klemm, O. Villa,
      Y. Chen, V. Anisimov, F. Aquino, S. Hirata, M. T. Hackler, V. Konjkov,
            D. Mejia-Rodriguez, T. Risthaus, M. Malagoli, A. Marenich,
   A. Otero-de-la-Roza, J. Mullin, P. Nichols, R. Peverati, J. Pittner, Y. Zhao,
        P.-D. Fan, A. Fonari, M. J. Williamson, R. J. Harrison, J. R. Rehr,
      M. Dupuis, D. Silverstein, D. M. A. Smith, J. Nieplocha, V. Tipparaju,
    M. Krishnan, B. E. Van Kuiken, A. Vazquez-Mayagoitia, L. Jensen, M. Swart,
      Q. Wu, T. Van Voorhis, A. A. Auer, M. Nooijen, L. D. Crosby, E. Brown,
      G. Cisneros, G. I. Fann, H. Fruchtl, J. Garza, K. Hirao, R. A. Kendall,
      J. A. Nichols, K. Tsemekhman, K. Wolinski, J. Anchell, D. E. Bernholdt,
      P. Borowski, T. Clark, D. Clerc, H. Dachsel, M. J. O. Deegan, K. Dyall,
    D. Elwood, E. Glendening, M. Gutowski, A. C. Hess, J. Jaffe, B. G. Johnson,
     J. Ju, R. Kobayashi, R. Kutteh, Z. Lin, R. Littlefield, X. Long, B. Meng,
      T. Nakajima, S. Niu, L. Pollack, M. Rosing, K. Glaesemann, G. Sandrone,
      M. Stave, H. Taylor, G. Thomas, J. H. van Lenthe, A. T. Wong, Z. Zhang.

 Total times  cpu:     1158.3s     wall:     1188.2s
