 argument  1 = /home/kohn/work/DATASETS/NWCHEM/rabeet/tm10/nwtpss/TiO.nw
  NWChem w/ OpenMP: maximum threads =  1
                                         
                                         
 
 
              Northwest Computational Chemistry Package (NWChem) 6.8
              ------------------------------------------------------
 
 
                    Environmental Molecular Sciences Laboratory
                       Pacific Northwest National Laboratory
                                Richland, WA 99352
 
                              Copyright (c) 1994-2017
                       Pacific Northwest National Laboratory
                            Battelle Memorial Institute
 
             NWChem is an open-source computational chemistry package
                        distributed under the terms of the
                      Educational Community License (ECL) 2.0
             A copy of the license is included with this distribution
                              in the LICENSE.TXT file
 
                                  ACKNOWLEDGMENT
                                  --------------

            This software and its documentation were developed at the
            EMSL at Pacific Northwest National Laboratory, a multiprogram
            national laboratory, operated for the U.S. Department of Energy
            by Battelle under Contract Number DE-AC05-76RL01830. Support
            for this work was provided by the Department of Energy Office
            of Biological and Environmental Research, Office of Basic
            Energy Sciences, and the Office of Advanced Scientific Computing.


           Job information
           ---------------

    hostname        = kohn
    program         = nwchem
    date            = Thu Sep 27 16:28:05 2018

    compiled        = Wed_Sep_26_21:04:37_2018
    source          = /home/kohn/softwares/nwchem/nwchem-6.8
    nwchem branch   = 6.8
    nwchem revision = v6.8-47-gdf6c956
    ga revision     = ga-5.6.3
    use scalapack   = F
    input           = /home/kohn/work/DATASETS/NWCHEM/rabeet/tm10/nwtpss/TiO.nw
    prefix          = TiO.
    data base       = ./TiO.db
    status          = startup
    nproc           =        4
    time left       =     -1s



           Memory information
           ------------------

    heap     =   13107198 doubles =    100.0 Mbytes
    stack    =   13107195 doubles =    100.0 Mbytes
    global   =   26214400 doubles =    200.0 Mbytes (distinct from heap & stack)
    total    =   52428793 doubles =    400.0 Mbytes
    verify   = yes
    hardfail = no 


           Directory information
           ---------------------
 
  0 permanent = .
  0 scratch   = .
 
 
 
 
                                NWChem Input Module
                                -------------------
 
 

 Scaling coordinates for geometry "geometry" by  1.889725989
 (inverse scale =  0.529177249)


          ------
          auto-z
          ------
     1 autoz failed with cvr_scaling = 1.2 changing to 1.3
     2 autoz failed with cvr_scaling = 1.3 changing to 1.4
 
 
                             Geometry "geometry" -> ""
                             -------------------------
 
 Output coordinates in angstroms (scale by  1.889725989 to convert to a.u.)
 
  No.       Tag          Charge          X              Y              Z
 ---- ---------------- ---------- -------------- -------------- --------------
    1 Ti                  22.0000     0.00000000     0.00000000    -0.81684800
    2 O                    8.0000     0.00000000     0.00000000     2.24633200
 
      Atomic Mass 
      ----------- 
 
      Ti                45.948000
      O                 15.994910
 

 Effective nuclear repulsion energy (a.u.)      30.4047414203

            Nuclear Dipole moment (a.u.) 
            ----------------------------
        X                 Y               Z
 ---------------- ---------------- ----------------
     0.0000000000     0.0000000000     0.0000000000
 


                                Z-matrix (autoz)
                                -------- 

 Units are Angstrom for bonds and degrees for angles
 
      Type          Name      I     J     K     L     M      Value
      ----------- --------  ----- ----- ----- ----- ----- ----------
    1 Stretch                  1     2                       3.06318
 
 
            XYZ format geometry
            -------------------
     2
 geometry
 Ti                    0.00000000     0.00000000    -0.81684800
 O                     0.00000000     0.00000000     2.24633200
 


 Summary of "ao basis" -> "" (cartesian)
 ------------------------------------------------------------------------------
       Tag                 Description            Shells   Functions and Types
 ---------------- ------------------------------  ------  ---------------------
 *                         def2-TZVPP                 on all atoms 


 
                                 NWChem DFT Module
                                 -----------------
 
 
                      Basis "ao basis" -> "ao basis" (cartesian)
                      -----
  Ti (Titanium)
  -------------
            Exponent  Coefficients 
       -------------- ---------------------------------------------------------
  1 S  2.11575690E+05  0.000233
  1 S  3.17149451E+04  0.001808
  1 S  7.21754765E+03  0.009398
  1 S  2.04293942E+03  0.038157
  1 S  6.65128962E+02  0.123748
  1 S  2.38749423E+02  0.292086
  1 S  9.25086910E+01  0.412268
  1 S  3.64039192E+01  0.210905
 
  2 S  2.32726246E+02 -0.024920
  2 S  7.17912097E+01 -0.117465
  2 S  1.11585346E+01  0.565033
  2 S  4.65481354E+00  0.562111
 
  3 S  6.80346292E+00 -0.230114
  3 S  1.12010764E+00  0.721032
 
  4 S  4.80801188E-01  1.000000
 
  5 S  8.51572750E-02  1.000000
 
  6 S  3.26574770E-02  1.000000
 
  7 P  1.06314747E+03  0.002469
  7 P  2.51565071E+02  0.019773
  7 P  8.04085549E+01  0.090988
  7 P  2.97681933E+01  0.255599
  7 P  1.17368306E+01  0.404894
  7 P  4.71423752E+00  0.236934
 
  8 P  1.77968037E+01 -0.027879
  8 P  2.42726987E+00  0.556729
  8 P  9.68234455E-01  1.005545
 
  9 P  3.70566942E-01  1.000000
 
 10 P  1.41800000E-01  1.000000
 
 11 P  5.42700000E-02  1.000000
 
 12 D  3.77133847E+01  0.011514
 12 D  1.06929312E+01  0.067246
 12 D  3.67284470E+00  0.214842
 12 D  1.35885903E+00  0.388909
 
 13 D  4.92132953E-01  1.000000
 
 14 D  1.63305207E-01  1.000000
 
 15 D  5.40000000E-02  1.000000
 
 16 F  2.53900000E-01  1.000000
 
 17 F  1.07500000E+00  1.000000
 
 18 G  6.34000000E-01  1.000000
 
  O (Oxygen)
  ----------
            Exponent  Coefficients 
       -------------- ---------------------------------------------------------
  1 S  2.70323826E+04  0.000217
  1 S  4.05238714E+03  0.001684
  1 S  9.22327227E+02  0.008740
  1 S  2.61240710E+02  0.035240
  1 S  8.53546414E+01  0.111535
  1 S  3.10350352E+01  0.255890
 
  2 S  1.22608607E+01  0.397687
  2 S  4.99870760E+00  0.246278
 
  3 S  1.17031082E+00  1.000000
 
  4 S  4.64747410E-01  1.000000
 
  5 S  1.85045364E-01  1.000000
 
  6 P  6.32749548E+01  0.006069
  6 P  1.46270494E+01  0.041913
  6 P  4.45012235E+00  0.161538
  6 P  1.52757996E+00  0.357070
 
  7 P  5.29351179E-01  1.000000
 
  8 P  1.74784213E-01  1.000000
 
  9 D  2.31400000E+00  1.000000
 
 10 D  6.45000000E-01  1.000000
 
 11 F  1.42800000E+00  1.000000
 


 Summary of "ao basis" -> "ao basis" (cartesian)
 ------------------------------------------------------------------------------
       Tag                 Description            Shells   Functions and Types
 ---------------- ------------------------------  ------  ---------------------
 Ti                        def2-TZVPP               18       80   6s5p4d2f1g
 O                         def2-TZVPP               11       36   5s3p2d1f




 Summary of "ao basis" -> "ao basis" (cartesian)
 ------------------------------------------------------------------------------
       Tag                 Description            Shells   Functions and Types
 ---------------- ------------------------------  ------  ---------------------
 Ti                        def2-TZVPP               18       80   6s5p4d2f1g
 O                         def2-TZVPP               11       36   5s3p2d1f


  Caching 1-el integrals 
 
            General Information
            -------------------
          SCF calculation type: DFT
          Wavefunction type:  spin polarized.
          No. of atoms     :     2
          No. of electrons :    30
           Alpha electrons :    16
            Beta electrons :    14
          Charge           :     0
          Spin multiplicity:     3
          Use of symmetry is: off; symmetry adaption is: off
          Maximum number of iterations: ***
          AO basis - number of functions:   116
                     number of shells:    29
          Convergence on energy requested:  1.00D-06
          Convergence on density requested:  1.00D-05
          Convergence on gradient requested:  5.00D-04
 
              XC Information
              --------------
                  TPSS metaGGA Exchange Functional  1.000          
             TPSS03 metaGGA Correlation Functional  1.000          
 
             Grid Information
             ----------------
          Grid used for XC integration:  medium    
          Radial quadrature: Mura-Knowles        
          Angular quadrature: Lebedev. 
          Tag              B.-S. Rad. Rad. Pts. Rad. Cut. Ang. Pts.
          ---              ---------- --------- --------- ---------
          Ti                  1.40      112           8.0       590
          O                   0.60       49          11.0       434
          Grid pruning is: on 
          Number of quadrature shells:   161
          Spatial weights used:  Erf1
 
          Convergence Information
          -----------------------
          Convergence aids based upon iterative change in 
          total energy or number of iterations. 
          Levelshifting, if invoked, occurs when the 
          HOMO/LUMO gap drops below (HL_TOL):  1.00D-02
          DIIS, if invoked, will attempt to extrapolate 
          using up to (NFOCK): 10 stored Fock matrices.

                    Damping( 0%)  Levelshifting(0.5)       DIIS
                  --------------- ------------------- ---------------
          dE  on:    start            ASAP                start   
          dE off:    2 iters        *** iters           *** iters 

 
      Screening Tolerance Information
      -------------------------------
          Density screening/tol_rho:  1.00D-10
          AO Gaussian exp screening on grid/accAOfunc:  14
          CD Gaussian exp screening on grid/accCDfunc:  20
          XC Gaussian exp screening on grid/accXCfunc:  20
          Schwarz screening/accCoul:  1.00D-08

 
      Superposition of Atomic Density Guess
      -------------------------------------
 
 Sum of atomic energies:        -923.15042015
 
      Non-variational initial energy
      ------------------------------

 Total energy =    -922.182276
 1-e energy   =   -1326.678226
 2-e energy   =     374.091208
 HOMO         =      -0.204458
 LUMO         =       0.045724
 
   Time after variat. SCF:      5.2
   Time prior to 1st pass:      5.2

 Integral file          = ./TiO.aoints.0
 Record size in doubles =    65536    No. of integs per rec  =    43688
 Max. records in memory =      180    Max. records in file   =  1479058
 No. of bits per label  =        8    No. of bits per value  =       64


 #quartets = 7.854D+04 #integrals = 3.959D+06 #direct =  0.0% #cached =100.0%


File balance: exchanges=     2  moved=     9  time=   0.0


 Grid_pts file          = ./TiO.gridpts.0
 Record size in doubles =  12289        No. of grid_pts per rec  =   3070
 Max. records in memory =     10        Max. recs in file   =   7887672


           Memory utilization after 1st SCF pass: 
           Heap Space remaining (MW):        1.18             1176710
          Stack Space remaining (MW):       13.11            13106156

   convergence    iter        energy       DeltaE   RMS-Dens  Diis-err    time
 ---------------- ----- ----------------- --------- --------- ---------  ------
 d= 0,ls=0.0,diis     1   -922.9563627855 -9.53D+02  4.75D-02  1.46D+00    13.0
                                                     2.99D-02  1.25D+00
 d= 0,ls=0.5,diis     2   -893.5802511896  2.94D+01  7.60D-03  5.05D+01    18.0
                                                     5.76D-03  4.18D+01
 d= 0,ls=0.5,diis     3   -896.4413114331 -2.86D+00  3.38D-03  3.85D+01    23.0
                                                     1.92D-03  3.16D+01
 d= 0,ls=0.5,diis     4   -897.5933837397 -1.15D+00  1.74D-03  3.54D+01    27.8
                                                     8.62D-04  2.89D+01
 d= 0,ls=0.5,diis     5   -898.1124619625 -5.19D-01  1.02D-03  3.46D+01    31.6
                                                     4.20D-04  2.79D+01
 d= 0,ls=0.5,diis     6   -898.4339236749 -3.21D-01  1.13D-03  3.49D+01    36.4
                                                     2.17D-04  2.75D+01
 d= 0,ls=0.5,diis     7   -898.7448905340 -3.11D-01  2.10D-03  3.63D+01    40.6
                                                     3.13D-04  2.72D+01
 d= 0,ls=0.5,diis     8   -899.1768073698 -4.32D-01  1.59D-03  3.80D+01    45.0
                                                     2.03D-04  2.67D+01
 d= 0,ls=0.5,diis     9   -899.8183342138 -6.42D-01  2.01D-03  4.10D+01    50.4
                                                     1.61D-04  2.64D+01
 d= 0,ls=0.5,diis    10   -900.5957097064 -7.77D-01  1.90D-03  4.34D+01    55.1
                                                     1.61D-04  2.62D+01
 d= 0,ls=0.5,diis    11   -901.4640257676 -8.68D-01  1.34D-01  4.36D+01    58.9
                                                     5.99D-02  2.59D+01
 d= 0,ls=0.5,diis    12   -836.6644084630  6.48D+01  6.55D-02  9.17D+01    64.2
                                                     3.03D-02  8.02D+01
 d= 0,ls=0.5,diis    13   -863.0778798780 -2.64D+01  8.22D-02  6.49D+01    68.5
                                                     3.24D-02  8.21D+01
 d= 0,ls=0.5,diis    14   -878.3982605011 -1.53D+01  8.05D-02  8.14D+01    73.0
                                                     1.42D-02  4.77D+01
 d= 0,ls=0.5,diis    15   -884.6400362001 -6.24D+00  3.96D-02  5.61D+01    78.0
                                                     4.78D-02  2.90D+01
 d= 0,ls=0.5,diis    16   -916.5937575443 -3.20D+01  4.97D-02  2.08D+01    82.3
                                                     4.89D-03  1.26D+01
 d= 0,ls=0.5,diis    17   -918.8373422837 -2.24D+00  7.27D-02  1.07D+01    86.6
                                                     2.42D-02  7.03D+00
 d= 0,ls=0.5,diis    18   -911.0110163232  7.83D+00  3.32D-03  2.27D+01    91.5
                                                     1.43D-03  1.60D+01
  Resetting Diis
 d= 0,ls=0.5,diis    19   -910.9872231412  2.38D-02  1.57D-03  2.15D+01    97.2
                                                     9.24D-04  1.58D+01
 d= 0,ls=0.5,diis    20   -911.2989006946 -3.12D-01  6.22D-02  2.00D+01   101.6
                                                     5.35D-02  1.49D+01
 d= 0,ls=0.5,diis    21   -844.2048158577  6.71D+01  5.10D-02  6.68D+01   106.2
                                                     4.50D-02  5.70D+01
 d= 0,ls=0.5,diis    22   -916.8896845532 -7.27D+01  5.17D-02  1.36D+01   110.4
                                                     5.91D-03  1.43D+01
 d= 0,ls=0.5,diis    23   -920.2786007127 -3.39D+00  8.12D-02  5.43D+00   115.3
                                                     2.49D-02  4.47D+00
 d= 0,ls=0.5,diis    24   -910.3901497597  9.89D+00  4.50D-03  2.40D+01   120.3
                                                     9.37D-04  1.70D+01
 d= 0,ls=0.5,diis    25   -909.8508137517  5.39D-01  1.86D-03  2.48D+01   126.3
                                                     6.32D-04  1.86D+01
 d= 0,ls=0.5,diis    26   -909.7295216938  1.21D-01  8.56D-04  2.50D+01   131.4
                                                     4.93D-04  1.96D+01
 d= 0,ls=0.5,diis    27   -909.6839950080  4.55D-02  4.71D-04  2.50D+01   136.2
                                                     4.64D-04  2.07D+01
 d= 0,ls=0.5,diis    28   -909.6619165274  2.21D-02  7.49D-04  2.49D+01   142.1
                                                     6.43D-04  2.17D+01
 d= 0,ls=0.5,diis    29   -909.8964710039 -2.35D-01  9.31D-04  2.42D+01   147.6
                                                     8.68D-04  2.11D+01
 d= 0,ls=0.5,diis    30   -910.3804054177 -4.84D-01  5.55D-04  2.28D+01   151.8
                                                     5.84D-04  1.89D+01
 d= 0,ls=0.5,diis    31   -910.6587782393 -2.78D-01  3.47D-03  2.21D+01   157.0
                                                     2.90D-03  1.76D+01
 d= 0,ls=0.5,diis    32   -912.0378766769 -1.38D+00  9.81D-03  1.73D+01   160.6
                                                     9.03D-03  1.30D+01
 d= 0,ls=0.5,diis    33   -918.7821603369 -6.74D+00  7.63D-02  1.68D+01   165.9
                                                     3.73D-02  1.33D+01
 d= 0,ls=0.5,diis    34   -876.8706431486  4.19D+01  2.66D-02  8.37D+01   170.8
                                                     1.35D-02  3.61D+01
 d= 0,ls=0.5,diis    35   -884.3981137012 -7.53D+00  5.61D-02  4.98D+01   175.4
                                                     2.58D-02  2.40D+01
 d= 0,ls=0.5,diis    36   -912.9563230128 -2.86D+01  1.99D-02  1.62D+01   181.4
                                                     2.14D-02  1.98D+01
 d= 0,ls=0.5,diis    37   -917.1891069431 -4.23D+00  3.47D-02  9.89D+00   185.3
                                                     1.20D-02  1.47D+01
 d= 0,ls=0.5,diis    38   -919.2968058195 -2.11D+00  5.77D-02  6.70D+00   190.8
                                                     4.67D-03  6.20D+00
 d= 0,ls=0.5,diis    39   -921.0707590450 -1.77D+00  6.91D-02  3.67D+00   195.9
                                                     3.92D-03  2.62D+00
 d= 0,ls=0.5,diis    40   -923.3936115333 -2.32D+00  4.77D-02  1.49D+00   200.1
                                                     2.03D-02  9.63D-01
 d= 0,ls=0.5,diis    41   -915.8342016460  7.56D+00  1.87D-02  2.12D+01   204.4
                                                     4.85D-03  2.03D+01
 d= 0,ls=0.5,diis    42   -912.2734242587  3.56D+00  7.07D-03  2.03D+01   208.5
                                                     2.07D-03  1.69D+01
 d= 0,ls=0.5,diis    43   -911.1660433997  1.11D+00  2.97D-03  2.03D+01   213.2
                                                     1.04D-03  1.55D+01
 d= 0,ls=0.5,diis    44   -910.9969491700  1.69D-01  1.62D-03  1.99D+01   218.8
                                                     8.87D-04  1.51D+01
 d= 0,ls=0.5,diis    45   -910.6933230648  3.04D-01  2.14D-03  2.05D+01   224.0
                                                     1.70D-03  1.62D+01
 d= 0,ls=0.5,diis    46   -911.5476696884 -8.54D-01  1.13D-03  1.76D+01   229.7
                                                     9.27D-04  1.38D+01
 d= 0,ls=0.5,diis    47   -911.9640721016 -4.16D-01  1.90D-03  1.64D+01   235.0
                                                     1.54D-03  1.27D+01
 d= 0,ls=0.5,diis    48   -912.6242789258 -6.60D-01  1.51D-03  1.46D+01   239.5
                                                     1.26D-03  1.10D+01
 d= 0,ls=0.5,diis    49   -913.1101516325 -4.86D-01  7.89D-04  1.34D+01   243.1
                                                     7.06D-04  1.00D+01
 d= 0,ls=0.5,diis    50   -913.3349993315 -2.25D-01  4.32D-02  1.29D+01   247.8
                                                     2.29D-02  9.64D+00
 d= 0,ls=0.5,diis    51   -915.9423032798 -2.61D+00  1.54D-02  1.68D+01   253.0
                                                     4.02D-03  1.43D+01
 d= 0,ls=0.5,diis    52   -917.6064862116 -1.66D+00  6.58D-02  1.05D+01   257.9
                                                     2.99D-03  8.94D+00
 d= 0,ls=0.5,diis    53   -919.8371442386 -2.23D+00  5.24D-02  6.05D+00   264.4
                                                     1.40D-03  4.57D+00
 d= 0,ls=0.5,diis    54   -921.1248033270 -1.29D+00  2.78D-02  4.53D+00   270.6
                                                     1.04D-03  3.01D+00
 d= 0,ls=0.5,diis    55   -922.0233466029 -8.99D-01  3.82D-02  3.35D+00   275.1
                                                     2.75D-03  2.12D+00
 d= 0,ls=0.5,diis    56   -923.1229360010 -1.10D+00  6.65D-02  1.56D+00   279.3
                                                     1.97D-02  9.06D-01
 d= 0,ls=0.5,diis    57   -917.8838881678  5.24D+00  3.08D-02  1.34D+01   283.1
                                                     5.17D-03  1.67D+01
 d= 0,ls=0.5,diis    58   -914.7438664998  3.14D+00  1.49D-02  1.46D+01   287.7
                                                     2.82D-03  1.75D+01
 d= 0,ls=0.5,diis    59   -913.3626416949  1.38D+00  7.29D-03  1.51D+01   292.2
                                                     1.65D-03  1.42D+01
 d= 0,ls=0.5,diis    60   -912.8667728224  4.96D-01  3.98D-03  1.53D+01   297.6
                                                     1.06D-03  1.25D+01
 d= 0,ls=0.5,diis    61   -912.5960353917  2.71D-01  2.40D-03  1.58D+01   303.8
                                                     8.14D-04  1.21D+01
 d= 0,ls=0.5,diis    62   -912.5606189564  3.54D-02  1.72D-03  1.60D+01   308.1
                                                     6.63D-04  1.19D+01
 d= 0,ls=0.5,diis    63   -912.6205579388 -5.99D-02  1.21D-03  1.59D+01   312.5
                                                     4.13D-04  1.17D+01
 d= 0,ls=0.5,diis    64   -912.5638509579  5.67D-02  1.29D-03  1.61D+01   316.4
                                                     7.08D-04  1.18D+01
 d= 0,ls=0.5,diis    65   -912.8092671442 -2.45D-01  1.20D-03  1.54D+01   320.3
                                                     9.90D-04  1.12D+01
 d= 0,ls=0.5,diis    66   -913.0454989235 -2.36D-01  4.32D-02  1.48D+01   324.2
                                                     3.69D-02  1.07D+01
 d= 0,ls=0.5,diis    67   -910.5405800808  2.50D+00  2.07D-02  2.24D+01   329.6
                                                     2.79D-02  1.88D+01
 d= 0,ls=0.5,diis    68   -917.5933517212 -7.05D+00  3.10D-02  1.10D+01   334.7
                                                     1.99D-03  9.32D+00
 d= 0,ls=0.5,diis    69   -919.0603341527 -1.47D+00  5.12D-02  7.37D+00   340.4
                                                     2.52D-03  5.99D+00
 d= 0,ls=0.5,diis    70   -920.8207804587 -1.76D+00  2.80D-02  4.70D+00   344.7
                                                     1.52D-03  3.32D+00
 d= 0,ls=0.5,diis    71   -922.0284423028 -1.21D+00  2.63D-02  3.09D+00   349.2
                                                     1.63D-03  1.90D+00
 d= 0,ls=0.5,diis    72   -922.8732990139 -8.45D-01  2.64D-02  2.03D+00   353.3
                                                     2.09D-03  1.28D+00
 d= 0,ls=0.5,diis    73   -923.4533494614 -5.80D-01  2.89D-02  1.13D+00   356.8
                                                     3.65D-03  7.59D-01
 d= 0,ls=0.5,diis    74   -924.1564849944 -7.03D-01  1.59D-02  2.98D-01   360.9
                                                     3.74D-03  2.18D-01
 d= 0,ls=0.5,diis    75   -924.4059230493 -2.49D-01  1.00D-02  6.80D-02   366.6
                                                     3.63D-03  5.42D-02
 d= 0,ls=0.5,diis    76   -924.0427251266  3.63D-01  6.70D-03  1.18D+00   370.3
                                                     3.20D-03  1.24D+00
 d= 0,ls=0.5,diis    77   -923.2866795177  7.56D-01  4.79D-03  3.05D+00   374.5
                                                     3.78D-03  3.65D+00
 d= 0,ls=0.5,diis    78   -922.0085313845  1.28D+00  3.27D-03  5.44D+00   379.7
                                                     3.41D-03  7.32D+00
 d= 0,ls=0.5,diis    79   -920.6983183904  1.31D+00  2.11D-03  7.00D+00   383.6
                                                     2.17D-03  9.73D+00
 d= 0,ls=0.5,diis    80   -919.9028463061  7.95D-01  1.54D-03  7.47D+00   388.5
                                                     1.62D-03  1.01D+01
 d= 0,ls=0.5,diis    81   -919.3482595714  5.55D-01  1.14D-03  7.69D+00   393.4
                                                     8.92D-04  9.81D+00
 d= 0,ls=0.5,diis    82   -919.1403015102  2.08D-01  8.94D-04  7.57D+00   397.9
                                                     7.14D-04  9.34D+00
 d= 0,ls=0.5,diis    83   -918.9969062410  1.43D-01  7.51D-04  7.47D+00   403.1
                                                     5.78D-04  8.93D+00
 d= 0,ls=0.5,diis    84   -918.9000544626  9.69D-02  9.24D-04  7.38D+00   407.0
                                                     7.17D-04  8.57D+00
 d= 0,ls=0.5,diis    85   -919.1471448951 -2.47D-01  9.13D-04  6.78D+00   411.0
                                                     1.13D-03  8.29D+00
 d= 0,ls=0.5,diis    86   -919.6494728139 -5.02D-01  1.48D-03  5.96D+00   413.7
                                                     2.85D-03  8.44D+00
 d= 0,ls=0.5,diis    87   -920.7957586228 -1.15D+00  1.12D-02  4.60D+00   418.0
                                                     1.29D-02  8.43D+00
 d= 0,ls=0.5,diis    88   -924.3669561681 -3.57D+00  2.58D-03  2.94D-01   422.3
                                                     2.75D-03  2.74D-01
 d= 0,ls=0.5,diis    89   -924.3335397858  3.34D-02  1.73D-03  4.01D-01   426.4
                                                     1.04D-03  3.02D-01
 d= 0,ls=0.5,diis    90   -924.4027544266 -6.92D-02  2.13D-03  1.88D-01   430.3
                                                     8.46D-04  1.18D-01
 d= 0,ls=0.5,diis    91   -924.4720366485 -6.93D-02  7.75D-04  1.56D-02   435.4
                                                     6.17D-04  3.41D-03
 d= 0,ls=0.5,diis    92   -924.4780267573 -5.99D-03  6.26D-04  1.58D-02   439.6
                                                     6.56D-04  3.32D-03
 d= 0,ls=0.5,diis    93   -924.4828638610 -4.84D-03  5.17D-04  1.99D-02   444.9
                                                     4.57D-04  4.99D-03
 d= 0,ls=0.5,diis    94   -924.4878662772 -5.00D-03  4.13D-04  1.78D-02   449.4
                                                     3.69D-04  3.67D-03
 d= 0,ls=0.5,diis    95   -924.4912562639 -3.39D-03  3.80D-04  1.75D-02   453.4
                                                     3.18D-04  3.55D-03
 d= 0,ls=0.5,diis    96   -924.4943576647 -3.10D-03  5.64D-04  1.69D-02   458.4
                                                     3.08D-04  3.44D-03
 d= 0,ls=0.5,diis    97   -924.5004392588 -6.08D-03  4.20D-04  8.01D-03   462.5
                                                     3.88D-04  9.69D-04
 d= 0,ls=0.5,diis    98   -924.5038656066 -3.43D-03  4.75D-04  8.46D-03   466.0
                                                     3.29D-04  9.43D-04
 d= 0,ls=0.5,diis    99   -924.5080003562 -4.13D-03  5.66D-04  5.65D-03   471.0
                                                     4.87D-04  7.42D-04
 d= 0,ls=0.5,diis   100   -924.5124171037 -4.42D-03  4.44D-04  4.79D-03   474.9
                                                     4.34D-04  6.10D-04
 d= 0,ls=0.5,diis   101   -924.5156962447 -3.28D-03  4.57D-04  4.75D-03   479.1
                                                     4.09D-04  6.83D-04
 d= 0,ls=0.5,diis   102   -924.5187154541 -3.02D-03  5.19D-04  4.26D-03   483.9
                                                     3.83D-04  7.34D-04
 d= 0,ls=0.5,diis   103   -924.5216756299 -2.96D-03  4.04D-04  3.01D-03   488.3
                                                     3.34D-04  7.62D-04
 d= 0,ls=0.5,diis   104   -924.5236111330 -1.94D-03  3.30D-04  2.67D-03   491.5
                                                     2.57D-04  7.58D-04
 d= 0,ls=0.5,diis   105   -924.5250601858 -1.45D-03  2.73D-04  2.09D-03   496.0
                                                     2.25D-04  6.08D-04
 d= 0,ls=0.5,diis   106   -924.5258738480 -8.14D-04  2.41D-04  2.39D-03   500.3
                                                     1.68D-04  7.66D-04
 d= 0,ls=0.5,diis   107   -924.5265990736 -7.25D-04  2.46D-04  2.14D-03   504.9
                                                     1.40D-04  6.62D-04
 d= 0,ls=0.5,diis   108   -924.5272283825 -6.29D-04  2.30D-04  1.97D-03   509.7
                                                     1.02D-04  6.68D-04
 d= 0,ls=0.5,diis   109   -924.5278562218 -6.28D-04  2.08D-04  1.32D-03   513.1
                                                     8.30D-05  4.21D-04
 d= 0,ls=0.5,diis   110   -924.5283007218 -4.45D-04  1.79D-04  1.07D-03   517.5
                                                     7.01D-05  3.59D-04
 d= 0,ls=0.5,diis   111   -924.5285575183 -2.57D-04  1.72D-04  1.11D-03   523.4
                                                     6.34D-05  3.86D-04
 d= 0,ls=0.5,diis   112   -924.5287442562 -1.87D-04  1.54D-04  1.24D-03   528.3
                                                     4.27D-05  4.77D-04
 d= 0,ls=0.5,diis   113   -924.5289824531 -2.38D-04  1.55D-04  1.02D-03   532.3
                                                     4.24D-05  3.88D-04
 d= 0,ls=0.5,diis   114   -924.5292189849 -2.37D-04  1.46D-04  9.25D-04   537.5
                                                     2.88D-05  3.17D-04
 d= 0,ls=0.5,diis   115   -924.5293793010 -1.60D-04  1.43D-04  9.20D-04   541.8
                                                     2.26D-05  3.37D-04
 d= 0,ls=0.5,diis   116   -924.5295679714 -1.89D-04  1.64D-04  7.98D-04   548.0
                                                     4.47D-05  2.87D-04
 d= 0,ls=0.5,diis   117   -924.5297032863 -1.35D-04  1.66D-04  8.82D-04   552.3
                                                     3.50D-05  3.80D-04
 d= 0,ls=0.5,diis   118   -924.5298562390 -1.53D-04  1.37D-04  8.60D-04   556.4
                                                     2.01D-05  4.07D-04
 d= 0,ls=0.5,diis   119   -924.5300223178 -1.66D-04  1.34D-04  6.88D-04   560.3
                                                     1.43D-05  2.78D-04
 d= 0,ls=0.5,diis   120   -924.5301637287 -1.41D-04  1.33D-04  5.84D-04   564.7
                                                     1.96D-05  2.50D-04
 d= 0,ls=0.5,diis   121   -924.5302469655 -8.32D-05  1.38D-04  6.27D-04   568.7
                                                     2.18D-05  2.87D-04
 d= 0,ls=0.5,diis   122   -924.5302909908 -4.40D-05  1.22D-04  7.69D-04   573.1
                                                     8.12D-06  3.82D-04
 d= 0,ls=0.5,diis   123   -924.5303654784 -7.45D-05  1.10D-04  7.51D-04   577.4
                                                     8.11D-06  3.56D-04
 d= 0,ls=0.5,diis   124   -924.5304299173 -6.44D-05  1.06D-04  7.47D-04   582.0
                                                     6.67D-06  3.48D-04
 d= 0,ls=0.5,diis   125   -924.5304943470 -6.44D-05  1.13D-04  7.31D-04   586.6
                                                     2.00D-05  3.38D-04
 d= 0,ls=0.5,diis   126   -924.5305668343 -7.25D-05  1.10D-04  7.03D-04   590.5
                                                     1.58D-05  3.33D-04
 d= 0,ls=0.5,diis   127   -924.5306494739 -8.26D-05  1.11D-04  6.31D-04   594.1
                                                     2.03D-05  3.02D-04
 d= 0,ls=0.5,diis   128   -924.5307312451 -8.18D-05  1.15D-04  5.66D-04   599.2
                                                     2.70D-05  2.74D-04
 d= 0,ls=0.5,diis   129   -924.5308161145 -8.49D-05  1.10D-04  4.88D-04   604.1
                                                     2.20D-05  2.46D-04
 d= 0,ls=0.5,diis   130   -924.5309087593 -9.26D-05  1.09D-04  3.61D-04   609.1
                                                     1.96D-05  1.87D-04
 d= 0,ls=0.5,diis   131   -924.5309799238 -7.12D-05  9.65D-05  2.93D-04   613.3
                                                     9.26D-06  1.72D-04
 d= 0,ls=0.5,diis   132   -924.5310364767 -5.66D-05  9.27D-05  2.43D-04   618.8
                                                     9.66D-06  1.37D-04
 d= 0,ls=0.5,diis   133   -924.5310730004 -3.65D-05  8.18D-05  2.42D-04   623.8
                                                     6.28D-06  1.38D-04
 d= 0,ls=0.5,diis   134   -924.5311172929 -4.43D-05  7.62D-05  1.95D-04   628.4
                                                     6.26D-06  9.75D-05
 d= 0,ls=0.5,diis   135   -924.5311607514 -4.35D-05  6.91D-05  1.41D-04   634.1
                                                     2.20D-06  6.66D-05
 d= 0,ls=0.5,diis   136   -924.5311959770 -3.52D-05  7.37D-05  1.08D-04   638.7
                                                     1.54D-05  4.86D-05
 d= 0,ls=0.5,diis   137   -924.5312192771 -2.33D-05  6.75D-05  1.16D-04   643.4
                                                     9.41D-06  6.35D-05
 d= 0,ls=0.5,diis   138   -924.5312431716 -2.39D-05  6.32D-05  1.09D-04   649.1
                                                     6.42D-06  6.01D-05
 d= 0,ls=0.5,diis   139   -924.5312664697 -2.33D-05  5.96D-05  9.55D-05   654.8
                                                     4.51D-06  5.23D-05
 d= 0,ls=0.5,diis   140   -924.5312882166 -2.17D-05  5.75D-05  8.17D-05   660.4
                                                     4.37D-06  4.46D-05
 d= 0,ls=0.5,diis   141   -924.5313077463 -1.95D-05  5.44D-05  6.98D-05   664.7
                                                     3.73D-06  4.00D-05
 d= 0,ls=0.5,diis   142   -924.5313247284 -1.70D-05  6.13D-05  6.22D-05   669.7
                                                     1.43D-05  3.59D-05
 d= 0,ls=0.5,diis   143   -924.5313357095 -1.10D-05  5.24D-05  7.21D-05   673.1
                                                     4.55D-06  5.39D-05
 d= 0,ls=0.5,diis   144   -924.5313529463 -1.72D-05  5.17D-05  5.66D-05   678.1
                                                     6.26D-06  3.71D-05
 d= 0,ls=0.5,diis   145   -924.5313659231 -1.30D-05  5.04D-05  5.21D-05   682.6
                                                     6.42D-06  3.70D-05
 d= 0,ls=0.5,diis   146   -924.5313791130 -1.32D-05  4.96D-05  4.36D-05   687.6
                                                     7.53D-06  3.42D-05
 d= 0,ls=0.5,diis   147   -924.5313896735 -1.06D-05  4.49D-05  4.14D-05   692.4
                                                     3.54D-06  3.59D-05
 d= 0,ls=0.5,diis   148   -924.5314014965 -1.18D-05  4.13D-05  3.24D-05   696.9
                                                     1.78D-06  2.68D-05
 d= 0,ls=0.5,diis   149   -924.5314115445 -1.00D-05  4.14D-05  2.58D-05   702.1
                                                     5.26D-06  2.03D-05
 d= 0,ls=0.5,diis   150   -924.5314186989 -7.15D-06  4.01D-05  2.59D-05   708.0
                                                     5.97D-06  2.29D-05
 d= 0,ls=0.5,diis   151   -924.5314263898 -7.69D-06  3.69D-05  2.13D-05   712.6
                                                     3.29D-06  2.21D-05
 d= 0,ls=0.5,diis   152   -924.5314338949 -7.51D-06  3.45D-05  1.61D-05   718.3
                                                     2.50D-06  1.78D-05
 d= 0,ls=0.5,diis   153   -924.5314400901 -6.20D-06  3.13D-05  1.35D-05   722.9
                                                     1.57D-06  1.56D-05
 d= 0,ls=0.5,diis   154   -924.5314459875 -5.90D-06  2.98D-05  1.02D-05   727.9
                                                     1.85D-06  1.14D-05
 d= 0,ls=0.5,diis   155   -924.5314505871 -4.60D-06  2.77D-05  9.38D-06   732.6
                                                     9.58D-07  1.04D-05
 d= 0,ls=0.5,diis   156   -924.5314549751 -4.39D-06  2.63D-05  7.79D-06   738.1
                                                     1.33D-06  8.28D-06
 d= 0,ls=0.5,diis   157   -924.5314588809 -3.91D-06  2.53D-05  6.23D-06   744.9
                                                     1.67D-06  7.03D-06
 d= 0,ls=0.5,diis   158   -924.5314622280 -3.35D-06  2.37D-05  5.35D-06   749.9
                                                     1.01D-06  6.75D-06
 d= 0,ls=0.5,diis   159   -924.5314653340 -3.11D-06  2.17D-05  4.47D-06   753.7
                                                     1.69D-06  5.86D-06
 d= 0,ls=0.5,diis   160   -924.5314682727 -2.94D-06  2.01D-05  3.32D-06   760.0
                                                     1.40D-06  4.24D-06
 d= 0,ls=0.5,diis   161   -924.5314707780 -2.51D-06  2.01D-05  2.59D-06   765.1
                                                     2.27D-06  3.31D-06
 d= 0,ls=0.5,diis   162   -924.5314728117 -2.03D-06  1.91D-05  2.66D-06   770.4
                                                     1.92D-06  3.47D-06
 d= 0,ls=0.5,diis   163   -924.5314746440 -1.83D-06  1.96D-05  2.66D-06   774.5
                                                     3.20D-06  3.72D-06
 d= 0,ls=0.5,diis   164   -924.5314762712 -1.63D-06  1.83D-05  3.01D-06   779.2
                                                     1.78D-06  4.84D-06
 d= 0,ls=0.5,diis   165   -924.5314780518 -1.78D-06  1.77D-05  2.78D-06   783.7
                                                     1.79D-06  4.32D-06
 d= 0,ls=0.5,diis   166   -924.5314798831 -1.83D-06  1.90D-05  2.12D-06   788.9
                                                     4.13D-06  3.46D-06
 d= 0,ls=0.5,diis   167   -924.5314809698 -1.09D-06  1.71D-05  2.91D-06   792.8
                                                     2.04D-06  5.46D-06
 d= 0,ls=0.5,diis   168   -924.5314824852 -1.52D-06  1.56D-05  2.56D-06   797.4
                                                     1.07D-06  4.65D-06
 d= 0,ls=0.5,diis   169   -924.5314840359 -1.55D-06  1.60D-05  1.94D-06   802.1
                                                     2.47D-06  3.29D-06
 d= 0,ls=0.5,diis   170   -924.5314850684 -1.03D-06  1.76D-05  2.19D-06   807.0
                                                     4.65D-06  3.95D-06
 d= 0,ls=0.5,diis   171   -924.5314856086 -5.40D-07  1.60D-05  3.29D-06   812.6
                                                     3.21D-06  6.19D-06
 d= 0,ls=0.5,diis   172   -924.5314864506 -8.42D-07  1.39D-05  3.57D-06   817.4
                                                     1.70D-06  6.36D-06
 d= 0,ls=0.5,diis   173   -924.5314876936 -1.24D-06  1.31D-05  2.86D-06   822.4
                                                     9.17D-07  4.51D-06
 d= 0,ls=0.5,diis   174   -924.5314886828 -9.89D-07  1.14D-05  2.55D-06   826.5
                                                     2.48D-06  3.91D-06
 d= 0,ls=0.5,diis   175   -924.5314899115 -1.23D-06  1.10D-05  1.54D-06   830.9
                                                     1.09D-06  1.98D-06
 d= 0,ls=0.5,diis   176   -924.5314906113 -7.00D-07  1.04D-05  1.51D-06   836.0
                                                     6.26D-07  1.97D-06
 d= 0,ls=0.5,diis   177   -924.5314912989 -6.88D-07  9.77D-06  1.36D-06   842.1
                                                     1.03D-06  1.70D-06


         Total DFT energy =     -924.531491999618
      One electron energy =    -1329.540064269355
           Coulomb energy =      425.269964978797
          Exchange energy =      -49.535573506110
       Correlation energy =       -1.130560623287
 Nuclear repulsion energy =       30.404741420337

 Numeric. integr. density =       29.999997393736

     Total iterative time =    838.5s


 
                    DFT Final Alpha Molecular Orbital Analysis
                    ------------------------------------------
 
 Vector    1  Occ=1.000000D+00  E=-1.781340D+02
              MO Center=  2.6D-12,  5.9D-11, -8.2D-01, r^2= 1.8D-03
   Bfn.  Coefficient  Atom+Function         Bfn.  Coefficient  Atom+Function  
  ----- ------------  ---------------      ----- ------------  ---------------
     1      0.998276  1 Ti s                  4     -0.027482  1 Ti s          
 
 Vector    2  Occ=1.000000D+00  E=-1.951722D+01
              MO Center=  6.8D-08,  1.7D-07, -8.2D-01, r^2= 3.5D-02
   Bfn.  Coefficient  Atom+Function         Bfn.  Coefficient  Atom+Function  
  ----- ------------  ---------------      ----- ------------  ---------------
     2      1.016187  1 Ti s                  1     -0.306264  1 Ti s          
     4      0.069469  1 Ti s                 69      0.060472  1 Ti gxxyy      
    28     -0.060168  1 Ti dxx               31     -0.060212  1 Ti dyy        
    71      0.060289  1 Ti gxxzz             78      0.060271  1 Ti gyyzz      
    33     -0.059587  1 Ti dzz               66      0.030250  1 Ti gxxxx      
 
 Vector    3  Occ=1.000000D+00  E=-1.882884D+01
              MO Center= -3.0D-09, -5.0D-09,  2.2D+00, r^2= 1.5D-02
   Bfn.  Coefficient  Atom+Function         Bfn.  Coefficient  Atom+Function  
  ----- ------------  ---------------      ----- ------------  ---------------
    82      0.640175  2 O  s                 81      0.436080  2 O  s          
    84     -0.079989  2 O  s                 83      0.061433  2 O  s          
 
 Vector    4  Occ=1.000000D+00  E=-1.624929D+01
              MO Center= -6.9D-08,  2.7D-08, -8.2D-01, r^2= 2.9D-02
   Bfn.  Coefficient  Atom+Function         Bfn.  Coefficient  Atom+Function  
  ----- ------------  ---------------      ----- ------------  ---------------
     7      0.962959  1 Ti px                 8     -0.223428  1 Ti py         
    10      0.031762  1 Ti px         
 
 Vector    5  Occ=1.000000D+00  E=-1.624877D+01
              MO Center= -8.4D-08, -3.6D-07, -8.2D-01, r^2= 2.9D-02
   Bfn.  Coefficient  Atom+Function         Bfn.  Coefficient  Atom+Function  
  ----- ------------  ---------------      ----- ------------  ---------------
     8      0.962989  1 Ti py                 7      0.223435  1 Ti px         
    11      0.031671  1 Ti py         
 
 Vector    6  Occ=1.000000D+00  E=-1.624591D+01
              MO Center=  9.2D-08,  2.0D-07, -8.2D-01, r^2= 2.9D-02
   Bfn.  Coefficient  Atom+Function         Bfn.  Coefficient  Atom+Function  
  ----- ------------  ---------------      ----- ------------  ---------------
     9      0.988573  1 Ti pz                12      0.032511  1 Ti pz         
 
 Vector    7  Occ=1.000000D+00  E=-2.249058D+00
              MO Center= -3.4D-06, -7.9D-07, -8.2D-01, r^2= 3.4D-01
   Bfn.  Coefficient  Atom+Function         Bfn.  Coefficient  Atom+Function  
  ----- ------------  ---------------      ----- ------------  ---------------
     3      0.569550  1 Ti s                  2     -0.443378  1 Ti s          
     4      0.385076  1 Ti s                  1      0.111665  1 Ti s          
    22      0.053862  1 Ti dxx               25      0.051759  1 Ti dyy        
    27      0.051218  1 Ti dzz               28      0.036709  1 Ti dxx        
     5     -0.034272  1 Ti s                 31      0.031591  1 Ti dyy        
 
 Vector    8  Occ=1.000000D+00  E=-1.397767D+00
              MO Center=  6.3D-07, -2.2D-06, -8.2D-01, r^2= 4.0D-01
   Bfn.  Coefficient  Atom+Function         Bfn.  Coefficient  Atom+Function  
  ----- ------------  ---------------      ----- ------------  ---------------
    10      0.828217  1 Ti px                 7     -0.347553  1 Ti px         
    13      0.264198  1 Ti px                11     -0.210753  1 Ti py         
     8      0.088440  1 Ti py                14     -0.067221  1 Ti py         
    16      0.059421  1 Ti px                49     -0.030784  1 Ti fxyy       
    46     -0.028413  1 Ti fxxx       
 
 Vector    9  Occ=1.000000D+00  E=-1.390228D+00
              MO Center= -9.8D-07,  2.1D-06, -8.2D-01, r^2= 4.0D-01
   Bfn.  Coefficient  Atom+Function         Bfn.  Coefficient  Atom+Function  
  ----- ------------  ---------------      ----- ------------  ---------------
    11      0.826677  1 Ti py                 8     -0.347090  1 Ti py         
    14      0.267743  1 Ti py                10      0.210351  1 Ti px         
     7     -0.088319  1 Ti px                13      0.068137  1 Ti px         
    17      0.058624  1 Ti py                47     -0.031429  1 Ti fxxy       
 
 Vector   10  Occ=1.000000D+00  E=-1.387341D+00
              MO Center= -3.0D-06, -3.3D-06, -8.2D-01, r^2= 4.0D-01
   Bfn.  Coefficient  Atom+Function         Bfn.  Coefficient  Atom+Function  
  ----- ------------  ---------------      ----- ------------  ---------------
    12      0.854379  1 Ti pz                 9     -0.358525  1 Ti pz         
    15      0.274493  1 Ti pz                18      0.061032  1 Ti pz         
    55     -0.030662  1 Ti fzzz       
 
 Vector   11  Occ=1.000000D+00  E=-6.920155D-01
              MO Center= -1.3D-06, -6.4D-07,  2.2D+00, r^2= 4.8D-01
   Bfn.  Coefficient  Atom+Function         Bfn.  Coefficient  Atom+Function  
  ----- ------------  ---------------      ----- ------------  ---------------
    84      0.428543  2 O  s                 83      0.401954  2 O  s          
    85      0.254322  2 O  s                 82     -0.249833  2 O  s          
    81     -0.106964  2 O  s          
 
 Vector   12  Occ=1.000000D+00  E=-1.771968D-01
              MO Center= -8.3D-05, -3.4D-05,  1.7D-01, r^2= 4.8D+00
   Bfn.  Coefficient  Atom+Function         Bfn.  Coefficient  Atom+Function  
  ----- ------------  ---------------      ----- ------------  ---------------
     5      0.575835  1 Ti s                  4     -0.268159  1 Ti s          
    88     -0.256988  2 O  pz                91     -0.215624  2 O  pz         
    94     -0.182490  2 O  pz                 3     -0.147284  1 Ti s          
     2      0.099855  1 Ti s                 39      0.094928  1 Ti dzz        
    43      0.085240  1 Ti dyy               22     -0.080074  1 Ti dxx        
 
 Vector   13  Occ=1.000000D+00  E=-1.682088D-01
              MO Center=  1.7D-05, -2.4D-05,  1.6D+00, r^2= 2.3D+00
   Bfn.  Coefficient  Atom+Function         Bfn.  Coefficient  Atom+Function  
  ----- ------------  ---------------      ----- ------------  ---------------
    24      0.400242  1 Ti dxz               86      0.402170  2 O  px         
    89      0.328509  2 O  px                92      0.282997  2 O  px         
    30      0.254579  1 Ti dxz               36      0.228703  1 Ti dxz        
    42      0.130844  1 Ti dxz               87     -0.112294  2 O  py         
    26     -0.106989  1 Ti dyz               90     -0.091711  2 O  py         
 
 Vector   14  Occ=1.000000D+00  E=-1.503871D-01
              MO Center= -2.7D-04,  1.6D-04, -2.7D-01, r^2= 2.6D+00
   Bfn.  Coefficient  Atom+Function         Bfn.  Coefficient  Atom+Function  
  ----- ------------  ---------------      ----- ------------  ---------------
    24      0.829816  1 Ti dxz               30      0.526395  1 Ti dxz        
    36      0.460674  1 Ti dxz               86     -0.215756  2 O  px         
    26     -0.198083  1 Ti dyz               89     -0.170569  2 O  px         
    92     -0.161471  2 O  px                32     -0.125714  1 Ti dyz        
    38     -0.109401  1 Ti dyz               42      0.091692  1 Ti dxz        
 
 Vector   15  Occ=1.000000D+00  E=-1.494635D-01
              MO Center=  2.8D-04, -1.1D-03, -3.5D-01, r^2= 2.6D+00
   Bfn.  Coefficient  Atom+Function         Bfn.  Coefficient  Atom+Function  
  ----- ------------  ---------------      ----- ------------  ---------------
    25      0.400062  1 Ti dyy               23      0.387443  1 Ti dxy        
    22     -0.305544  1 Ti dxx                6      0.282200  1 Ti s          
    31      0.263057  1 Ti dyy               29      0.245972  1 Ti dxy        
    37      0.232370  1 Ti dyy               35      0.222568  1 Ti dxy        
    88      0.188105  2 O  pz                28     -0.184990  1 Ti dxx        
 
 Vector   16  Occ=1.000000D+00  E=-1.447494D-01
              MO Center=  2.8D-04,  1.2D-03, -7.4D-01, r^2= 1.6D+00
   Bfn.  Coefficient  Atom+Function         Bfn.  Coefficient  Atom+Function  
  ----- ------------  ---------------      ----- ------------  ---------------
    26      0.879102  1 Ti dyz               32      0.554447  1 Ti dyz        
    38      0.517374  1 Ti dyz               24      0.212473  1 Ti dxz        
    44      0.182755  1 Ti dyz               30      0.133951  1 Ti dxz        
    36      0.125562  1 Ti dxz               87      0.084485  2 O  py         
    90      0.072770  2 O  py                93      0.061017  2 O  py         
 
 Vector   17  Occ=0.000000D+00  E=-1.397225D-01
              MO Center= -3.6D-04, -3.9D-04, -3.7D-02, r^2= 5.0D+00
   Bfn.  Coefficient  Atom+Function         Bfn.  Coefficient  Atom+Function  
  ----- ------------  ---------------      ----- ------------  ---------------
     6      0.578141  1 Ti s                 88      0.278076  2 O  pz         
    22      0.245630  1 Ti dxx                5      0.243047  1 Ti s          
    23     -0.230594  1 Ti dxy               91      0.230775  2 O  pz         
    94      0.208708  2 O  pz                 4     -0.203760  1 Ti s          
    28      0.190680  1 Ti dxx               21     -0.183279  1 Ti pz         
 
 Vector   18  Occ=0.000000D+00  E=-1.091178D-01
              MO Center= -1.6D-04, -1.3D-04, -8.3D-01, r^2= 1.2D+00
   Bfn.  Coefficient  Atom+Function         Bfn.  Coefficient  Atom+Function  
  ----- ------------  ---------------      ----- ------------  ---------------
    23      0.814748  1 Ti dxy               29      0.518585  1 Ti dxy        
    35      0.470416  1 Ti dxy               22      0.224336  1 Ti dxx        
    25     -0.223408  1 Ti dyy               41      0.195633  1 Ti dxy        
    28      0.142847  1 Ti dxx               31     -0.142208  1 Ti dyy        
    34      0.129512  1 Ti dxx               37     -0.129031  1 Ti dyy        
 
 Vector   19  Occ=0.000000D+00  E=-1.074191D-01
              MO Center=  1.4D-04,  1.0D-04,  1.9D+00, r^2= 2.1D+00
   Bfn.  Coefficient  Atom+Function         Bfn.  Coefficient  Atom+Function  
  ----- ------------  ---------------      ----- ------------  ---------------
    87      0.410519  2 O  py                93      0.347724  2 O  py         
    90      0.324372  2 O  py                20      0.231821  1 Ti py         
    26     -0.208420  1 Ti dyz               32     -0.131170  1 Ti dyz        
    38     -0.122400  1 Ti dyz               86      0.115073  2 O  px         
    92      0.097416  2 O  px                54      0.092144  1 Ti fyzz       
 
 Vector   20  Occ=0.000000D+00  E=-9.447103D-02
              MO Center=  2.9D-05, -3.5D-05, -1.0D+00, r^2= 2.0D+00
   Bfn.  Coefficient  Atom+Function         Bfn.  Coefficient  Atom+Function  
  ----- ------------  ---------------      ----- ------------  ---------------
    27      0.497502  1 Ti dzz               33      0.311774  1 Ti dzz        
    22     -0.283101  1 Ti dxx               39      0.281751  1 Ti dzz        
    21     -0.236375  1 Ti pz                25     -0.215735  1 Ti dyy        
     6      0.185729  1 Ti s                 28     -0.184334  1 Ti dxx        
    34     -0.164258  1 Ti dxx               37     -0.140244  1 Ti dyy        
 
 Vector   21  Occ=0.000000D+00  E=-5.077012D-02
              MO Center= -3.2D-05, -3.4D-05, -8.5D-01, r^2= 6.2D+00
   Bfn.  Coefficient  Atom+Function         Bfn.  Coefficient  Atom+Function  
  ----- ------------  ---------------      ----- ------------  ---------------
    20      0.902539  1 Ti py                17     -0.249490  1 Ti py         
    19      0.227979  1 Ti px                11     -0.214570  1 Ti py         
    44     -0.202220  1 Ti dyz               52      0.198379  1 Ti fyyy       
    54      0.186301  1 Ti fyzz              26      0.172898  1 Ti dyz        
    47      0.157855  1 Ti fxxy              87     -0.119135  2 O  py         
 
 Vector   22  Occ=0.000000D+00  E=-4.464436D-02
              MO Center=  3.5D-05,  1.1D-04, -1.0D+00, r^2= 6.2D+00
   Bfn.  Coefficient  Atom+Function         Bfn.  Coefficient  Atom+Function  
  ----- ------------  ---------------      ----- ------------  ---------------
    19      0.979992  1 Ti px                16     -0.407367  1 Ti px         
    51      0.269184  1 Ti fxzz              20     -0.248969  1 Ti py         
    46      0.230424  1 Ti fxxx              49      0.225661  1 Ti fxyy       
    10     -0.212615  1 Ti px                42     -0.197259  1 Ti dxz        
    24      0.125217  1 Ti dxz               17      0.103986  1 Ti py         
 
 Vector   23  Occ=0.000000D+00  E=-1.355229D-02
              MO Center= -9.5D-05, -4.6D-05, -5.5D-01, r^2= 6.4D+00
   Bfn.  Coefficient  Atom+Function         Bfn.  Coefficient  Atom+Function  
  ----- ------------  ---------------      ----- ------------  ---------------
    21      1.029548  1 Ti pz                18     -0.537041  1 Ti pz         
     5      0.457768  1 Ti s                 48      0.306201  1 Ti fxxz       
    53      0.306591  1 Ti fyyz              55      0.250355  1 Ti fzzz       
    94      0.203097  2 O  pz                12     -0.185969  1 Ti pz         
    27      0.184071  1 Ti dzz               88      0.179864  2 O  pz         
 
 Vector   24  Occ=0.000000D+00  E= 1.477792D-02
              MO Center= -5.3D-06, -3.2D-05, -1.0D+00, r^2= 1.9D+01
   Bfn.  Coefficient  Atom+Function         Bfn.  Coefficient  Atom+Function  
  ----- ------------  ---------------      ----- ------------  ---------------
     6     11.464691  1 Ti s                  5     -5.181808  1 Ti s          
    45     -3.043675  1 Ti dzz               40     -2.897120  1 Ti dxx        
    43     -2.891254  1 Ti dyy               18      0.476635  1 Ti pz         
    37     -0.371176  1 Ti dyy               34     -0.366627  1 Ti dxx        
    39     -0.343742  1 Ti dzz               55     -0.150416  1 Ti fzzz       
 
 Vector   25  Occ=0.000000D+00  E= 7.842014D-02
              MO Center= -4.6D-05,  1.5D-04, -8.2D-01, r^2= 9.3D+00
   Bfn.  Coefficient  Atom+Function         Bfn.  Coefficient  Atom+Function  
  ----- ------------  ---------------      ----- ------------  ---------------
    41      0.887268  1 Ti dxy               43      0.873606  1 Ti dyy        
    40     -0.736143  1 Ti dxx               23     -0.170732  1 Ti dxy        
    25     -0.160703  1 Ti dyy               22      0.149047  1 Ti dxx        
    34      0.149361  1 Ti dxx               35     -0.146856  1 Ti dxy        
     6     -0.139732  1 Ti s                 37     -0.117069  1 Ti dyy        
 
 Vector   26  Occ=0.000000D+00  E= 8.428613D-02
              MO Center= -1.0D-04, -3.8D-04, -8.2D-01, r^2= 9.3D+00
   Bfn.  Coefficient  Atom+Function         Bfn.  Coefficient  Atom+Function  
  ----- ------------  ---------------      ----- ------------  ---------------
    41      1.624726  1 Ti dxy               40      0.449445  1 Ti dxx        
    43     -0.446082  1 Ti dyy               23     -0.331051  1 Ti dxy        
    35     -0.322793  1 Ti dxy               29     -0.221265  1 Ti dxy        
    22     -0.091190  1 Ti dxx               25      0.091265  1 Ti dyy        
    37      0.089184  1 Ti dyy               34     -0.088730  1 Ti dxx        
 
 Vector   27  Occ=0.000000D+00  E= 9.065701D-02
              MO Center=  2.1D-04,  2.1D-04, -8.1D-01, r^2= 9.3D+00
   Bfn.  Coefficient  Atom+Function         Bfn.  Coefficient  Atom+Function  
  ----- ------------  ---------------      ----- ------------  ---------------
    42      1.824714  1 Ti dxz               44     -0.479080  1 Ti dyz        
    16      0.348389  1 Ti px                24     -0.318305  1 Ti dxz        
    36     -0.284544  1 Ti dxz               30     -0.211931  1 Ti dxz        
    92     -0.158794  2 O  px                51     -0.107976  1 Ti fxzz       
    86     -0.093478  2 O  px                17     -0.091421  1 Ti py         
 
 Vector   28  Occ=0.000000D+00  E= 9.265168D-02
              MO Center=  5.1D-05,  1.9D-04, -8.5D-01, r^2= 9.3D+00
   Bfn.  Coefficient  Atom+Function         Bfn.  Coefficient  Atom+Function  
  ----- ------------  ---------------      ----- ------------  ---------------
    44      1.827113  1 Ti dyz               42      0.479738  1 Ti dxz        
    17      0.438698  1 Ti py                26     -0.326155  1 Ti dyz        
    38     -0.298747  1 Ti dyz               32     -0.215134  1 Ti dyz        
    93     -0.191522  2 O  py                54     -0.145781  1 Ti fyzz       
    16      0.115207  1 Ti px                47     -0.113465  1 Ti fxxy       
 
 Vector   29  Occ=0.000000D+00  E= 1.093416D-01
              MO Center= -1.5D-04, -1.5D-04, -9.8D-01, r^2= 1.0D+01
   Bfn.  Coefficient  Atom+Function         Bfn.  Coefficient  Atom+Function  
  ----- ------------  ---------------      ----- ------------  ---------------
     6      2.755753  1 Ti s                 40     -1.469461  1 Ti dxx        
    43     -1.383625  1 Ti dyy               18      0.601835  1 Ti pz         
    85     -0.602435  2 O  s                 39     -0.485727  1 Ti dzz        
    45      0.452426  1 Ti dzz                4     -0.274782  1 Ti s          
     5     -0.270635  1 Ti s                 84     -0.270875  2 O  s          
 
 Vector   30  Occ=0.000000D+00  E= 1.669590D-01
              MO Center=  2.6D-04,  9.4D-04, -1.4D+00, r^2= 1.4D+01
   Bfn.  Coefficient  Atom+Function         Bfn.  Coefficient  Atom+Function  
  ----- ------------  ---------------      ----- ------------  ---------------
     6     14.607910  1 Ti s                 45     -4.880886  1 Ti dzz        
    40     -4.723490  1 Ti dxx               43     -4.726710  1 Ti dyy        
    18     -2.905916  1 Ti pz                 5     -2.040600  1 Ti s          
    34     -1.320343  1 Ti dxx               37     -1.314779  1 Ti dyy        
     4     -1.288006  1 Ti s                 39     -1.249830  1 Ti dzz        
 
 Vector   31  Occ=0.000000D+00  E= 1.685086D-01
              MO Center= -2.6D-04, -1.1D-03, -7.2D-01, r^2= 8.8D+00
   Bfn.  Coefficient  Atom+Function         Bfn.  Coefficient  Atom+Function  
  ----- ------------  ---------------      ----- ------------  ---------------
    17      5.577608  1 Ti py                20     -1.954685  1 Ti py         
    47     -1.793747  1 Ti fxxy              52     -1.740996  1 Ti fyyy       
    54     -1.718676  1 Ti fyzz              16      1.451966  1 Ti px         
    14     -1.218740  1 Ti py                19     -0.508768  1 Ti px         
    46     -0.469093  1 Ti fxxx              51     -0.447262  1 Ti fxzz       
 
 Vector   32  Occ=0.000000D+00  E= 1.738263D-01
              MO Center=  1.0D-05,  1.2D-04, -7.5D-01, r^2= 8.6D+00
   Bfn.  Coefficient  Atom+Function         Bfn.  Coefficient  Atom+Function  
  ----- ------------  ---------------      ----- ------------  ---------------
    16      5.623514  1 Ti px                19     -1.932937  1 Ti px         
    49     -1.792406  1 Ti fxyy              46     -1.781276  1 Ti fxxx       
    51     -1.702927  1 Ti fxzz              17     -1.463703  1 Ti py         
    13     -1.224174  1 Ti px                20      0.503187  1 Ti py         
    52      0.466835  1 Ti fyyy              47      0.456766  1 Ti fxxy       
 
 Vector   33  Occ=0.000000D+00  E= 1.896781D-01
              MO Center=  1.8D-04,  1.9D-04,  2.0D-01, r^2= 9.3D+00
   Bfn.  Coefficient  Atom+Function         Bfn.  Coefficient  Atom+Function  
  ----- ------------  ---------------      ----- ------------  ---------------
     6      7.511557  1 Ti s                 18      4.991565  1 Ti pz         
    45     -2.930545  1 Ti dzz               40     -2.404259  1 Ti dxx        
    43     -2.413244  1 Ti dyy               21     -1.977673  1 Ti pz         
    55     -1.567036  1 Ti fzzz              48     -1.542157  1 Ti fxxz       
    53     -1.544492  1 Ti fyyz              15     -1.085864  1 Ti pz         
 
 Vector   34  Occ=0.000000D+00  E= 4.527572D-01
              MO Center= -4.2D-04,  5.0D-05, -7.8D-01, r^2= 4.7D+00
   Bfn.  Coefficient  Atom+Function         Bfn.  Coefficient  Atom+Function  
  ----- ------------  ---------------      ----- ------------  ---------------
    36      2.418423  1 Ti dxz               42     -1.306972  1 Ti dxz        
    24     -0.725311  1 Ti dxz               38     -0.589247  1 Ti dyz        
    68     -0.386968  1 Ti gxxxz             73     -0.388231  1 Ti gxyyz      
    75     -0.385490  1 Ti gxzzz             44      0.318419  1 Ti dyz        
    16      0.279101  1 Ti px                30     -0.238587  1 Ti dxz        
 
 Vector   35  Occ=0.000000D+00  E= 4.528882D-01
              MO Center=  3.7D-04,  2.8D-04, -7.2D-01, r^2= 5.0D+00
   Bfn.  Coefficient  Atom+Function         Bfn.  Coefficient  Atom+Function  
  ----- ------------  ---------------      ----- ------------  ---------------
    37      1.128211  1 Ti dyy               35      1.101827  1 Ti dxy        
    34     -0.871486  1 Ti dxx               43     -0.605275  1 Ti dyy        
    41     -0.571290  1 Ti dxy               18      0.547975  1 Ti pz         
    39     -0.500149  1 Ti dzz               40      0.431563  1 Ti dxx        
     5      0.382616  1 Ti s                 25     -0.383216  1 Ti dyy        
 
 Vector   36  Occ=0.000000D+00  E= 4.550011D-01
              MO Center= -1.5D-04, -5.3D-04, -7.9D-01, r^2= 4.7D+00
   Bfn.  Coefficient  Atom+Function         Bfn.  Coefficient  Atom+Function  
  ----- ------------  ---------------      ----- ------------  ---------------
    38      2.419445  1 Ti dyz               44     -1.301141  1 Ti dyz        
    26     -0.734721  1 Ti dyz               36      0.590064  1 Ti dxz        
    70     -0.399031  1 Ti gxxyz             79     -0.396775  1 Ti gyzzz      
    77     -0.392730  1 Ti gyyyz             42     -0.317491  1 Ti dxz        
    17      0.261991  1 Ti py                32     -0.239626  1 Ti dyz        
 
 Vector   37  Occ=0.000000D+00  E= 4.654636D-01
              MO Center=  2.1D-04,  7.8D-05,  1.0D+00, r^2= 6.9D+00
   Bfn.  Coefficient  Atom+Function         Bfn.  Coefficient  Atom+Function  
  ----- ------------  ---------------      ----- ------------  ---------------
    18      1.488730  1 Ti pz                 5      1.164729  1 Ti s          
    85      0.946328  2 O  s                 39     -0.843658  1 Ti dzz        
     6     -0.831357  1 Ti s                 94      0.785723  2 O  pz         
    48     -0.754560  1 Ti fxxz              53     -0.680593  1 Ti fyyz       
    91     -0.650457  2 O  pz                83     -0.606928  2 O  s          
 
 Vector   38  Occ=0.000000D+00  E= 4.735068D-01
              MO Center=  1.2D-05, -2.7D-05, -8.7D-01, r^2= 4.5D+00
   Bfn.  Coefficient  Atom+Function         Bfn.  Coefficient  Atom+Function  
  ----- ------------  ---------------      ----- ------------  ---------------
    35      2.176589  1 Ti dxy               41     -1.100384  1 Ti dxy        
    23     -0.665937  1 Ti dxy               34      0.599649  1 Ti dxx        
    37     -0.599414  1 Ti dyy               67     -0.378503  1 Ti gxxxy      
    72     -0.369686  1 Ti gxyyy             74     -0.351894  1 Ti gxyzz      
    40     -0.303568  1 Ti dxx               43      0.302612  1 Ti dyy        
 
 Vector   39  Occ=0.000000D+00  E= 4.810349D-01
              MO Center=  7.7D-06, -1.5D-06,  8.6D-01, r^2= 6.6D+00
   Bfn.  Coefficient  Atom+Function         Bfn.  Coefficient  Atom+Function  
  ----- ------------  ---------------      ----- ------------  ---------------
    85      2.055399  2 O  s                  6     -1.470361  1 Ti s          
    39      1.294882  1 Ti dzz               83     -1.008892  2 O  s          
    40      0.846922  1 Ti dxx               43      0.702154  1 Ti dyy        
    84      0.662935  2 O  s                101     -0.640499  2 O  dxx        
   104     -0.640239  2 O  dyy              106     -0.572070  2 O  dzz        
 
 Vector   40  Occ=0.000000D+00  E= 4.900771D-01
              MO Center= -5.4D-05,  2.0D-05,  1.8D+00, r^2= 4.0D+00
   Bfn.  Coefficient  Atom+Function         Bfn.  Coefficient  Atom+Function  
  ----- ------------  ---------------      ----- ------------  ---------------
    92      1.329060  2 O  px                89     -0.987224  2 O  px         
    51      0.643615  1 Ti fxzz              42     -0.532694  1 Ti dxz        
    93     -0.370794  2 O  py                90      0.275383  2 O  py         
    86     -0.260569  2 O  px                19     -0.231632  1 Ti px         
    54     -0.178955  1 Ti fyzz             110      0.159315  2 O  fxyy       
 
 Vector   41  Occ=0.000000D+00  E= 5.085541D-01
              MO Center=  3.0D-05,  1.1D-04,  1.8D+00, r^2= 4.0D+00
   Bfn.  Coefficient  Atom+Function         Bfn.  Coefficient  Atom+Function  
  ----- ------------  ---------------      ----- ------------  ---------------
    93      1.303201  2 O  py                90     -1.018323  2 O  py         
    54      0.722103  1 Ti fyzz              44     -0.518773  1 Ti dyz        
    92      0.363714  2 O  px                89     -0.284230  2 O  px         
    87     -0.262136  2 O  py                20     -0.226543  1 Ti py         
    51      0.202177  1 Ti fxzz             113      0.164162  2 O  fyyy       
 
 Vector   42  Occ=0.000000D+00  E= 6.121640D-01
              MO Center= -2.5D-05, -4.1D-05,  3.7D-01, r^2= 5.2D+00
   Bfn.  Coefficient  Atom+Function         Bfn.  Coefficient  Atom+Function  
  ----- ------------  ---------------      ----- ------------  ---------------
     6      2.011346  1 Ti s                 18     -1.966853  1 Ti pz         
    55      1.226378  1 Ti fzzz              94     -1.227760  2 O  pz         
    85      1.104770  2 O  s                 39     -1.074863  1 Ti dzz        
    40     -0.770404  1 Ti dxx               43     -0.752955  1 Ti dyy        
    91      0.750205  2 O  pz                45     -0.550979  1 Ti dzz        
 
 Vector   43  Occ=0.000000D+00  E= 6.546199D-01
              MO Center= -2.1D-05, -1.9D-05, -7.6D-01, r^2= 2.5D+00
   Bfn.  Coefficient  Atom+Function         Bfn.  Coefficient  Atom+Function  
  ----- ------------  ---------------      ----- ------------  ---------------
    50     -1.843182  1 Ti fxyz              48      1.812371  1 Ti fxxz       
    53     -1.541078  1 Ti fyyz              18     -0.277874  1 Ti pz         
    55      0.122461  1 Ti fzzz              37     -0.083812  1 Ti dyy        
    15      0.082790  1 Ti pz                35     -0.067308  1 Ti dxy        
     5      0.061682  1 Ti s                 21      0.054929  1 Ti pz         
 
 Vector   44  Occ=0.000000D+00  E= 6.673127D-01
              MO Center= -1.5D-04, -1.0D-04, -7.5D-01, r^2= 2.5D+00
   Bfn.  Coefficient  Atom+Function         Bfn.  Coefficient  Atom+Function  
  ----- ------------  ---------------      ----- ------------  ---------------
    50      3.355591  1 Ti fxyz              48      0.921643  1 Ti fxxz       
    53     -0.922793  1 Ti fyyz              35      0.146349  1 Ti dxy        
    60      0.086389  1 Ti fxyz              41     -0.058024  1 Ti dxy        
    74     -0.048796  1 Ti gxyzz             34      0.040489  1 Ti dxx        
    37     -0.039843  1 Ti dyy               23     -0.038019  1 Ti dxy        
 
 Vector   45  Occ=0.000000D+00  E= 6.744258D-01
              MO Center=  1.2D-04, -4.0D-06, -7.6D-01, r^2= 3.6D+00
   Bfn.  Coefficient  Atom+Function         Bfn.  Coefficient  Atom+Function  
  ----- ------------  ---------------      ----- ------------  ---------------
    17      5.640846  1 Ti py                52     -3.221346  1 Ti fyyy       
    49     -1.958740  1 Ti fxyy              54     -1.939972  1 Ti fyzz       
    14     -1.561325  1 Ti py                47     -1.484009  1 Ti fxxy       
    16      1.417866  1 Ti px                20     -0.810845  1 Ti py         
    51     -0.484004  1 Ti fxzz              13     -0.392314  1 Ti px         
 
 Vector   46  Occ=0.000000D+00  E= 6.746272D-01
              MO Center=  1.1D-04,  2.3D-04, -8.2D-01, r^2= 2.7D+00
   Bfn.  Coefficient  Atom+Function         Bfn.  Coefficient  Atom+Function  
  ----- ------------  ---------------      ----- ------------  ---------------
    16      2.891225  1 Ti px                46     -1.867852  1 Ti fxxx       
    47      1.862834  1 Ti fxxy              51     -1.362934  1 Ti fxzz       
    13     -0.817441  1 Ti px                17     -0.676831  1 Ti py         
    19     -0.438644  1 Ti px                54      0.327040  1 Ti fyzz       
    49      0.301722  1 Ti fxyy              52     -0.210277  1 Ti fyyy       
 
 Vector   47  Occ=0.000000D+00  E= 6.912593D-01
              MO Center=  8.2D-05,  3.1D-04, -7.5D-01, r^2= 4.6D+00
   Bfn.  Coefficient  Atom+Function         Bfn.  Coefficient  Atom+Function  
  ----- ------------  ---------------      ----- ------------  ---------------
    17      8.167688  1 Ti py                54     -4.566104  1 Ti fyzz       
    47     -4.378831  1 Ti fxxy              52     -3.331882  1 Ti fyyy       
    14     -2.270111  1 Ti py                16      2.166577  1 Ti px         
    20     -1.264536  1 Ti py                51     -1.205854  1 Ti fxzz       
    46     -1.198156  1 Ti fxxx              13     -0.602127  1 Ti px         
 
 Vector   48  Occ=0.000000D+00  E= 6.922620D-01
              MO Center= -3.1D-06, -4.9D-06, -7.9D-01, r^2= 5.1D+00
   Bfn.  Coefficient  Atom+Function         Bfn.  Coefficient  Atom+Function  
  ----- ------------  ---------------      ----- ------------  ---------------
    16      9.261258  1 Ti px                51     -4.872318  1 Ti fxzz       
    49     -4.635330  1 Ti fxyy              46     -3.983851  1 Ti fxxx       
    13     -2.570893  1 Ti px                17     -2.437165  1 Ti py         
    19     -1.414233  1 Ti px                54      1.286688  1 Ti fyzz       
    52      1.240538  1 Ti fyyy              14      0.676555  1 Ti py         
 
 Vector   49  Occ=0.000000D+00  E= 7.103259D-01
              MO Center= -8.1D-05, -1.8D-04, -1.1D+00, r^2= 5.6D+00
   Bfn.  Coefficient  Atom+Function         Bfn.  Coefficient  Atom+Function  
  ----- ------------  ---------------      ----- ------------  ---------------
    18     10.615152  1 Ti pz                53     -4.920009  1 Ti fyyz       
    55     -4.891829  1 Ti fzzz              48     -4.814744  1 Ti fxxz       
     5     -3.775507  1 Ti s                  6     -3.469225  1 Ti s          
    15     -2.942127  1 Ti pz                39      1.760687  1 Ti dzz        
    21     -1.653125  1 Ti pz                34      1.547183  1 Ti dxx        
 
 Vector   50  Occ=0.000000D+00  E= 7.133291D-01
              MO Center= -9.0D-06, -1.5D-05, -4.7D-01, r^2= 3.7D+00
   Bfn.  Coefficient  Atom+Function         Bfn.  Coefficient  Atom+Function  
  ----- ------------  ---------------      ----- ------------  ---------------
    16      2.214058  1 Ti px                49     -1.742383  1 Ti fxyy       
    46     -1.595662  1 Ti fxxx              51      1.128002  1 Ti fxzz       
    13     -0.624056  1 Ti px                17     -0.583915  1 Ti py         
    92     -0.510115  2 O  px                52      0.460498  1 Ti fyyy       
    47      0.333824  1 Ti fxxy              89      0.320820  2 O  px         
 
 Vector   51  Occ=0.000000D+00  E= 7.157915D-01
              MO Center= -1.8D-05, -7.7D-05, -4.8D-01, r^2= 3.5D+00
   Bfn.  Coefficient  Atom+Function         Bfn.  Coefficient  Atom+Function  
  ----- ------------  ---------------      ----- ------------  ---------------
    47      1.812830  1 Ti fxxy              54     -1.464191  1 Ti fyzz       
    17     -1.081387  1 Ti py                52      0.799449  1 Ti fyyy       
    46      0.511212  1 Ti fxxx              93      0.504032  2 O  py         
    49     -0.441132  1 Ti fxyy              51     -0.387302  1 Ti fxzz       
    90     -0.333069  2 O  py                14      0.302683  1 Ti py         
 
 Vector   52  Occ=0.000000D+00  E= 8.328843D-01
              MO Center= -3.3D-05, -4.2D-05, -4.9D-02, r^2= 7.5D+00
   Bfn.  Coefficient  Atom+Function         Bfn.  Coefficient  Atom+Function  
  ----- ------------  ---------------      ----- ------------  ---------------
     5     14.011667  1 Ti s                  6     11.454077  1 Ti s          
    39     -6.194084  1 Ti dzz               34     -5.664216  1 Ti dxx        
    37     -5.674636  1 Ti dyy               45     -4.923245  1 Ti dzz        
    40     -4.402713  1 Ti dxx               43     -4.398832  1 Ti dyy        
     4     -4.299589  1 Ti s                 85      1.925665  2 O  s          
 
 Vector   53  Occ=0.000000D+00  E= 9.176254D-01
              MO Center=  5.8D-05,  7.1D-05, -2.1D-02, r^2= 8.9D+00
   Bfn.  Coefficient  Atom+Function         Bfn.  Coefficient  Atom+Function  
  ----- ------------  ---------------      ----- ------------  ---------------
     5     21.938229  1 Ti s                  6     13.321731  1 Ti s          
    34     -8.429978  1 Ti dxx               37     -8.428362  1 Ti dyy        
    39     -7.907136  1 Ti dzz                4     -6.042477  1 Ti s          
    40     -5.499509  1 Ti dxx               43     -5.501501  1 Ti dyy        
    45     -5.170715  1 Ti dzz               18      2.553675  1 Ti pz         
 
 Vector   54  Occ=0.000000D+00  E= 1.076999D+00
              MO Center= -9.3D-06, -9.4D-06, -8.4D-01, r^2= 7.8D+00
   Bfn.  Coefficient  Atom+Function         Bfn.  Coefficient  Atom+Function  
  ----- ------------  ---------------      ----- ------------  ---------------
     5     31.033594  1 Ti s                  6     12.403714  1 Ti s          
    34    -11.893785  1 Ti dxx               37    -11.884388  1 Ti dyy        
    39    -11.770927  1 Ti dzz                4    -10.020760  1 Ti s          
    40     -5.345505  1 Ti dxx               43     -5.347752  1 Ti dyy        
    45     -5.348732  1 Ti dzz               33     -1.201968  1 Ti dzz        
 
 Vector   55  Occ=0.000000D+00  E= 1.541436D+00
              MO Center=  2.1D-04,  7.4D-04,  2.0D+00, r^2= 1.4D+00
   Bfn.  Coefficient  Atom+Function         Bfn.  Coefficient  Atom+Function  
  ----- ------------  ---------------      ----- ------------  ---------------
   103      1.628887  2 O  dxz              105     -0.452420  2 O  dyz        
    68      0.440391  1 Ti gxxxz             73      0.429421  1 Ti gxyyz      
    75      0.358306  1 Ti gxzzz             51      0.260939  1 Ti fxzz       
    13     -0.232732  1 Ti px                24     -0.221686  1 Ti dxz        
    36     -0.196181  1 Ti dxz               42      0.150548  1 Ti dxz        
 
 Vector   56  Occ=0.000000D+00  E= 1.541587D+00
              MO Center= -2.1D-04, -7.3D-04,  2.2D+00, r^2= 7.8D-01
   Bfn.  Coefficient  Atom+Function         Bfn.  Coefficient  Atom+Function  
  ----- ------------  ---------------      ----- ------------  ---------------
   102      1.489137  2 O  dxy              101      0.450613  2 O  dxx        
   104     -0.450577  2 O  dyy               50     -0.053083  1 Ti fxyz       
    41     -0.047141  1 Ti dxy              103      0.042182  2 O  dxz        
 
 Vector   57  Occ=0.000000D+00  E= 1.552664D+00
              MO Center=  1.2D-04,  4.5D-04,  2.2D+00, r^2= 8.3D-01
   Bfn.  Coefficient  Atom+Function         Bfn.  Coefficient  Atom+Function  
  ----- ------------  ---------------      ----- ------------  ---------------
   102      0.894261  2 O  dxy              101     -0.789284  2 O  dxx        
   104      0.688390  2 O  dyy               18     -0.490232  1 Ti pz         
    48      0.313981  1 Ti fxxz              53      0.262779  1 Ti fyyz       
     5      0.243255  1 Ti s                 55      0.218228  1 Ti fzzz       
    34     -0.114675  1 Ti dxx              106      0.104300  2 O  dzz        
 
 Vector   58  Occ=0.000000D+00  E= 1.554156D+00
              MO Center= -1.2D-04, -4.5D-04,  2.0D+00, r^2= 1.4D+00
   Bfn.  Coefficient  Atom+Function         Bfn.  Coefficient  Atom+Function  
  ----- ------------  ---------------      ----- ------------  ---------------
   105      1.631017  2 O  dyz              103      0.452844  2 O  dxz        
    77      0.440117  1 Ti gyyyz             70      0.437829  1 Ti gxxyz      
    79      0.358177  1 Ti gyzzz             54      0.267729  1 Ti fyzz       
    14     -0.228455  1 Ti py                26     -0.222969  1 Ti dyz        
    38     -0.196989  1 Ti dyz               44      0.150476  1 Ti dyz        
 
 Vector   59  Occ=0.000000D+00  E= 1.603208D+00
              MO Center= -8.1D-06, -1.3D-05,  1.0D+00, r^2= 3.2D+00
   Bfn.  Coefficient  Atom+Function         Bfn.  Coefficient  Atom+Function  
  ----- ------------  ---------------      ----- ------------  ---------------
    18      3.997261  1 Ti pz                48     -2.355039  1 Ti fxxz       
    53     -2.359225  1 Ti fyyz              55     -1.899358  1 Ti fzzz       
     5     -1.733692  1 Ti s                106     -1.068029  2 O  dzz        
    84      0.877620  2 O  s                 37      0.794266  1 Ti dyy        
    34      0.777262  1 Ti dxx               39      0.594790  1 Ti dzz        
 
 Vector   60  Occ=0.000000D+00  E= 1.778925D+00
              MO Center= -4.2D-05,  4.0D-05, -8.2D-01, r^2= 1.8D+00
   Bfn.  Coefficient  Atom+Function         Bfn.  Coefficient  Atom+Function  
  ----- ------------  ---------------      ----- ------------  ---------------
    74      0.995003  1 Ti gxyzz             67      0.976907  1 Ti gxxxy      
    72      0.961978  1 Ti gxyyy             71     -0.922168  1 Ti gxxzz      
    76      0.888105  1 Ti gyyyy             78      0.884807  1 Ti gyyzz      
    66     -0.872376  1 Ti gxxxx             35     -0.807457  1 Ti dxy        
    37     -0.736967  1 Ti dyy               34      0.729251  1 Ti dxx        
 
 Vector   61  Occ=0.000000D+00  E= 1.785366D+00
              MO Center= -9.0D-06, -3.7D-05, -6.7D-01, r^2= 2.1D+00
   Bfn.  Coefficient  Atom+Function         Bfn.  Coefficient  Atom+Function  
  ----- ------------  ---------------      ----- ------------  ---------------
    68      1.932547  1 Ti gxxxz             75      1.895429  1 Ti gxzzz      
    73      1.870196  1 Ti gxyyz             36     -1.615881  1 Ti dxz        
    24     -1.036985  1 Ti dxz               70     -0.535860  1 Ti gxxyz      
    42      0.517512  1 Ti dxz               79     -0.486630  1 Ti gyzzz      
    77     -0.477519  1 Ti gyyyz             38      0.414811  1 Ti dyz        
 
 Vector   62  Occ=0.000000D+00  E= 1.795576D+00
              MO Center= -2.0D-05, -9.5D-05, -6.6D-01, r^2= 2.1D+00
   Bfn.  Coefficient  Atom+Function         Bfn.  Coefficient  Atom+Function  
  ----- ------------  ---------------      ----- ------------  ---------------
    70      1.913002  1 Ti gxxyz             77      1.918447  1 Ti gyyyz      
    79      1.892029  1 Ti gyzzz             38     -1.610594  1 Ti dyz        
    26     -1.039170  1 Ti dyz               44      0.517070  1 Ti dyz        
    73      0.495765  1 Ti gxyyz             68      0.490756  1 Ti gxxxz      
    75      0.485519  1 Ti gxzzz             36     -0.413347  1 Ti dxz        
 
 Vector   63  Occ=0.000000D+00  E= 1.807326D+00
              MO Center= -6.3D-05, -3.4D-05, -8.2D-01, r^2= 1.7D+00
   Bfn.  Coefficient  Atom+Function         Bfn.  Coefficient  Atom+Function  
  ----- ------------  ---------------      ----- ------------  ---------------
    74      1.878063  1 Ti gxyzz             72      1.748063  1 Ti gxyyy      
    67      1.738503  1 Ti gxxxy             35     -1.449681  1 Ti dxy        
    23     -0.963441  1 Ti dxy               71      0.517160  1 Ti gxxzz      
    78     -0.517198  1 Ti gyyzz             41      0.482746  1 Ti dxy        
[...]
 
 Vector   99  Occ=0.000000D+00  E= 5.160087D+00
              MO Center= -6.6D-06,  5.1D-06,  2.2D+00, r^2= 4.8D-01
   Bfn.  Coefficient  Atom+Function         Bfn.  Coefficient  Atom+Function  
  ----- ------------  ---------------      ----- ------------  ---------------
   110      1.763818  2 O  fxyy             108      1.483257  2 O  fxxy       
   112     -0.941556  2 O  fxzz              30      0.795225  1 Ti dxz        
   113     -0.603486  2 O  fyyy              68     -0.559774  1 Ti gxxxz      
    73     -0.560102  1 Ti gxyyz             75     -0.558699  1 Ti gxzzz      
   115      0.262786  2 O  fyzz              32     -0.222541  1 Ti dyz        
 
 Vector  100  Occ=0.000000D+00  E= 5.165357D+00
              MO Center= -2.2D-06, -3.7D-06,  2.2D+00, r^2= 4.4D-01
   Bfn.  Coefficient  Atom+Function         Bfn.  Coefficient  Atom+Function  
  ----- ------------  ---------------      ----- ------------  ---------------
   111      3.312935  2 O  fxyz             109      1.002671  2 O  fxxz       
   114     -1.002698  2 O  fyyz              29      0.151138  1 Ti dxy        
    67     -0.107044  1 Ti gxxxy             72     -0.107023  1 Ti gxyyy      
    74     -0.105742  1 Ti gxyzz             31     -0.046305  1 Ti dyy        
    28      0.046042  1 Ti dxx               23     -0.034706  1 Ti dxy        
 
 Vector  101  Occ=0.000000D+00  E= 5.175465D+00
              MO Center= -1.9D-06, -9.5D-06,  2.2D+00, r^2= 4.8D-01
   Bfn.  Coefficient  Atom+Function         Bfn.  Coefficient  Atom+Function  
  ----- ------------  ---------------      ----- ------------  ---------------
   108      1.654124  2 O  fxxy             110     -1.473690  2 O  fxyy       
   115     -1.134470  2 O  fyzz              32      0.714735  1 Ti dyz        
   107      0.570611  2 O  fxxx              70     -0.506163  1 Ti gxxyz      
    77     -0.505829  1 Ti gyyyz             79     -0.501351  1 Ti gyzzz      
   112     -0.316634  2 O  fxzz             113     -0.266970  2 O  fyyy       
 
 Vector  102  Occ=0.000000D+00  E= 5.201023D+00
              MO Center=  1.0D-06,  9.4D-07,  2.2D+00, r^2= 5.4D-01
   Bfn.  Coefficient  Atom+Function         Bfn.  Coefficient  Atom+Function  
  ----- ------------  ---------------      ----- ------------  ---------------
   112      2.172208  2 O  fxzz              30     -1.207344  1 Ti dxz        
   108      0.865703  2 O  fxxy              68      0.858184  1 Ti gxxxz      
    73      0.858579  1 Ti gxyyz             75      0.851008  1 Ti gxzzz      
   107     -0.713306  2 O  fxxx             115     -0.606241  2 O  fyzz       
    32      0.337820  1 Ti dyz               24      0.277847  1 Ti dxz        
 
 Vector  103  Occ=0.000000D+00  E= 5.218061D+00
              MO Center=  2.1D-06,  7.8D-06,  2.1D+00, r^2= 7.7D-01
   Bfn.  Coefficient  Atom+Function         Bfn.  Coefficient  Atom+Function  
  ----- ------------  ---------------      ----- ------------  ---------------
   109      1.985943  2 O  fxxz              33     -1.217486  1 Ti dzz        
   111     -0.994091  2 O  fxyz               5      0.965055  1 Ti s          
   116     -0.944668  2 O  fzzz              18      0.871368  1 Ti pz         
    80      0.802191  1 Ti gzzzz             69     -0.723005  1 Ti gxxyy      
    55     -0.656606  1 Ti fzzz              53     -0.573156  1 Ti fyyz       
 
 Vector  104  Occ=0.000000D+00  E= 5.655084D+00
              MO Center=  5.3D-06,  1.9D-05,  2.2D+00, r^2= 7.3D-01
   Bfn.  Coefficient  Atom+Function         Bfn.  Coefficient  Atom+Function  
  ----- ------------  ---------------      ----- ------------  ---------------
    90      2.573912  2 O  py               108     -1.964325  2 O  fxxy       
   115     -1.931153  2 O  fyzz             113     -1.888168  2 O  fyyy       
    89      0.718370  2 O  px                87      0.644421  2 O  py         
    93     -0.628241  2 O  py               107     -0.552557  2 O  fxxx       
   112     -0.538980  2 O  fxzz             110     -0.471520  2 O  fxyy       
 
 Vector  105  Occ=0.000000D+00  E= 5.716137D+00
              MO Center= -4.6D-05,  1.3D-05,  2.2D+00, r^2= 7.2D-01
   Bfn.  Coefficient  Atom+Function         Bfn.  Coefficient  Atom+Function  
  ----- ------------  ---------------      ----- ------------  ---------------
    89      2.562861  2 O  px               107     -1.931921  2 O  fxxx       
   112     -1.888101  2 O  fxzz             110     -1.862313  2 O  fxyy       
    90     -0.715293  2 O  py                86      0.647867  2 O  px         
    92     -0.624193  2 O  px               108      0.589890  2 O  fxxy       
   115      0.526967  2 O  fyzz             113      0.515822  2 O  fyyy       
 
 Vector  106  Occ=0.000000D+00  E= 5.731055D+00
              MO Center=  4.0D-05, -3.6D-05,  2.3D+00, r^2= 8.2D-01
   Bfn.  Coefficient  Atom+Function         Bfn.  Coefficient  Atom+Function  
  ----- ------------  ---------------      ----- ------------  ---------------
    91      2.753358  2 O  pz                84     -2.274570  2 O  s          
   109     -2.072955  2 O  fxxz             114     -1.987397  2 O  fyyz       
   116     -1.980343  2 O  fzzz              83      1.153551  2 O  s          
    94     -0.743303  2 O  pz                18     -0.734073  1 Ti pz         
    33      0.682808  1 Ti dzz               88      0.646893  2 O  pz         
 
 Vector  107  Occ=0.000000D+00  E= 6.141798D+00
              MO Center=  1.1D-06,  1.4D-05,  2.2D+00, r^2= 3.5D-01
   Bfn.  Coefficient  Atom+Function         Bfn.  Coefficient  Atom+Function  
  ----- ------------  ---------------      ----- ------------  ---------------
    99      1.942160  2 O  dyz              105     -1.004679  2 O  dyz        
    97      0.541968  2 O  dxz               32     -0.354402  1 Ti dyz        
    70      0.292184  1 Ti gxxyz             77      0.292256  1 Ti gyyyz      
   103     -0.280359  2 O  dxz               17     -0.267558  1 Ti py         
    79      0.264270  1 Ti gyzzz             47      0.160649  1 Ti fxxy       
 
 Vector  108  Occ=0.000000D+00  E= 6.151101D+00
              MO Center= -4.6D-06, -1.4D-05,  2.2D+00, r^2= 3.4D-01
   Bfn.  Coefficient  Atom+Function         Bfn.  Coefficient  Atom+Function  
  ----- ------------  ---------------      ----- ------------  ---------------
    84      3.132228  2 O  s                 83     -1.612160  2 O  s          
   101     -1.160414  2 O  dxx               98     -1.036959  2 O  dyy        
    96     -1.004135  2 O  dxy              106     -0.997469  2 O  dzz        
    95      0.622137  2 O  dxx              102      0.512479  2 O  dxy        
   104     -0.313663  2 O  dyy               33      0.275315  1 Ti dzz        
 
 Vector  109  Occ=0.000000D+00  E= 6.160499D+00
              MO Center=  3.6D-06,  2.6D-06,  2.2D+00, r^2= 3.2D-01
   Bfn.  Coefficient  Atom+Function         Bfn.  Coefficient  Atom+Function  
  ----- ------------  ---------------      ----- ------------  ---------------
    96      1.724706  2 O  dxy              102     -0.879907  2 O  dxy        
    95      0.521916  2 O  dxx               98     -0.521924  2 O  dyy        
   101     -0.266330  2 O  dxx              104      0.266214  2 O  dyy        
 
 Vector  110  Occ=0.000000D+00  E= 6.202154D+00
              MO Center=  6.2D-07, -3.3D-06,  2.2D+00, r^2= 3.5D-01
   Bfn.  Coefficient  Atom+Function         Bfn.  Coefficient  Atom+Function  
  ----- ------------  ---------------      ----- ------------  ---------------
    97      1.942273  2 O  dxz              103     -0.999928  2 O  dxz        
    99     -0.541999  2 O  dyz               30     -0.336756  1 Ti dxz        
    68      0.279436  1 Ti gxxxz             73      0.279563  1 Ti gxyyz      
   105      0.279034  2 O  dyz               16     -0.264324  1 Ti px         
    75      0.252036  1 Ti gxzzz             46      0.158572  1 Ti fxxx       
 
 Vector  111  Occ=0.000000D+00  E= 6.287464D+00
              MO Center=  2.5D-07,  1.0D-06,  2.2D+00, r^2= 5.2D-01
   Bfn.  Coefficient  Atom+Function         Bfn.  Coefficient  Atom+Function  
  ----- ------------  ---------------      ----- ------------  ---------------
    84     12.655405  2 O  s                 83     -6.615380  2 O  s          
   106     -3.907807  2 O  dzz              104     -3.139951  2 O  dyy        
   101     -2.900968  2 O  dxx               95     -0.970310  2 O  dxx        
    33      0.877846  1 Ti dzz              100      0.837140  2 O  dzz        
    80     -0.653442  1 Ti gzzzz             71     -0.586355  1 Ti gxxzz      
 
 Vector  112  Occ=0.000000D+00  E= 6.379097D+00
              MO Center=  5.6D-07,  4.5D-06,  2.2D+00, r^2= 7.3D-01
   Bfn.  Coefficient  Atom+Function         Bfn.  Coefficient  Atom+Function  
  ----- ------------  ---------------      ----- ------------  ---------------
    84     35.359318  2 O  s                 83    -18.615966  2 O  s          
   101     -9.629954  2 O  dxx              104     -9.620309  2 O  dyy        
   106     -9.243385  2 O  dzz              100     -1.005924  2 O  dzz        
    85      0.556655  2 O  s                 91      0.440279  2 O  pz         
    98     -0.387719  2 O  dyy               95     -0.362204  2 O  dxx        
 
 Vector  113  Occ=0.000000D+00  E= 1.642530D+01
              MO Center= -1.3D-10,  6.2D-09,  2.2D+00, r^2= 3.2D-01
   Bfn.  Coefficient  Atom+Function         Bfn.  Coefficient  Atom+Function  
  ----- ------------  ---------------      ----- ------------  ---------------
    84     14.284309  2 O  s                101     -4.152487  2 O  dxx        
   104     -4.153410  2 O  dyy              106     -4.136764  2 O  dzz        
    95     -3.175854  2 O  dxx               98     -3.173710  2 O  dyy        
   100     -3.183329  2 O  dzz               82     -1.841356  2 O  s          
    85      0.453529  2 O  s                 81     -0.230882  2 O  s          
 
 Vector  114  Occ=0.000000D+00  E= 3.287641D+01
              MO Center= -8.1D-08,  4.5D-08, -7.8D-01, r^2= 3.5D+00
   Bfn.  Coefficient  Atom+Function         Bfn.  Coefficient  Atom+Function  
  ----- ------------  ---------------      ----- ------------  ---------------
     4     65.607901  1 Ti s                 28    -30.812182  1 Ti dxx        
    31    -30.812970  1 Ti dyy               33    -30.664971  1 Ti dzz        
    69     23.846953  1 Ti gxxyy             71     23.661136  1 Ti gxxzz      
    78     23.661806  1 Ti gyyzz              3    -15.259865  1 Ti s          
    66     11.923169  1 Ti gxxxx             76     11.923901  1 Ti gyyyy      
 
 Vector  115  Occ=0.000000D+00  E= 3.773894D+01
              MO Center= -8.6D-10, -7.3D-09, -8.2D-01, r^2= 2.0D-01
   Bfn.  Coefficient  Atom+Function         Bfn.  Coefficient  Atom+Function  
  ----- ------------  ---------------      ----- ------------  ---------------
     3     35.039450  1 Ti s                 22    -19.378211  1 Ti dxx        
    25    -19.378109  1 Ti dyy               27    -19.378657  1 Ti dzz        
    69    -11.952018  1 Ti gxxyy             71    -11.957079  1 Ti gxxzz      
    78    -11.956632  1 Ti gyyzz             28     10.253183  1 Ti dxx        
    31     10.252598  1 Ti dyy               33     10.255622  1 Ti dzz        
 
 Vector  116  Occ=0.000000D+00  E= 7.157806D+01
              MO Center= -2.4D-12, -3.2D-11,  2.2D+00, r^2= 8.2D-02
   Bfn.  Coefficient  Atom+Function         Bfn.  Coefficient  Atom+Function  
  ----- ------------  ---------------      ----- ------------  ---------------
    83     10.572749  2 O  s                 84     -5.046628  2 O  s          
    82     -4.128107  2 O  s                 95     -2.631257  2 O  dxx        
    98     -2.631355  2 O  dyy              100     -2.634760  2 O  dzz        
    81      1.704890  2 O  s                106      0.765927  2 O  dzz        
   101      0.758125  2 O  dxx              104      0.758165  2 O  dyy        
 

   alpha - beta orbital overlaps 
   ----------------------------- 


   alpha      1      2      3      4      5      6      7      8      9     10
    beta      1      2      3      4      5      6      7      8      9     10
 overlap   1.000  1.000  1.000  1.000  1.000  1.000  1.000  1.000  1.000  1.000


   alpha     11     12     13     14     15     16     17     18     19     20
    beta     11     13     14     19     18     20     15     16     12     17
 overlap   0.999  0.703  0.912  0.904  0.726  0.958  0.685  1.000  0.941  0.787


   alpha     21     22     23     24     25     26     27     28     29     30
    beta     22     21     23     24     26     25     27     28     29     30
 overlap   0.968  0.988  0.960  0.973  0.981  1.000  0.983  0.974  0.969  0.896


   alpha     31     32     33     34     35     36     37     38     39     40
    beta     32     31     33     41     39     40     34     38     37     36
 overlap   0.991  0.995  0.884  0.994  0.937  0.996  0.830  1.000  0.870  0.995


   alpha     41     42     43     44     45     46     47     48     49     50
    beta     35     42     45     46     48     44     43     47     49     51
 overlap   0.983  0.982  0.998  1.000  0.780  0.994  0.617  0.855  0.989  0.845


   alpha     51     52     53     54     55     56     57     58     59     60
    beta     50     52     53     54     58     57     56     55     59     61
 overlap   0.817  0.980  0.988  0.996  0.997  1.000  0.952  0.996  0.948  0.997


   alpha     61     62     63     64     65     66     67     68     69     70
    beta     62     63     60     64     65     66     67     70     69     68
 overlap   0.975  0.948  1.000  0.978  0.953  0.988  0.982  1.000  0.987  0.997


   alpha     71     72     73     74     75     76     77     78     79     80
    beta     71     75     74     77     76     72     78     73     79     80
 overlap   0.998  0.976  0.858  0.951  0.772  0.955  0.976  0.771  0.858  0.914


   alpha     81     82     83     84     85     86     87     88     89     90
    beta     85     83     82     81     84     86     87     88     89     90
 overlap   0.996  1.000  0.920  0.810  0.919  0.810  0.996  1.000  1.000  1.000


   alpha     91     92     93     94     95     96     97     98     99    100
    beta     91     94     93     95     92     96     97    100     99     98
 overlap   0.999  0.998  0.966  0.994  1.000  0.961  0.949  1.000  0.988  0.984


   alpha    101    102    103    104    105    106    107    108    109    110
    beta    101    102    103    104    105    106    110    109    108    107
 overlap   0.955  0.988  0.986  1.000  1.000  1.000  1.000  1.000  0.924  1.000


   alpha    111    112    113    114    115    116
    beta    111    112    113    114    115    116
 overlap   0.905  0.981  1.000  1.000  1.000  1.000

     --------------------------
     Expectation value of S2:  
     --------------------------
      <S2> =      3.2897 (Exact =     2.0000)
 

 center of mass
 --------------
 x =   0.00000000 y =   0.00000000 z =  -0.04889303

 moments of inertia (a.u.)
 ------------------
         397.557101975774           0.000000000000           0.000000000000
           0.000000000000         397.557101975774           0.000000000000
           0.000000000000           0.000000000000           0.000000000000
 
     Multipole analysis of the density
     ---------------------------------
 
     L   x y z        total         alpha         beta         nuclear
     -   - - -        -----         -----         ----         -------
     0   0 0 0     -0.000000    -16.000000    -14.000000     30.000000
 
     1   1 0 0     -0.000369     -0.000397      0.000028      0.000000
     1   0 1 0     -0.000296     -0.000292     -0.000004      0.000000
     1   0 0 1     -2.379689      4.674732     -7.054421      0.000000
 
     2   2 0 0    -15.224691    -10.223823     -5.000868      0.000000
     2   1 1 0     -0.274533     -0.299676      0.025143      0.000000
     2   1 0 1      0.002005      0.001998      0.000006      0.000000
     2   0 2 0    -16.329716    -11.413786     -4.915930      0.000000
     2   0 1 1      0.003091      0.003126     -0.000036      0.000000
     2   0 0 2    -23.591021   -105.218057   -114.950605    196.577641
 

 Parallel integral file used      93 records with       0 large values


 Task  times  cpu:      827.9s     wall:      851.9s
 
 
                                NWChem Input Module
                                -------------------
 
 
 Summary of allocated global arrays
-----------------------------------
  No active global arrays



                         GA Statistics for process    0
                         ------------------------------

       create   destroy   get      put      acc     scatter   gather  read&inc
calls: 4031     4031     4.25e+04 3.03e+04 9254        0        0       59     
number of processes/call 1.53e+00 1.11e+00 2.04e+00 0.00e+00 0.00e+00
bytes total:             1.14e+09 3.01e+08 5.33e+08 0.00e+00 0.00e+00 4.72e+02
bytes remote:            4.01e+08 4.77e+07 1.99e+08 0.00e+00 0.00e+00 0.00e+00
Max memory consumed for GA by this process: 3553792 bytes
 
MA_summarize_allocated_blocks: starting scan ...
MA_summarize_allocated_blocks: scan completed: 0 heap blocks, 0 stack blocks
MA usage statistics:

	allocation statistics:
					      heap	     stack
					      ----	     -----
	current number of blocks	         0	         0
	maximum number of blocks	        21	        51
	current total bytes		         0	         0
	maximum total bytes		  95443552	  42758136
	maximum total K-bytes		     95444	     42759
	maximum total M-bytes		        96	        43
 
 
                                     CITATION
                                     --------
                Please cite the following reference when publishing
                           results obtained with NWChem:
 
                 M. Valiev, E.J. Bylaska, N. Govind, K. Kowalski,
              T.P. Straatsma, H.J.J. van Dam, D. Wang, J. Nieplocha,
                        E. Apra, T.L. Windus, W.A. de Jong
                 "NWChem: a comprehensive and scalable open-source
                  solution for large scale molecular simulations"
                      Comput. Phys. Commun. 181, 1477 (2010)
                           doi:10.1016/j.cpc.2010.04.018
 
                                      AUTHORS
                                      -------
          E. Apra, E. J. Bylaska, W. A. de Jong, N. Govind, K. Kowalski,
       T. P. Straatsma, M. Valiev, H. J. J. van Dam, D. Wang, T. L. Windus,
        J. Hammond, J. Autschbach, K. Bhaskaran-Nair, J. Brabec, K. Lopata,
    S. A. Fischer, S. Krishnamoorthy, M. Jacquelin, W. Ma, M. Klemm, O. Villa,
      Y. Chen, V. Anisimov, F. Aquino, S. Hirata, M. T. Hackler, V. Konjkov,
            D. Mejia-Rodriguez, T. Risthaus, M. Malagoli, A. Marenich,
   A. Otero-de-la-Roza, J. Mullin, P. Nichols, R. Peverati, J. Pittner, Y. Zhao,
        P.-D. Fan, A. Fonari, M. J. Williamson, R. J. Harrison, J. R. Rehr,
      M. Dupuis, D. Silverstein, D. M. A. Smith, J. Nieplocha, V. Tipparaju,
    M. Krishnan, B. E. Van Kuiken, A. Vazquez-Mayagoitia, L. Jensen, M. Swart,
      Q. Wu, T. Van Voorhis, A. A. Auer, M. Nooijen, L. D. Crosby, E. Brown,
      G. Cisneros, G. I. Fann, H. Fruchtl, J. Garza, K. Hirao, R. A. Kendall,
      J. A. Nichols, K. Tsemekhman, K. Wolinski, J. Anchell, D. E. Bernholdt,
      P. Borowski, T. Clark, D. Clerc, H. Dachsel, M. J. O. Deegan, K. Dyall,
    D. Elwood, E. Glendening, M. Gutowski, A. C. Hess, J. Jaffe, B. G. Johnson,
     J. Ju, R. Kobayashi, R. Kutteh, Z. Lin, R. Littlefield, X. Long, B. Meng,
      T. Nakajima, S. Niu, L. Pollack, M. Rosing, K. Glaesemann, G. Sandrone,
      M. Stave, H. Taylor, G. Thomas, J. H. van Lenthe, A. T. Wong, Z. Zhang.

 Total times  cpu:      828.2s     wall:      852.2s
