 argument  1 = /home/kohn/work/DATASETS/NWCHEM/rabeet/tm10/nwtpss/V2.nw
  NWChem w/ OpenMP: maximum threads =  1
                                         
                                         
 
 
              Northwest Computational Chemistry Package (NWChem) 6.8
              ------------------------------------------------------
 
 
                    Environmental Molecular Sciences Laboratory
                       Pacific Northwest National Laboratory
                                Richland, WA 99352
 
                              Copyright (c) 1994-2017
                       Pacific Northwest National Laboratory
                            Battelle Memorial Institute
 
             NWChem is an open-source computational chemistry package
                        distributed under the terms of the
                      Educational Community License (ECL) 2.0
             A copy of the license is included with this distribution
                              in the LICENSE.TXT file
 
                                  ACKNOWLEDGMENT
                                  --------------

            This software and its documentation were developed at the
            EMSL at Pacific Northwest National Laboratory, a multiprogram
            national laboratory, operated for the U.S. Department of Energy
            by Battelle under Contract Number DE-AC05-76RL01830. Support
            for this work was provided by the Department of Energy Office
            of Biological and Environmental Research, Office of Basic
            Energy Sciences, and the Office of Advanced Scientific Computing.


           Job information
           ---------------

    hostname        = kohn
    program         = nwchem
    date            = Thu Sep 27 16:42:17 2018

    compiled        = Wed_Sep_26_21:04:37_2018
    source          = /home/kohn/softwares/nwchem/nwchem-6.8
    nwchem branch   = 6.8
    nwchem revision = v6.8-47-gdf6c956
    ga revision     = ga-5.6.3
    use scalapack   = F
    input           = /home/kohn/work/DATASETS/NWCHEM/rabeet/tm10/nwtpss/V2.nw
    prefix          = V2.
    data base       = ./V2.db
    status          = startup
    nproc           =        4
    time left       =     -1s



           Memory information
           ------------------

    heap     =   13107198 doubles =    100.0 Mbytes
    stack    =   13107195 doubles =    100.0 Mbytes
    global   =   26214400 doubles =    200.0 Mbytes (distinct from heap & stack)
    total    =   52428793 doubles =    400.0 Mbytes
    verify   = yes
    hardfail = no 


           Directory information
           ---------------------
 
  0 permanent = .
  0 scratch   = .
 
 
 
 
                                NWChem Input Module
                                -------------------
 
 

 Scaling coordinates for geometry "geometry" by  1.889725989
 (inverse scale =  0.529177249)


          ------
          auto-z
          ------
 
 
                             Geometry "geometry" -> ""
                             -------------------------
 
 Output coordinates in angstroms (scale by  1.889725989 to convert to a.u.)
 
  No.       Tag          Charge          X              Y              Z
 ---- ---------------- ---------- -------------- -------------- --------------
    1 V                   23.0000     0.00000000     0.00000000     1.56552000
    2 V                   23.0000     0.00000000     0.00000000    -1.56552000
 
      Atomic Mass 
      ----------- 
 
      V                 50.944000
 

 Effective nuclear repulsion energy (a.u.)      89.4063201750

            Nuclear Dipole moment (a.u.) 
            ----------------------------
        X                 Y               Z
 ---------------- ---------------- ----------------
     0.0000000000     0.0000000000     0.0000000000
 


                                Z-matrix (autoz)
                                -------- 

 Units are Angstrom for bonds and degrees for angles
 
      Type          Name      I     J     K     L     M      Value
      ----------- --------  ----- ----- ----- ----- ----- ----------
    1 Stretch                  1     2                       3.13104
 
 
            XYZ format geometry
            -------------------
     2
 geometry
 V                     0.00000000     0.00000000     1.56552000
 V                     0.00000000     0.00000000    -1.56552000
 
 ==============================================================================
                                internuclear distances
 ------------------------------------------------------------------------------
       center one      |      center two      | atomic units |  angstroms
 ------------------------------------------------------------------------------
    2 V                |   1 V                |     5.91681  |     3.13104
 ------------------------------------------------------------------------------
                         number of included internuclear distances:          1
 ==============================================================================





 Summary of "ao basis" -> "" (cartesian)
 ------------------------------------------------------------------------------
       Tag                 Description            Shells   Functions and Types
 ---------------- ------------------------------  ------  ---------------------
 *                         def2-TZVPP                 on all atoms 


 
                                 NWChem DFT Module
                                 -----------------
 
 
                      Basis "ao basis" -> "ao basis" (cartesian)
                      -----
  V (Vanadium)
  ------------
            Exponent  Coefficients 
       -------------- ---------------------------------------------------------
  1 S  2.32340651E+05  0.000231
  1 S  3.48288412E+04  0.001789
  1 S  7.92654487E+03  0.009299
  1 S  2.24377330E+03  0.037761
  1 S  7.30593229E+02  0.122559
  1 S  2.62322196E+02  0.289635
  1 S  1.01704038E+02  0.410047
  1 S  4.00647846E+01  0.211136
 
  2 S  2.55240150E+02 -0.024458
  2 S  7.88046470E+01 -0.115272
  2 S  1.23405989E+01  0.551747
  2 S  5.17420192E+00  0.545045
 
  3 S  7.65138945E+00 -0.229676
  3 S  1.26397599E+00  0.716838
 
  4 S  5.38617617E-01  1.000000
 
  5 S  9.27192961E-02  1.000000
 
  6 S  3.49980552E-02  1.000000
 
  7 P  1.18423692E+03  0.002445
  7 P  2.80230752E+02  0.019643
  7 P  8.96436271E+01  0.090797
  7 P  3.32424113E+01  0.256508
  7 P  1.31445145E+01  0.408154
  7 P  5.29485341E+00  0.238604
 
  8 P  2.01755869E+01 -0.028241
  8 P  2.76058652E+00  0.555746
  8 P  1.10089009E+00  0.993199
 
  9 P  4.20133107E-01  1.000000
 
 10 P  1.60300000E-01  1.000000
 
 11 P  6.11900000E-02  1.000000
 
 12 D  4.38611349E+01  0.011487
 12 D  1.25160219E+01  0.068247
 12 D  4.33138550E+00  0.218378
 12 D  1.61388558E+00  0.392452
 
 13 D  5.87495740E-01  1.000000
 
 14 D  1.95157230E-01  1.000000
 
 15 D  6.50000000E-02  1.000000
 
 16 F  1.70800000E+00  1.000000
 
 17 F  3.98000000E-01  1.000000
 
 18 G  1.00900000E+00  1.000000
 


 Summary of "ao basis" -> "ao basis" (cartesian)
 ------------------------------------------------------------------------------
       Tag                 Description            Shells   Functions and Types
 ---------------- ------------------------------  ------  ---------------------
 V                         def2-TZVPP               18       80   6s5p4d2f1g




 Summary of "ao basis" -> "ao basis" (cartesian)
 ------------------------------------------------------------------------------
       Tag                 Description            Shells   Functions and Types
 ---------------- ------------------------------  ------  ---------------------
 V                         def2-TZVPP               18       80   6s5p4d2f1g


  Caching 1-el integrals 
 
            General Information
            -------------------
          SCF calculation type: DFT
          Wavefunction type:  spin polarized.
          No. of atoms     :     2
          No. of electrons :    46
           Alpha electrons :    24
            Beta electrons :    22
          Charge           :     0
          Spin multiplicity:     3
          Use of symmetry is: off; symmetry adaption is: off
          Maximum number of iterations: ***
          AO basis - number of functions:   160
                     number of shells:    36
          Convergence on energy requested:  1.00D-06
          Convergence on density requested:  1.00D-05
          Convergence on gradient requested:  5.00D-04
 
              XC Information
              --------------
                  TPSS metaGGA Exchange Functional  1.000          
             TPSS03 metaGGA Correlation Functional  1.000          
 
             Grid Information
             ----------------
          Grid used for XC integration:  medium    
          Radial quadrature: Mura-Knowles        
          Angular quadrature: Lebedev. 
          Tag              B.-S. Rad. Rad. Pts. Rad. Cut. Ang. Pts.
          ---              ---------- --------- --------- ---------
          V                   1.35      112          13.0       590
          Grid pruning is: on 
          Number of quadrature shells:   224
          Spatial weights used:  Erf1
 
          Convergence Information
          -----------------------
          Convergence aids based upon iterative change in 
          total energy or number of iterations. 
          Levelshifting, if invoked, occurs when the 
          HOMO/LUMO gap drops below (HL_TOL):  1.00D-02
          DIIS, if invoked, will attempt to extrapolate 
          using up to (NFOCK): 10 stored Fock matrices.

                    Damping( 0%)  Levelshifting(0.5)       DIIS
                  --------------- ------------------- ---------------
          dE  on:    start            ASAP                start   
          dE off:    2 iters        *** iters           *** iters 

 
      Screening Tolerance Information
      -------------------------------
          Density screening/tol_rho:  1.00D-10
          AO Gaussian exp screening on grid/accAOfunc:  14
          CD Gaussian exp screening on grid/accCDfunc:  20
          XC Gaussian exp screening on grid/accXCfunc:  20
          Schwarz screening/accCoul:  1.00D-08

 
      Superposition of Atomic Density Guess
      -------------------------------------
 
 Sum of atomic energies:       -1885.60586382
 
      Non-variational initial energy
      ------------------------------

 Total energy =   -1884.319198
 1-e energy   =   -2766.823661
 2-e energy   =     793.098143
 HOMO         =      -0.043373
 LUMO         =      -0.020454
 
   Time after variat. SCF:      6.5
   Time prior to 1st pass:      6.6

 Integral file          = ./V2.aoints.0
 Record size in doubles =    65536    No. of integs per rec  =    43688
 Max. records in memory =        0    Max. records in file   =  1479058
 No. of bits per label  =        8    No. of bits per value  =       64


 #quartets = 1.829D+05 #integrals = 1.436D+07 #direct =  0.0% #cached =100.0%


File balance: exchanges=     4  moved=    11  time=   0.0


 Grid_pts file          = ./V2.gridpts.0
 Record size in doubles =  12289        No. of grid_pts per rec  =   3070
 Max. records in memory =     13        Max. recs in file   =   7887672


           Memory utilization after 1st SCF pass: 
           Heap Space remaining (MW):       12.94            12939878
          Stack Space remaining (MW):       13.11            13105836

   convergence    iter        energy       DeltaE   RMS-Dens  Diis-err    time
 ---------------- ----- ----------------- --------- --------- ---------  ------
 d= 0,ls=0.0,diis     1  -1887.3065490887 -1.98D+03  2.56D-02  1.21D+00    13.4
                                                     2.24D-02  8.69D-01
 d= 0,ls=0.0,diis     2  -1884.4802577788  2.83D+00  1.55D-02  1.08D+01    16.7
                                                     1.84D-02  9.17D+00
 d= 0,ls=0.5,diis     3  -1886.7187739100 -2.24D+00  1.90D-03  2.99D+00    22.0
                                                     1.31D-03  2.50D+00
 d= 0,ls=0.5,diis     4  -1887.0546613259 -3.36D-01  2.45D-03  1.74D+00    26.7
                                                     1.55D-03  1.43D+00
 d= 0,ls=0.5,diis     5  -1887.3759522244 -3.21D-01  2.59D-03  7.36D-01    31.9
                                                     1.62D-03  6.02D-01
 d= 0,ls=0.5,diis     6  -1887.5866633116 -2.11D-01  1.67D-03  1.73D-01    37.2
                                                     1.05D-03  1.38D-01
 d= 0,ls=0.5,diis     7  -1887.6597290653 -7.31D-02  1.19D-03  5.57D-02    41.8
                                                     7.96D-04  4.38D-02
  Resetting Diis
 d= 0,ls=0.5,diis     8  -1887.7000008709 -4.03D-02  8.23D-04  1.86D-02    46.7
                                                     5.95D-04  1.45D-02
 d= 0,ls=0.5,diis     9  -1887.7216316145 -2.16D-02  1.29D-03  1.61D-02    51.2
                                                     9.06D-04  1.31D-02
 d= 0,ls=0.5,diis    10  -1887.7403631518 -1.87D-02  6.80D-04  3.35D-02    55.2
                                                     5.62D-04  2.84D-02
 d= 0,ls=0.5,diis    11  -1887.7552128488 -1.48D-02  6.19D-04  2.26D-02    60.8
                                                     4.79D-04  1.81D-02
 d= 0,ls=0.5,diis    12  -1887.7681590472 -1.29D-02  7.68D-04  1.04D-02    65.5
                                                     5.09D-04  8.12D-03
 d= 0,ls=0.5,diis    13  -1887.7776896855 -9.53D-03  6.00D-04  1.85D-03    69.5
                                                     4.17D-04  1.74D-03
 d= 0,ls=0.5,diis    14  -1887.7826251256 -4.94D-03  4.92D-04  2.70D-03    74.3
                                                     3.58D-04  2.66D-03
 d= 0,ls=0.5,diis    15  -1887.7858014327 -3.18D-03  4.00D-04  4.74D-03    79.9
                                                     2.93D-04  4.37D-03
 d= 0,ls=0.5,diis    16  -1887.7882977326 -2.50D-03  3.14D-04  5.62D-03    87.4
                                                     2.50D-04  4.99D-03
 d= 0,ls=0.5,diis    17  -1887.7907261779 -2.43D-03  2.44D-04  4.89D-03    91.3
                                                     2.06D-04  4.29D-03
 d= 0,ls=0.5,diis    18  -1887.7928399402 -2.11D-03  2.13D-04  3.88D-03    96.5
                                                     1.87D-04  3.39D-03
 d= 0,ls=0.5,diis    19  -1887.7945026315 -1.66D-03  1.84D-04  3.29D-03   102.4
                                                     1.70D-04  2.87D-03
 d= 0,ls=0.5,diis    20  -1887.7960890391 -1.59D-03  1.74D-04  2.16D-03   107.9
                                                     1.62D-04  1.91D-03
 d= 0,ls=0.5,diis    21  -1887.7972789854 -1.19D-03  1.66D-04  1.66D-03   114.2
                                                     1.60D-04  1.48D-03
 d= 0,ls=0.5,diis    22  -1887.7983309888 -1.05D-03  1.57D-04  1.11D-03   119.3
                                                     1.44D-04  1.02D-03
 d= 0,ls=0.5,diis    23  -1887.7991957458 -8.65D-04  1.49D-04  7.06D-04   124.5
                                                     1.34D-04  6.72D-04
 d= 0,ls=0.5,diis    24  -1887.7998668894 -6.71D-04  1.47D-04  5.53D-04   129.6
                                                     1.31D-04  5.33D-04
 d= 0,ls=0.5,diis    25  -1887.8004235128 -5.57D-04  1.45D-04  4.81D-04   134.5
                                                     1.30D-04  4.65D-04
 d= 0,ls=0.5,diis    26  -1887.8009196847 -4.96D-04  1.42D-04  4.13D-04   139.6
                                                     1.29D-04  4.03D-04
 d= 0,ls=0.5,diis    27  -1887.8013745193 -4.55D-04  1.38D-04  3.47D-04   144.9
                                                     1.25D-04  3.46D-04
 d= 0,ls=0.5,diis    28  -1887.8017991419 -4.25D-04  1.35D-04  2.68D-04   149.1
                                                     1.23D-04  2.77D-04
 d= 0,ls=0.5,diis    29  -1887.8021936036 -3.94D-04  1.35D-04  2.06D-04   154.6
                                                     1.26D-04  2.25D-04
 d= 0,ls=0.5,diis    30  -1887.8025626738 -3.69D-04  1.29D-04  1.88D-04   160.2
                                                     1.17D-04  2.12D-04
 d= 0,ls=0.5,diis    31  -1887.8029077675 -3.45D-04  1.25D-04  1.38D-04   166.1
                                                     1.11D-04  1.68D-04
 d= 0,ls=0.5,diis    32  -1887.8032239627 -3.16D-04  1.21D-04  1.11D-04   171.7
                                                     1.07D-04  1.44D-04
 d= 0,ls=0.5,diis    33  -1887.8035184938 -2.95D-04  1.26D-04  9.72D-05   177.6
                                                     1.20D-04  1.31D-04
 d= 0,ls=0.5,diis    34  -1887.8038388242 -3.20D-04  1.22D-04  6.26D-05   182.3
                                                     1.20D-04  1.12D-04
 d= 0,ls=0.5,diis    35  -1887.8041501434 -3.11D-04  1.19D-04  5.43D-05   188.2
                                                     1.18D-04  1.08D-04
 d= 0,ls=0.5,diis    36  -1887.8044518132 -3.02D-04  1.18D-04  5.04D-05   193.8
                                                     1.20D-04  1.07D-04
 d= 0,ls=0.5,diis    37  -1887.8047566936 -3.05D-04  1.14D-04  4.68D-05   199.3
                                                     1.18D-04  1.07D-04
 d= 0,ls=0.5,diis    38  -1887.8050524270 -2.96D-04  1.13D-04  4.88D-05   204.5
                                                     1.20D-04  1.10D-04
 d= 0,ls=0.5,diis    39  -1887.8053531787 -3.01D-04  1.12D-04  4.73D-05   208.9
                                                     1.25D-04  1.13D-04
 d= 0,ls=0.5,diis    40  -1887.8056641945 -3.11D-04  1.06D-04  4.84D-05   214.7
                                                     1.22D-04  1.17D-04
 d= 0,ls=0.5,diis    41  -1887.8059611379 -2.97D-04  1.03D-04  4.99D-05   219.6
                                                     1.17D-04  1.21D-04
 d= 0,ls=0.5,diis    42  -1887.8062376821 -2.77D-04  1.09D-04  7.27D-05   225.0
                                                     1.32D-04  1.40D-04
 d= 0,ls=0.5,diis    43  -1887.8065574917 -3.20D-04  1.05D-04  6.46D-05   230.3
                                                     1.17D-04  1.33D-04
 d= 0,ls=0.5,diis    44  -1887.8067952965 -2.38D-04  9.40D-05  1.44D-04   235.7
                                                     1.13D-04  1.91D-04
 d= 0,ls=0.5,diis    45  -1887.8070532770 -2.58D-04  9.06D-05  1.55D-04   240.5
                                                     1.16D-04  2.05D-04
 d= 0,ls=0.5,diis    46  -1887.8073219180 -2.69D-04  1.00D-04  1.33D-04   245.3
                                                     1.10D-04  1.99D-04
 d= 0,ls=0.5,diis    47  -1887.8074429868 -1.21D-04  1.02D-04  4.73D-04   250.5
                                                     1.03D-04  4.29D-04
 d= 0,ls=0.5,diis    48  -1887.8074957245 -5.27D-05  9.13D-05  9.65D-04   255.6
                                                     9.96D-05  7.38D-04
 d= 0,ls=0.5,diis    49  -1887.8076177333 -1.22D-04  8.98D-05  1.12D-03   260.6
                                                     1.00D-04  8.44D-04
 d= 0,ls=0.5,diis    50  -1887.8077193688 -1.02D-04  8.83D-05  1.34D-03   265.8
                                                     1.02D-04  9.95D-04
 d= 0,ls=0.5,diis    51  -1887.8079300560 -2.11D-04  8.63D-05  1.23D-03   270.5
                                                     1.05D-04  9.06D-04
 d= 0,ls=0.5,diis    52  -1887.8081821475 -2.52D-04  1.39D-04  1.02D-03   275.3
                                                     1.41D-04  7.76D-04
 d= 0,ls=0.5,diis    53  -1887.8086833121 -5.01D-04  1.39D-04  1.92D-04   280.9
                                                     1.55D-04  2.19D-04
 d= 0,ls=0.5,diis    54  -1887.8090638623 -3.81D-04  9.73D-05  7.28D-05   285.2
                                                     1.34D-04  1.44D-04
 d= 0,ls=0.5,diis    55  -1887.8093610797 -2.97D-04  1.03D-04  4.75D-05   290.0
                                                     1.36D-04  1.37D-04
 d= 0,ls=0.5,diis    56  -1887.8096349117 -2.74D-04  1.21D-04  1.45D-04   295.3
                                                     1.48D-04  2.15D-04
 d= 0,ls=0.5,diis    57  -1887.8098634873 -2.29D-04  1.03D-04  4.94D-04   299.5
                                                     1.41D-04  4.68D-04
 d= 0,ls=0.5,diis    58  -1887.8101098223 -2.46D-04  9.26D-05  6.56D-04   304.4
                                                     1.35D-04  5.95D-04
 d= 0,ls=0.5,diis    59  -1887.8103637944 -2.54D-04  8.79D-05  7.27D-04   309.9
                                                     1.23D-04  6.56D-04
 d= 0,ls=0.5,diis    60  -1887.8107394819 -3.76D-04  8.04D-05  1.56D-04   314.8
                                                     1.27D-04  2.32D-04
 d= 0,ls=0.5,diis    61  -1887.8110071441 -2.68D-04  8.02D-05  2.15D-04   320.8
                                                     1.14D-04  2.57D-04
 d= 0,ls=0.5,diis    62  -1887.8112586620 -2.52D-04  8.06D-05  3.27D-05   327.0
                                                     1.27D-04  1.16D-04
 d= 0,ls=0.5,diis    63  -1887.8115067744 -2.48D-04  1.16D-04  4.68D-05   332.6
                                                     1.51D-04  1.25D-04
 d= 0,ls=0.5,diis    64  -1887.8117340664 -2.27D-04  9.12D-05  3.74D-04   337.7
                                                     1.40D-04  3.05D-04
 d= 0,ls=0.5,diis    65  -1887.8119905558 -2.56D-04  8.49D-05  4.22D-04   342.7
                                                     1.35D-04  3.34D-04
 d= 0,ls=0.5,diis    66  -1887.8122503379 -2.60D-04  7.85D-05  3.88D-04   347.9
                                                     1.28D-04  3.17D-04
 d= 0,ls=0.5,diis    67  -1887.8125110774 -2.61D-04  8.04D-05  2.82D-04   353.1
                                                     1.23D-04  2.53D-04
 d= 0,ls=0.5,diis    68  -1887.8127576900 -2.47D-04  7.91D-05  2.25D-04   358.4
                                                     1.20D-04  2.17D-04
 d= 0,ls=0.5,diis    69  -1887.8129970781 -2.39D-04  6.99D-05  1.25D-04   363.4
                                                     1.12D-04  1.58D-04
 d= 0,ls=0.5,diis    70  -1887.8132137994 -2.17D-04  7.69D-05  5.35D-05   368.6
                                                     1.15D-04  1.11D-04
 d= 0,ls=0.5,diis    71  -1887.8134205287 -2.07D-04  7.33D-05  4.75D-05   373.4
                                                     1.11D-04  1.01D-04
 d= 0,ls=0.5,diis    72  -1887.8136179732 -1.97D-04  6.89D-05  2.70D-05   378.2
                                                     1.06D-04  8.40D-05
 d= 0,ls=0.5,diis    73  -1887.8138025647 -1.85D-04  6.37D-05  2.08D-05   382.1
                                                     1.01D-04  7.37D-05
 d= 0,ls=0.5,diis    74  -1887.8139700581 -1.67D-04  5.86D-05  2.94D-05   387.4
                                                     9.27D-05  7.00D-05
 d= 0,ls=0.5,diis    75  -1887.8141182901 -1.48D-04  5.30D-05  5.34D-05   392.6
                                                     8.64D-05  7.75D-05
 d= 0,ls=0.5,diis    76  -1887.8142429151 -1.25D-04  4.79D-05  1.07D-04   398.6
                                                     8.25D-05  1.00D-04
 d= 0,ls=0.5,diis    77  -1887.8143560236 -1.13D-04  4.54D-05  1.62D-04   403.0
                                                     7.81D-05  1.23D-04
 d= 0,ls=0.5,diis    78  -1887.8144592074 -1.03D-04  4.52D-05  2.16D-04   407.6
                                                     7.55D-05  1.43D-04
 d= 0,ls=0.5,diis    79  -1887.8145683369 -1.09D-04  4.60D-05  2.23D-04   412.2
                                                     7.26D-05  1.41D-04
 d= 0,ls=0.5,diis    80  -1887.8146722814 -1.04D-04  4.92D-05  2.42D-04   417.6
                                                     7.23D-05  1.46D-04
 d= 0,ls=0.5,diis    81  -1887.8147819043 -1.10D-04  4.90D-05  2.45D-04   422.7
                                                     6.98D-05  1.45D-04
 d= 0,ls=0.5,diis    82  -1887.8148862549 -1.04D-04  5.01D-05  2.66D-04   428.4
                                                     7.08D-05  1.52D-04
 d= 0,ls=0.5,diis    83  -1887.8149933909 -1.07D-04  4.83D-05  2.90D-04   433.6
                                                     6.30D-05  1.55D-04
 d= 0,ls=0.5,diis    84  -1887.8150653247 -7.19D-05  4.72D-05  4.06D-04   437.7
                                                     6.20D-05  2.16D-04
 d= 0,ls=0.5,diis    85  -1887.8151386656 -7.33D-05  4.49D-05  4.90D-04   441.9
                                                     6.02D-05  2.64D-04
 d= 0,ls=0.5,diis    86  -1887.8152139477 -7.53D-05  4.04D-05  5.50D-04   447.6
                                                     5.55D-05  2.97D-04
 d= 0,ls=0.5,diis    87  -1887.8152723511 -5.84D-05  4.14D-05  6.33D-04   453.3
                                                     5.23D-05  3.47D-04
 d= 0,ls=0.5,diis    88  -1887.8152499650  2.24D-05  3.71D-05  9.18D-04   458.2
                                                     5.31D-05  4.92D-04
 d= 0,ls=0.5,diis    89  -1887.8153270586 -7.71D-05  3.18D-05  8.26D-04   463.4
                                                     4.83D-05  4.50D-04
 d= 0,ls=0.5,diis    90  -1887.8153762437 -4.92D-05  3.01D-05  8.70D-04   468.1
                                                     4.61D-05  4.80D-04
 d= 0,ls=0.5,diis    91  -1887.8154176119 -4.14D-05  7.03D-05  9.23D-04   473.6
                                                     6.16D-05  5.18D-04
 d= 0,ls=0.5,diis    92  -1887.8155749988 -1.57D-04  8.57D-05  6.33D-04   480.3
                                                     6.82D-05  3.98D-04
 d= 0,ls=0.5,diis    93  -1887.8157440130 -1.69D-04  7.70D-05  4.68D-04   485.6
                                                     6.35D-05  3.37D-04
 d= 0,ls=0.5,diis    94  -1887.8158789873 -1.35D-04  7.02D-05  4.52D-04   490.0
                                                     5.40D-05  3.57D-04
 d= 0,ls=0.5,diis    95  -1887.8159873510 -1.08D-04  7.07D-05  4.85D-04   496.9
                                                     5.23D-05  4.10D-04
 d= 0,ls=0.5,diis    96  -1887.8161042755 -1.17D-04  6.30D-05  4.76D-04   502.3
                                                     4.46D-05  4.34D-04
 d= 0,ls=0.5,diis    97  -1887.8161773264 -7.31D-05  6.01D-05  5.74D-04   509.4
                                                     4.62D-05  5.25D-04
 d= 0,ls=0.5,diis    98  -1887.8162518826 -7.46D-05  7.04D-05  6.53D-04   513.3
                                                     6.57D-05  5.88D-04
 d= 0,ls=0.5,diis    99  -1887.8163990134 -1.47D-04  6.80D-05  5.91D-04   517.4
                                                     6.34D-05  5.41D-04
 d= 0,ls=0.5,diis   100  -1887.8165400655 -1.41D-04  1.37D-04  5.74D-04   521.7
                                                     1.05D-04  5.26D-04
 d= 0,ls=0.5,diis   101  -1887.8168634690 -3.23D-04  7.04D-05  1.57D-04   527.1
                                                     4.77D-05  2.81D-04
 d= 0,ls=0.5,diis   102  -1887.8169018789 -3.84D-05  5.67D-05  3.18D-04   533.0
                                                     3.82D-05  3.94D-04
 d= 0,ls=0.5,diis   103  -1887.8168916744  1.02D-05  4.71D-05  4.30D-04   538.4
                                                     3.09D-05  4.72D-04
 d= 0,ls=0.5,diis   104  -1887.8168964107 -4.74D-06  5.43D-05  4.60D-04   543.4
                                                     3.73D-05  4.96D-04
 d= 0,ls=0.5,diis   105  -1887.8169620166 -6.56D-05  5.25D-05  3.61D-04   547.9
                                                     3.57D-05  4.39D-04
 d= 0,ls=0.5,diis   106  -1887.8170387062 -7.67D-05  8.56D-05  3.21D-04   553.9
                                                     1.09D-04  4.02D-04
 d= 0,ls=0.5,diis   107  -1887.8172802176 -2.42D-04  6.09D-05  2.15D-04   558.6
                                                     6.73D-05  2.09D-04
 d= 0,ls=0.5,diis   108  -1887.8173923176 -1.12D-04  5.81D-05  3.07D-04   563.2
                                                     4.67D-05  2.06D-04
 d= 0,ls=0.5,diis   109  -1887.8174622786 -7.00D-05  1.75D-04  3.30D-04   568.4
                                                     1.67D-04  2.69D-04
 d= 0,ls=0.5,diis   110  -1887.8178413194 -3.79D-04  1.42D-04  1.69D-04   573.8
                                                     1.42D-04  9.97D-05
 d= 0,ls=0.5,diis   111  -1887.8181642395 -3.23D-04  8.79D-05  2.31D-04   579.2
                                                     1.08D-04  9.98D-05
 d= 0,ls=0.5,diis   112  -1887.8183073536 -1.43D-04  7.32D-05  5.25D-04   584.4
                                                     8.73D-05  1.86D-04
 d= 0,ls=0.5,diis   113  -1887.8184366137 -1.29D-04  1.14D-04  7.33D-04   590.2
                                                     1.15D-04  2.62D-04
 d= 0,ls=0.5,diis   114  -1887.8187029627 -2.66D-04  9.75D-05  7.42D-04   595.3
                                                     1.03D-04  2.30D-04
 d= 0,ls=0.5,diis   115  -1887.8189268639 -2.24D-04  7.74D-05  8.96D-04   599.9
                                                     7.21D-05  2.83D-04
 d= 0,ls=0.5,diis   116  -1887.8190530813 -1.26D-04  7.17D-05  1.13D-03   605.9
                                                     7.13D-05  4.01D-04
 d= 0,ls=0.5,diis   117  -1887.8191968243 -1.44D-04  5.62D-05  1.28D-03   611.7
                                                     4.99D-05  4.58D-04
 d= 0,ls=0.5,diis   118  -1887.8192698367 -7.30D-05  6.15D-05  1.48D-03   616.3
                                                     3.63D-05  5.69D-04
 d= 0,ls=0.5,diis   119  -1887.8192096815  6.02D-05  7.54D-05  1.77D-03   622.8
                                                     6.14D-05  7.50D-04
 d= 0,ls=0.5,diis   120  -1887.8193970775 -1.87D-04  7.51D-05  1.68D-03   627.6
                                                     9.22D-05  6.58D-04
 d= 0,ls=0.5,diis   121  -1887.8195491670 -1.52D-04  7.00D-05  1.87D-03   631.9
                                                     7.94D-05  7.04D-04
 d= 0,ls=0.5,diis   122  -1887.8196873882 -1.38D-04  6.06D-05  2.10D-03   636.4
                                                     5.65D-05  8.09D-04
 d= 0,ls=0.5,diis   123  -1887.8197951768 -1.08D-04  6.38D-05  2.27D-03   642.1
                                                     6.38D-05  9.03D-04
 d= 0,ls=0.5,diis   124  -1887.8199211890 -1.26D-04  1.50D-04  2.44D-03   647.1
                                                     1.23D-04  9.71D-04
 d= 0,ls=0.5,diis   125  -1887.8203825486 -4.61D-04  1.33D-04  2.20D-03   652.4
                                                     1.17D-04  7.72D-04
 d= 0,ls=0.5,diis   126  -1887.8207702295 -3.88D-04  1.20D-04  2.27D-03   658.0
                                                     9.27D-05  7.95D-04
 d= 0,ls=0.5,diis   127  -1887.8210900866 -3.20D-04  7.73D-05  2.34D-03   663.3
                                                     7.45D-05  8.53D-04
 d= 0,ls=0.5,diis   128  -1887.8212221042 -1.32D-04  5.38D-05  2.61D-03   667.5
                                                     6.73D-05  1.01D-03
 d= 0,ls=0.5,diis   129  -1887.8212359184 -1.38D-05  6.60D-05  2.96D-03   672.8
                                                     7.94D-05  1.18D-03
 d= 0,ls=0.5,diis   130  -1887.8213603652 -1.24D-04  7.99D-05  3.20D-03   678.0
                                                     6.11D-05  1.27D-03
 d= 0,ls=0.5,diis   131  -1887.8210725305  2.88D-04  3.70D-05  3.96D-03   685.0
                                                     4.61D-05  1.74D-03
 d= 0,ls=0.5,diis   132  -1887.8210704272  2.10D-06  2.07D-04  4.04D-03   689.7
                                                     1.40D-04  1.74D-03
 d= 0,ls=0.5,diis   133  -1887.8218606595 -7.90D-04  1.79D-04  3.04D-03   694.9
                                                     1.02D-04  1.12D-03
 d= 0,ls=0.5,diis   134  -1887.8225128778 -6.52D-04  2.27D-04  2.49D-03   700.1
                                                     1.52D-04  9.24D-04
 d= 0,ls=0.5,diis   135  -1887.8233437216 -8.31D-04  2.46D-04  1.96D-03   706.0
                                                     1.68D-04  6.79D-04
 d= 0,ls=0.5,diis   136  -1887.8242483039 -9.05D-04  2.06D-04  1.50D-03   712.2
                                                     1.40D-04  5.02D-04
 d= 0,ls=0.5,diis   137  -1887.8249585550 -7.10D-04  1.95D-04  1.37D-03   717.4
                                                     1.40D-04  5.36D-04
 d= 0,ls=0.5,diis   138  -1887.8256343595 -6.76D-04  1.93D-04  1.30D-03   722.5
                                                     1.19D-04  5.70D-04
 d= 0,ls=0.5,diis   139  -1887.8262947771 -6.60D-04  2.99D-04  1.12D-03   730.3
                                                     2.21D-04  6.15D-04
 d= 0,ls=0.5,diis   140  -1887.8274022924 -1.11D-03  2.94D-04  6.38D-04   735.3
                                                     2.18D-04  3.73D-04
 d= 0,ls=0.5,diis   141  -1887.8284530718 -1.05D-03  3.13D-04  5.11D-04   740.5
                                                     2.32D-04  4.00D-04
 d= 0,ls=0.5,diis   142  -1887.8295653778 -1.11D-03  3.11D-04  4.27D-04   745.1
                                                     2.38D-04  4.48D-04
 d= 0,ls=0.5,diis   143  -1887.8306889220 -1.12D-03  3.60D-04  3.88D-04   750.7
                                                     2.90D-04  4.80D-04
 d= 0,ls=0.5,diis   144  -1887.8320104974 -1.32D-03  3.10D-04  3.29D-04   755.2
                                                     2.57D-04  4.38D-04
 d= 0,ls=0.5,diis   145  -1887.8331647018 -1.15D-03  5.38D-04  3.46D-04   760.6
                                                     4.43D-04  4.10D-04
 d= 0,ls=0.5,diis   146  -1887.8349276905 -1.76D-03  6.16D-04  5.47D-04   765.4
                                                     4.71D-04  5.88D-04
 d= 0,ls=0.5,diis   147  -1887.8366671011 -1.74D-03  4.55D-04  1.20D-03   771.0
                                                     3.51D-04  1.23D-03
 d= 0,ls=0.5,diis   148  -1887.8381058745 -1.44D-03  3.25D-04  8.06D-04   775.6
                                                     2.53D-04  8.98D-04
 d= 0,ls=0.5,diis   149  -1887.8391212288 -1.02D-03  3.01D-04  3.34D-04   781.2
                                                     2.35D-04  4.75D-04
 d= 0,ls=0.5,diis   150  -1887.8399385686 -8.17D-04  2.87D-04  3.18D-04   786.6
                                                     2.24D-04  4.55D-04
 d= 0,ls=0.5,diis   151  -1887.8406515772 -7.13D-04  2.58D-04  3.58D-04   791.7
                                                     2.08D-04  4.85D-04
 d= 0,ls=0.5,diis   152  -1887.8412766986 -6.25D-04  2.40D-04  3.25D-04   798.3
                                                     1.89D-04  4.23D-04
 d= 0,ls=0.5,diis   153  -1887.8417768956 -5.00D-04  2.00D-04  3.94D-04   804.7
                                                     1.57D-04  5.10D-04
 d= 0,ls=0.5,diis   154  -1887.8421994255 -4.23D-04  1.91D-04  3.37D-04   811.6
                                                     1.55D-04  4.51D-04
 d= 0,ls=0.5,diis   155  -1887.8425838158 -3.84D-04  1.80D-04  3.08D-04   815.8
                                                     1.48D-04  3.98D-04
 d= 0,ls=0.5,diis   156  -1887.8429207235 -3.37D-04  1.84D-04  2.90D-04   820.5
                                                     1.57D-04  3.70D-04
 d= 0,ls=0.5,diis   157  -1887.8432359254 -3.15D-04  1.64D-04  2.87D-04   825.6
                                                     1.57D-04  3.75D-04
 d= 0,ls=0.5,diis   158  -1887.8435604227 -3.24D-04  1.69D-04  1.95D-04   831.6
                                                     1.38D-04  2.54D-04
 d= 0,ls=0.5,diis   159  -1887.8437908857 -2.30D-04  1.49D-04  2.49D-04   837.2
                                                     1.20D-04  2.92D-04
 d= 0,ls=0.5,diis   160  -1887.8440105377 -2.20D-04  1.63D-04  2.17D-04   842.7
                                                     1.35D-04  2.42D-04
 d= 0,ls=0.5,diis   161  -1887.8441942165 -1.84D-04  1.46D-04  2.96D-04   847.8
                                                     1.21D-04  3.30D-04
 d= 0,ls=0.5,diis   162  -1887.8443831571 -1.89D-04  1.50D-04  2.76D-04   853.4
                                                     1.30D-04  3.00D-04
 d= 0,ls=0.5,diis   163  -1887.8445544431 -1.71D-04  1.39D-04  3.14D-04   858.4
                                                     1.22D-04  3.39D-04
 d= 0,ls=0.5,diis   164  -1887.8447269583 -1.73D-04  1.18D-04  2.88D-04   863.8
                                                     9.57D-05  3.10D-04
 d= 0,ls=0.5,diis   165  -1887.8448916348 -1.65D-04  1.22D-04  1.86D-04   868.5
                                                     1.06D-04  1.95D-04
 d= 0,ls=0.5,diis   166  -1887.8450236706 -1.32D-04  1.17D-04  2.00D-04   873.6
                                                     1.04D-04  2.11D-04
 d= 0,ls=0.5,diis   167  -1887.8451575270 -1.34D-04  1.07D-04  1.80D-04   878.4
                                                     9.77D-05  1.92D-04
 d= 0,ls=0.5,diis   168  -1887.8452906495 -1.33D-04  1.03D-04  1.29D-04   882.8
                                                     8.79D-05  1.41D-04
 d= 0,ls=0.5,diis   169  -1887.8454074208 -1.17D-04  1.09D-04  9.25D-05   887.6
                                                     9.21D-05  1.04D-04
 d= 0,ls=0.5,diis   170  -1887.8455043383 -9.69D-05  1.31D-04  1.20D-04   892.7
                                                     1.11D-04  1.31D-04
 d= 0,ls=0.5,diis   171  -1887.8455791024 -7.48D-05  1.05D-04  2.31D-04   897.3
                                                     8.27D-05  2.41D-04
 d= 0,ls=0.5,diis   172  -1887.8456781860 -9.91D-05  1.35D-04  1.90D-04   901.9
                                                     1.22D-04  1.81D-04
 d= 0,ls=0.5,diis   173  -1887.8457437803 -6.56D-05  1.12D-04  3.16D-04   906.2
                                                     9.60D-05  3.24D-04
 d= 0,ls=0.5,diis   174  -1887.8458408328 -9.71D-05  1.12D-04  2.84D-04   911.5
                                                     9.78D-05  2.73D-04
 d= 0,ls=0.5,diis   175  -1887.8459264883 -8.57D-05  1.18D-04  2.89D-04   916.1
                                                     1.12D-04  2.77D-04
 d= 0,ls=0.5,diis   176  -1887.8460126451 -8.62D-05  1.07D-04  3.07D-04   921.0
                                                     9.69D-05  3.08D-04
 d= 0,ls=0.5,diis   177  -1887.8461071749 -9.45D-05  1.42D-04  2.66D-04   926.7
                                                     1.47D-04  2.61D-04
 d= 0,ls=0.5,diis   178  -1887.8461820854 -7.49D-05  1.21D-04  3.40D-04   932.6
                                                     1.19D-04  3.86D-04
 d= 0,ls=0.5,diis   179  -1887.8462838166 -1.02D-04  1.05D-04  2.80D-04   937.8
                                                     9.98D-05  3.16D-04
 d= 0,ls=0.5,diis   180  -1887.8463847512 -1.01D-04  1.01D-04  1.98D-04   942.4
                                                     9.61D-05  2.21D-04
 d= 0,ls=0.5,diis   181  -1887.8464650239 -8.03D-05  1.02D-04  1.70D-04   948.5
                                                     9.80D-05  1.92D-04
 d= 0,ls=0.5,diis   182  -1887.8465336406 -6.86D-05  1.40D-04  1.70D-04   953.3
                                                     1.44D-04  1.95D-04
 d= 0,ls=0.5,diis   183  -1887.8465649246 -3.13D-05  1.12D-04  3.18D-04   959.0
                                                     1.10D-04  3.81D-04
 d= 0,ls=0.5,diis   184  -1887.8466444943 -7.96D-05  8.92D-05  2.62D-04   963.8
                                                     6.78D-05  2.97D-04
 d= 0,ls=0.5,diis   185  -1887.8467442877 -9.98D-05  9.70D-05  8.42D-05   968.3
                                                     9.29D-05  7.28D-05
 d= 0,ls=0.5,diis   186  -1887.8467815831 -3.73D-05  9.89D-05  1.48D-04   973.0
                                                     9.79D-05  1.59D-04
 d= 0,ls=0.5,diis   187  -1887.8468297021 -4.81D-05  8.39D-05  1.73D-04   977.1
                                                     7.69D-05  1.95D-04
 d= 0,ls=0.5,diis   188  -1887.8468915081 -6.18D-05  9.58D-05  1.31D-04   981.2
                                                     9.51D-05  1.41D-04
 d= 0,ls=0.5,diis   189  -1887.8469339038 -4.24D-05  8.49D-05  1.64D-04   986.8
                                                     8.07D-05  1.87D-04
 d= 0,ls=0.5,diis   190  -1887.8469923649 -5.85D-05  9.19D-05  1.33D-04   991.2
                                                     9.44D-05  1.50D-04
 d= 0,ls=0.5,diis   191  -1887.8470394160 -4.71D-05  7.52D-05  1.49D-04   996.2
                                                     7.15D-05  1.78D-04
 d= 0,ls=0.5,diis   192  -1887.8471020699 -6.27D-05  6.59D-05  8.80D-05  1002.0
                                                     5.74D-05  1.04D-04
 d= 0,ls=0.5,diis   193  -1887.8471521782 -5.01D-05  8.41D-05  5.42D-05  1007.5
                                                     7.95D-05  5.94D-05
 d= 0,ls=0.5,diis   194  -1887.8471840722 -3.19D-05  9.38D-05  9.22D-05  1012.7
                                                     8.77D-05  1.10D-04
 d= 0,ls=0.5,diis   195  -1887.8472176563 -3.36D-05  8.29D-05  1.26D-04  1018.1
                                                     7.53D-05  1.52D-04
 d= 0,ls=0.5,diis   196  -1887.8472613360 -4.37D-05  7.74D-05  1.16D-04  1022.7
                                                     6.75D-05  1.33D-04
 d= 0,ls=0.5,diis   197  -1887.8473043047 -4.30D-05  8.69D-05  1.02D-04  1026.9
                                                     8.42D-05  1.13D-04
 d= 0,ls=0.5,diis   198  -1887.8473366753 -3.24D-05  6.56D-05  1.32D-04  1032.1
                                                     5.32D-05  1.53D-04
 d= 0,ls=0.5,diis   199  -1887.8473927077 -5.60D-05  6.44D-05  5.99D-05  1037.0
                                                     5.62D-05  6.22D-05
 d= 0,ls=0.5,diis   200  -1887.8474290230 -3.63D-05  5.85D-05  5.99D-05  1042.2
                                                     4.76D-05  6.45D-05
 d= 0,ls=0.5,diis   201  -1887.8474664982 -3.75D-05  7.32D-05  4.41D-05  1046.6
                                                     7.06D-05  4.58D-05
 d= 0,ls=0.5,diis   202  -1887.8474930119 -2.65D-05  6.16D-05  8.05D-05  1050.6
                                                     5.50D-05  8.93D-05
 d= 0,ls=0.5,diis   203  -1887.8475293030 -3.63D-05  5.11D-05  6.67D-05  1055.6
                                                     4.03D-05  7.03D-05
 d= 0,ls=0.5,diis   204  -1887.8475665279 -3.72D-05  4.83D-05  3.71D-05  1059.3
                                                     3.73D-05  3.19D-05
 d= 0,ls=0.5,diis   205  -1887.8475960861 -2.96D-05  4.66D-05  3.22D-05  1065.6
                                                     3.50D-05  2.57D-05
 d= 0,ls=0.5,diis   206  -1887.8476243924 -2.83D-05  4.17D-05  2.73D-05  1070.5
                                                     2.86D-05  1.99D-05
 d= 0,ls=0.5,diis   207  -1887.8476516121 -2.72D-05  4.25D-05  1.59D-05  1074.5
                                                     3.04D-05  7.60D-06
 d= 0,ls=0.5,diis   208  -1887.8476758821 -2.43D-05  4.08D-05  1.59D-05  1079.5
                                                     2.90D-05  8.16D-06
 d= 0,ls=0.5,diis   209  -1887.8476999268 -2.40D-05  4.02D-05  1.42D-05  1083.6
                                                     2.87D-05  6.48D-06
 d= 0,ls=0.5,diis   210  -1887.8477234225 -2.35D-05  3.89D-05  1.33D-05  1088.3
                                                     2.64D-05  5.71D-06
 d= 0,ls=0.5,diis   211  -1887.8477466971 -2.33D-05  3.69D-05  1.13D-05  1093.8
                                                     2.39D-05  3.72D-06
 d= 0,ls=0.5,diis   212  -1887.8477687532 -2.21D-05  3.63D-05  9.30D-06  1098.4
                                                     2.36D-05  2.63D-06
 d= 0,ls=0.5,diis   213  -1887.8477900927 -2.13D-05  3.51D-05  8.48D-06  1104.0
                                                     2.18D-05  2.78D-06
 d= 0,ls=0.5,diis   214  -1887.8478101148 -2.00D-05  3.43D-05  8.37D-06  1109.8
                                                     2.10D-05  4.42D-06
 d= 0,ls=0.5,diis   215  -1887.8478291886 -1.91D-05  3.33D-05  9.13D-06  1115.0
                                                     2.03D-05  7.02D-06
 d= 0,ls=0.5,diis   216  -1887.8478471317 -1.79D-05  3.20D-05  1.10D-05  1120.1
                                                     1.93D-05  1.09D-05
 d= 0,ls=0.5,diis   217  -1887.8478633760 -1.62D-05  3.07D-05  1.48D-05  1125.3
                                                     1.85D-05  1.71D-05
 d= 0,ls=0.5,diis   218  -1887.8478776928 -1.43D-05  3.00D-05  2.07D-05  1131.6
                                                     1.75D-05  2.57D-05
 d= 0,ls=0.5,diis   219  -1887.8478901938 -1.25D-05  2.86D-05  2.84D-05  1137.4
                                                     1.67D-05  3.64D-05
 d= 0,ls=0.5,diis   220  -1887.8478977496 -7.56D-06  2.76D-05  4.37D-05  1142.2
                                                     1.60D-05  5.57D-05
 d= 0,ls=0.5,diis   221  -1887.8479003873 -2.64D-06  2.78D-05  6.56D-05  1146.5
                                                     2.04D-05  8.27D-05
 d= 0,ls=0.5,diis   222  -1887.8478886420  1.17D-05  2.94D-05  1.14D-04  1152.5
                                                     1.97D-05  1.39D-04
 d= 0,ls=0.5,diis   223  -1887.8479011119 -1.25D-05  2.63D-05  1.04D-04  1157.2
                                                     1.93D-05  1.30D-04
 d= 0,ls=0.5,diis   224  -1887.8478830272  1.81D-05  2.30D-05  1.68D-04  1162.3
                                                     1.41D-05  2.02D-04
 d= 0,ls=0.5,diis   225  -1887.8478736035  9.42D-06  2.23D-05  2.01D-04  1167.5
                                                     1.15D-05  2.39D-04
 d= 0,ls=0.5,diis   226  -1887.8478616140  1.20D-05  3.35D-05  2.37D-04  1172.3
                                                     2.38D-05  2.80D-04
 d= 0,ls=0.5,diis   227  -1887.8478808291 -1.92D-05  2.46D-05  2.06D-04  1177.6
                                                     1.39D-05  2.43D-04
 d= 0,ls=0.5,diis   228  -1887.8478897490 -8.92D-06  2.60D-05  2.15D-04  1183.2
                                                     1.64D-05  2.52D-04
 d= 0,ls=0.5,diis   229  -1887.8479064561 -1.67D-05  2.52D-05  2.06D-04  1188.8
                                                     1.33D-05  2.41D-04
 d= 0,ls=0.5,diis   230  -1887.8479175847 -1.11D-05  3.77D-05  2.13D-04  1194.4
                                                     3.01D-05  2.45D-04
 d= 0,ls=0.5,diis   231  -1887.8479488298 -3.12D-05  3.37D-05  1.81D-04  1200.7
                                                     2.60D-05  2.07D-04
 d= 0,ls=0.5,diis   232  -1887.8479763051 -2.75D-05  3.27D-05  1.70D-04  1208.1
                                                     2.34D-05  1.94D-04
 d= 0,ls=0.5,diis   233  -1887.8479992966 -2.30D-05  2.81D-05  1.70D-04  1213.2
                                                     2.27D-05  1.92D-04
 d= 0,ls=0.5,diis   234  -1887.8479877763  1.15D-05  6.77D-05  2.30D-04  1218.3
                                                     9.63D-05  2.58D-04
 d= 0,ls=0.5,diis   235  -1887.8481033510 -1.16D-04  6.15D-05  6.02D-05  1223.9
                                                     8.07D-05  7.98D-05
 d= 0,ls=0.5,diis   236  -1887.8481760479 -7.27D-05  4.24D-05  2.71D-05  1228.9
                                                     4.74D-05  3.80D-05
 d= 0,ls=0.5,diis   237  -1887.8482179990 -4.20D-05  3.53D-05  1.17D-05  1234.2
                                                     3.49D-05  1.95D-05
 d= 0,ls=0.5,diis   238  -1887.8482452457 -2.72D-05  3.31D-05  1.13D-05  1240.7
                                                     2.86D-05  1.95D-05
 d= 0,ls=0.5,diis   239  -1887.8482716575 -2.64D-05  3.19D-05  1.22D-05  1245.9
                                                     2.65D-05  2.05D-05
 d= 0,ls=0.5,diis   240  -1887.8482958502 -2.42D-05  2.92D-05  1.50D-05  1250.5
                                                     2.32D-05  2.38D-05
 d= 0,ls=0.5,diis   241  -1887.8483124827 -1.66D-05  2.66D-05  2.63D-05  1255.8
                                                     2.22D-05  3.72D-05
 d= 0,ls=0.5,diis   242  -1887.8483198148 -7.33D-06  4.11D-05  4.87D-05  1260.5
                                                     4.26D-05  6.24D-05
 d= 0,ls=0.5,diis   243  -1887.8483571291 -3.73D-05  3.48D-05  2.23D-05  1264.6
                                                     3.26D-05  3.40D-05
 d= 0,ls=0.5,diis   244  -1887.8483874318 -3.03D-05  3.72D-05  1.95D-05  1270.2
                                                     3.29D-05  2.95D-05
 d= 0,ls=0.5,diis   245  -1887.8484189065 -3.15D-05  3.68D-05  1.68D-05  1274.4
                                                     3.10D-05  2.59D-05
 d= 0,ls=0.5,diis   246  -1887.8484494225 -3.05D-05  3.46D-05  1.70D-05  1279.2
                                                     3.35D-05  2.56D-05
 d= 0,ls=0.5,diis   247  -1887.8484495949 -1.72D-07  2.92D-05  6.13D-05  1284.9
                                                     3.33D-05  7.28D-05
 d= 0,ls=0.5,diis   248  -1887.8484340798  1.55D-05  2.63D-05  1.24D-04  1290.0
                                                     3.22D-05  1.41D-04
 d= 0,ls=0.5,diis   249  -1887.8484060302  2.80D-05  2.15D-05  2.00D-04  1296.9
                                                     2.74D-05  2.22D-04
 d= 0,ls=0.5,diis   250  -1887.8483817458  2.43D-05  2.02D-05  2.56D-04  1302.0
                                                     2.51D-05  2.82D-04
 d= 0,ls=0.5,diis   251  -1887.8483521900  2.96D-05  3.83D-05  3.19D-04  1307.4
                                                     3.89D-05  3.50D-04
 d= 0,ls=0.5,diis   252  -1887.8483917129 -3.95D-05  2.45D-05  2.32D-04  1311.8
                                                     1.42D-05  2.65D-04
 d= 0,ls=0.5,diis   253  -1887.8483935656 -1.85D-06  2.59D-05  2.62D-04  1317.2
                                                     1.61D-05  2.95D-04
 d= 0,ls=0.5,diis   254  -1887.8484059704 -1.24D-05  2.93D-05  2.65D-04  1323.2
                                                     2.05D-05  2.96D-04
 d= 0,ls=0.5,diis   255  -1887.8484272743 -2.13D-05  4.49D-05  2.56D-04  1329.0
                                                     4.52D-05  2.86D-04
 d= 0,ls=0.5,diis   256  -1887.8484849328 -5.77D-05  4.03D-05  1.91D-04  1334.5
                                                     3.65D-05  2.16D-04
 d= 0,ls=0.5,diis   257  -1887.8485283270 -4.34D-05  3.72D-05  1.73D-04  1341.6
                                                     2.90D-05  1.95D-04
 d= 0,ls=0.5,diis   258  -1887.8485573815 -2.91D-05  3.61D-05  1.81D-04  1346.3
                                                     2.59D-05  2.02D-04
 d= 0,ls=0.5,diis   259  -1887.8485813211 -2.39D-05  4.17D-05  1.97D-04  1353.1
                                                     3.72D-05  2.16D-04
 d= 0,ls=0.5,diis   260  -1887.8486269109 -4.56D-05  3.55D-05  1.73D-04  1357.8
                                                     3.69D-05  1.90D-04
 d= 0,ls=0.5,diis   261  -1887.8486801545 -5.32D-05  5.34D-05  1.35D-04  1363.1
                                                     6.01D-05  1.54D-04
 d= 0,ls=0.5,diis   262  -1887.8487550640 -7.49D-05  4.56D-05  7.94D-05  1367.9
                                                     4.77D-05  9.75D-05
 d= 0,ls=0.5,diis   263  -1887.8488134667 -5.84D-05  4.25D-05  5.92D-05  1373.3
                                                     5.10D-05  7.74D-05
 d= 0,ls=0.5,diis   264  -1887.8488753114 -6.18D-05  3.95D-05  3.07D-05  1378.2
                                                     4.39D-05  4.79D-05
 d= 0,ls=0.5,diis   265  -1887.8489253530 -5.00D-05  3.86D-05  2.04D-05  1383.3
                                                     3.97D-05  3.59D-05
 d= 0,ls=0.5,diis   266  -1887.8489694828 -4.41D-05  3.84D-05  1.77D-05  1388.1
                                                     3.74D-05  3.18D-05
 d= 0,ls=0.5,diis   267  -1887.8490107848 -4.13D-05  3.60D-05  1.78D-05  1393.5
                                                     3.33D-05  3.10D-05
 d= 0,ls=0.5,diis   268  -1887.8490463386 -3.56D-05  4.18D-05  2.30D-05  1397.7
                                                     4.31D-05  3.65D-05
 d= 0,ls=0.5,diis   269  -1887.8490923939 -4.61D-05  4.12D-05  1.72D-05  1402.5
                                                     4.11D-05  2.88D-05
 d= 0,ls=0.5,diis   270  -1887.8491374459 -4.51D-05  3.87D-05  1.60D-05  1407.5
                                                     3.62D-05  2.59D-05
 d= 0,ls=0.5,diis   271  -1887.8491770097 -3.96D-05  3.75D-05  2.06D-05  1413.2
                                                     3.45D-05  3.01D-05
 d= 0,ls=0.5,diis   272  -1887.8492144136 -3.74D-05  3.59D-05  2.57D-05  1417.7
                                                     3.17D-05  3.56D-05
 d= 0,ls=0.5,diis   273  -1887.8492466730 -3.23D-05  3.68D-05  3.60D-05  1422.3
                                                     3.19D-05  4.75D-05
 d= 0,ls=0.5,diis   274  -1887.8492805883 -3.39D-05  3.41D-05  4.17D-05  1428.3
                                                     2.75D-05  5.52D-05
 d= 0,ls=0.5,diis   275  -1887.8493002621 -1.97D-05  3.43D-05  6.98D-05  1434.1
                                                     2.65D-05  8.70D-05
 d= 0,ls=0.5,diis   276  -1887.8493212104 -2.09D-05  3.22D-05  9.05D-05  1438.6
                                                     2.47D-05  1.12D-04
 d= 0,ls=0.5,diis   277  -1887.8493341521 -1.29D-05  3.12D-05  1.25D-04  1443.6
                                                     2.37D-05  1.49D-04
 d= 0,ls=0.5,diis   278  -1887.8493313128  2.84D-06  3.01D-05  1.86D-04  1449.1
                                                     2.27D-05  2.13D-04
 d= 0,ls=0.5,diis   279  -1887.8493180735  1.32D-05  3.06D-05  2.60D-04  1454.5
                                                     2.69D-05  2.89D-04
 d= 0,ls=0.5,diis   280  -1887.8492750339  4.30D-05  3.27D-05  3.90D-04  1458.8
                                                     3.62D-05  4.18D-04
 d= 0,ls=0.5,diis   281  -1887.8491925144  8.25D-05  2.72D-05  5.92D-04  1465.3
                                                     3.11D-05  6.14D-04
 d= 0,ls=0.5,diis   282  -1887.8491149976  7.75D-05  2.84D-05  7.59D-04  1471.1
                                                     3.65D-05  7.74D-04
 d= 0,ls=0.5,diis   283  -1887.8490060779  1.09D-04  2.50D-05  9.92D-04  1476.6
                                                     2.41D-05  9.91D-04
 d= 0,ls=0.5,diis   284  -1887.8489675234  3.86D-05  4.35D-05  1.04D-03  1483.0
                                                     4.35D-05  1.03D-03
 d= 0,ls=0.5,diis   285  -1887.8490341181 -6.66D-05  5.02D-05  8.94D-04  1488.1
                                                     4.83D-05  8.67D-04
 d= 0,ls=0.5,diis   286  -1887.8491158679 -8.17D-05  5.32D-05  7.74D-04  1493.2
                                                     5.86D-05  7.30D-04
 d= 0,ls=0.5,diis   287  -1887.8492259551 -1.10D-04  4.62D-05  6.33D-04  1498.9
                                                     4.76D-05  5.86D-04
 d= 0,ls=0.5,diis   288  -1887.8492999446 -7.40D-05  4.96D-05  5.86D-04  1504.1
                                                     5.15D-05  5.36D-04
 d= 0,ls=0.5,diis   289  -1887.8493788815 -7.89D-05  4.48D-05  5.33D-04  1509.2
                                                     4.45D-05  4.80D-04
 d= 0,ls=0.5,diis   290  -1887.8494391775 -6.03D-05  4.40D-05  5.20D-04  1514.2
                                                     4.38D-05  4.68D-04
 d= 0,ls=0.5,diis   291  -1887.8495027072 -6.35D-05  4.53D-05  4.97D-04  1519.2
                                                     4.59D-05  4.48D-04
 d= 0,ls=0.5,diis   292  -1887.8495718491 -6.91D-05  4.18D-05  4.64D-04  1525.3
                                                     4.71D-05  4.19D-04
 d= 0,ls=0.5,diis   293  -1887.8496544709 -8.26D-05  9.21D-05  3.94D-04  1531.4
                                                     1.35D-04  3.70D-04
 d= 0,ls=0.5,diis   294  -1887.8498858654 -2.31D-04  7.15D-05  9.67D-05  1536.6
                                                     1.02D-04  1.17D-04
 d= 0,ls=0.5,diis   295  -1887.8500217150 -1.36D-04  5.37D-05  3.49D-05  1542.0
                                                     7.60D-05  5.59D-05
 d= 0,ls=0.5,diis   296  -1887.8501105089 -8.88D-05  4.85D-05  1.72D-05  1547.0
                                                     6.29D-05  3.09D-05
 d= 0,ls=0.5,diis   297  -1887.8501821096 -7.16D-05  4.76D-05  1.32D-05  1552.6
                                                     5.66D-05  2.29D-05
 d= 0,ls=0.5,diis   298  -1887.8502495195 -6.74D-05  4.71D-05  1.30D-05  1557.3
                                                     5.34D-05  2.03D-05
 d= 0,ls=0.5,diis   299  -1887.8503145933 -6.51D-05  4.72D-05  1.30D-05  1562.3
                                                     5.27D-05  1.91D-05
 d= 0,ls=0.5,diis   300  -1887.8503788405 -6.42D-05  4.39D-05  1.36D-05  1567.0
                                                     4.69D-05  1.84D-05
 d= 0,ls=0.5,diis   301  -1887.8504366674 -5.78D-05  4.07D-05  1.46D-05  1571.8
                                                     4.26D-05  2.12D-05
 d= 0,ls=0.5,diis   302  -1887.8504873572 -5.07D-05  3.91D-05  2.01D-05  1576.2
                                                     3.96D-05  2.92D-05
 d= 0,ls=0.5,diis   303  -1887.8505326299 -4.53D-05  3.93D-05  2.93D-05  1580.4
                                                     3.89D-05  4.19D-05
 d= 0,ls=0.5,diis   304  -1887.8505771428 -4.45D-05  3.89D-05  3.75D-05  1586.4
                                                     3.70D-05  5.37D-05
 d= 0,ls=0.5,diis   305  -1887.8506182005 -4.11D-05  3.73D-05  5.04D-05  1590.8
                                                     3.42D-05  7.04D-05
 d= 0,ls=0.5,diis   306  -1887.8506515653 -3.34D-05  3.69D-05  7.39D-05  1595.7
                                                     3.26D-05  9.77D-05
 d= 0,ls=0.5,diis   307  -1887.8506816549 -3.01D-05  3.59D-05  1.00D-04  1602.0
                                                     3.08D-05  1.27D-04
 d= 0,ls=0.5,diis   308  -1887.8507062826 -2.46D-05  3.54D-05  1.35D-04  1607.6
                                                     2.97D-05  1.63D-04
 d= 0,ls=0.5,diis   309  -1887.8507289826 -2.27D-05  3.45D-05  1.70D-04  1613.5
                                                     2.88D-05  1.99D-04
 d= 0,ls=0.5,diis   310  -1887.8507493310 -2.03D-05  3.33D-05  2.08D-04  1618.0
                                                     2.67D-05  2.37D-04
 d= 0,ls=0.5,diis   311  -1887.8507621684 -1.28D-05  3.30D-05  2.59D-04  1622.3
                                                     2.64D-05  2.85D-04
 d= 0,ls=0.5,diis   312  -1887.8507766470 -1.45D-05  3.18D-05  3.03D-04  1627.4
                                                     2.44D-05  3.26D-04
 d= 0,ls=0.5,diis   313  -1887.8507830202 -6.37D-06  3.34D-05  3.63D-04  1633.0
                                                     2.58D-05  3.80D-04
 d= 0,ls=0.5,diis   314  -1887.8507971187 -1.41D-05  3.32D-05  4.05D-04  1637.3
                                                     2.54D-05  4.15D-04
 d= 0,ls=0.5,diis   315  -1887.8508093880 -1.23D-05  3.55D-05  4.55D-04  1641.3
                                                     2.75D-05  4.56D-04
 d= 0,ls=0.5,diis   316  -1887.8508281360 -1.87D-05  3.41D-05  4.93D-04  1645.9
                                                     2.47D-05  4.83D-04
 d= 0,ls=0.5,diis   317  -1887.8508339384 -5.80D-06  3.19D-05  5.63D-04  1651.7
                                                     2.10D-05  5.40D-04
 d= 0,ls=0.5,diis   318  -1887.8508081405  2.58D-05  3.62D-05  6.96D-04  1656.6
                                                     2.57D-05  6.51D-04
 d= 0,ls=0.5,diis   319  -1887.8508178489 -9.71D-06  3.50D-05  7.47D-04  1662.1
                                                     2.38D-05  6.82D-04
 d= 0,ls=0.5,diis   320  -1887.8508162152  1.63D-06  3.61D-05  8.33D-04  1666.8
                                                     2.32D-05  7.45D-04
 d= 0,ls=0.5,diis   321  -1887.8508032167  1.30D-05  3.52D-05  9.47D-04  1672.9
                                                     2.22D-05  8.27D-04
 d= 0,ls=0.5,diis   322  -1887.8507859959  1.72D-05  3.66D-05  1.07D-03  1678.8
                                                     3.46D-05  9.14D-04
 d= 0,ls=0.5,diis   323  -1887.8506789361  1.07D-04  3.10D-05  1.39D-03  1683.8
                                                     1.65D-05  1.18D-03
 d= 0,ls=0.5,diis   324  -1887.8506012498  7.77D-05  2.91D-05  1.61D-03  1687.3
                                                     2.05D-05  1.34D-03
 d= 0,ls=0.5,diis   325  -1887.8504963237  1.05D-04  3.12D-05  1.90D-03  1691.9
                                                     2.36D-05  1.55D-03
 d= 0,ls=0.5,diis   326  -1887.8504819929  1.43D-05  3.68D-05  1.96D-03  1696.9
                                                     4.10D-05  1.56D-03
 d= 0,ls=0.5,diis   327  -1887.8505451536 -6.32D-05  3.73D-05  1.86D-03  1701.2
                                                     4.45D-05  1.44D-03
 d= 0,ls=0.5,diis   328  -1887.8506330556 -8.79D-05  2.90D-05  1.73D-03  1706.7
                                                     2.95D-05  1.28D-03
 d= 0,ls=0.5,diis   329  -1887.8506630219 -3.00D-05  2.65D-05  1.75D-03  1711.0
                                                     2.48D-05  1.29D-03
 d= 0,ls=0.5,diis   330  -1887.8506731975 -1.02D-05  2.58D-05  1.80D-03  1715.6
                                                     2.26D-05  1.33D-03
 d= 0,ls=0.5,diis   331  -1887.8506751359 -1.94D-06  2.97D-05  1.87D-03  1720.9
                                                     3.00D-05  1.38D-03
 d= 0,ls=0.5,diis   332  -1887.8507196883 -4.46D-05  3.57D-05  1.87D-03  1725.9
                                                     3.66D-05  1.36D-03
 d= 0,ls=0.5,diis   333  -1887.8507710114 -5.13D-05  3.51D-05  1.82D-03  1731.0
                                                     3.86D-05  1.34D-03
 d= 0,ls=0.5,diis   334  -1887.8508397783 -6.88D-05  3.48D-05  1.75D-03  1734.8
                                                     4.58D-05  1.30D-03
 d= 0,ls=0.5,diis   335  -1887.8508478304 -8.05D-06  4.44D-05  1.84D-03  1739.8
                                                     4.96D-05  1.43D-03
 d= 0,ls=0.5,diis   336  -1887.8509238241 -7.60D-05  3.93D-05  1.66D-03  1745.5
                                                     4.96D-05  1.39D-03
 d= 0,ls=0.5,diis   337  -1887.8511168468 -1.93D-04  3.23D-05  1.27D-03  1751.5
                                                     3.25D-05  1.07D-03
 d= 0,ls=0.5,diis   338  -1887.8511698986 -5.31D-05  4.34D-05  1.24D-03  1757.2
                                                     4.73D-05  9.79D-04
 d= 0,ls=0.5,diis   339  -1887.8512828251 -1.13D-04  4.34D-05  1.06D-03  1761.4
                                                     5.37D-05  8.00D-04
 d= 0,ls=0.5,diis   340  -1887.8514297325 -1.47D-04  9.37D-05  8.27D-04  1766.1
                                                     1.20D-04  6.24D-04
 d= 0,ls=0.5,diis   341  -1887.8517438379 -3.14D-04  6.18D-05  2.86D-04  1772.3
                                                     9.19D-05  2.41D-04
 d= 0,ls=0.5,diis   342  -1887.8519307514 -1.87D-04  4.46D-05  8.47D-05  1777.8
                                                     7.53D-05  1.02D-04
 d= 0,ls=0.5,diis   343  -1887.8520385636 -1.08D-04  4.25D-05  4.38D-05  1781.8
                                                     6.94D-05  7.07D-05
 d= 0,ls=0.5,diis   344  -1887.8521295397 -9.10D-05  4.57D-05  2.60D-05  1787.0
                                                     6.82D-05  5.54D-05
 d= 0,ls=0.5,diis   345  -1887.8522164756 -8.69D-05  4.42D-05  1.86D-05  1791.5
                                                     6.64D-05  4.77D-05
 d= 0,ls=0.5,diis   346  -1887.8523013915 -8.49D-05  4.14D-05  1.42D-05  1796.0
                                                     6.27D-05  4.18D-05
 d= 0,ls=0.5,diis   347  -1887.8523815970 -8.02D-05  3.82D-05  1.28D-05  1801.5
                                                     5.78D-05  3.90D-05
 d= 0,ls=0.5,diis   348  -1887.8524554644 -7.39D-05  3.61D-05  1.45D-05  1806.3
                                                     5.37D-05  4.02D-05
 d= 0,ls=0.5,diis   349  -1887.8525238447 -6.84D-05  3.59D-05  1.85D-05  1811.7
                                                     5.16D-05  4.47D-05
 d= 0,ls=0.5,diis   350  -1887.8525900916 -6.62D-05  3.41D-05  2.29D-05  1816.8
                                                     4.83D-05  5.04D-05
 d= 0,ls=0.5,diis   351  -1887.8526513080 -6.12D-05  3.18D-05  3.05D-05  1822.9
                                                     4.46D-05  6.00D-05
 d= 0,ls=0.5,diis   352  -1887.8527052416 -5.39D-05  3.08D-05  4.32D-05  1828.1
                                                     4.22D-05  7.52D-05
 d= 0,ls=0.5,diis   353  -1887.8527562827 -5.10D-05  3.02D-05  5.60D-05  1833.3
                                                     4.05D-05  9.05D-05
 d= 0,ls=0.5,diis   354  -1887.8528050719 -4.88D-05  2.95D-05  6.94D-05  1838.4
                                                     3.36D-05  1.06D-04
 d= 0,ls=0.5,diis   355  -1887.8528242276 -1.92D-05  3.99D-05  1.24D-04  1843.2
                                                     3.49D-05  1.64D-04
 d= 0,ls=0.5,diis   356  -1887.8527933790  3.08D-05  2.94D-05  2.54D-04  1849.3
                                                     2.60D-05  2.95D-04
 d= 0,ls=0.5,diis   357  -1887.8527630989  3.03D-05  2.97D-05  3.56D-04  1854.8
                                                     2.59D-05  3.93D-04
 d= 0,ls=0.5,diis   358  -1887.8527150229  4.81D-05  2.34D-05  4.87D-04  1861.6
                                                     2.16D-05  5.09D-04
 d= 0,ls=0.5,diis   359  -1887.8526781511  3.69D-05  2.88D-05  5.82D-04  1867.1
                                                     2.58D-05  5.86D-04
 d= 0,ls=0.5,diis   360  -1887.8527071053 -2.90D-05  2.22D-05  5.43D-04  1872.8
                                                     1.90D-05  5.34D-04
 d= 0,ls=0.5,diis   361  -1887.8527196723 -1.26D-05  1.91D-05  5.69D-04  1878.1
                                                     1.66D-05  5.48D-04
 d= 0,ls=0.5,diis   362  -1887.8527060606  1.36D-05  1.84D-05  6.52D-04  1881.9
                                                     1.40D-05  6.16D-04
 d= 0,ls=0.5,diis   363  -1887.8526849725  2.11D-05  9.00D-05  7.45D-04  1887.4
                                                     8.37D-05  6.89D-04
 d= 0,ls=0.5,diis   364  -1887.8528610787 -1.76D-04  5.71D-05  4.61D-04  1892.8
                                                     6.06D-05  4.11D-04
 d= 0,ls=0.5,diis   365  -1887.8529625325 -1.01D-04  4.50D-05  4.13D-04  1897.4
                                                     5.48D-05  3.65D-04
 d= 0,ls=0.5,diis   366  -1887.8530415626 -7.90D-05  4.38D-05  4.09D-04  1903.1
                                                     5.70D-05  3.63D-04
 d= 0,ls=0.5,diis   367  -1887.8531355708 -9.40D-05  4.30D-05  3.76D-04  1907.3
                                                     5.63D-05  3.30D-04
 d= 0,ls=0.5,diis   368  -1887.8532205978 -8.50D-05  4.06D-05  3.66D-04  1912.0
                                                     5.36D-05  3.23D-04
 d= 0,ls=0.5,diis   369  -1887.8532940943 -7.35D-05  3.43D-05  3.85D-04  1916.5
                                                     4.86D-05  3.37D-04
 d= 0,ls=0.5,diis   370  -1887.8533574929 -6.34D-05  3.24D-05  4.11D-04  1922.2
                                                     4.54D-05  3.61D-04
 d= 0,ls=0.5,diis   371  -1887.8534159925 -5.85D-05  3.22D-05  4.41D-04  1927.0
                                                     3.54D-05  3.86D-04
 d= 0,ls=0.5,diis   372  -1887.8534251896 -9.20D-06  8.06D-05  5.54D-04  1931.7
                                                     6.76D-05  4.82D-04
 d= 0,ls=0.5,diis   373  -1887.8533836829  4.15D-05  3.74D-05  6.42D-04  1936.3
                                                     3.67D-05  6.24D-04
 d= 0,ls=0.5,diis   374  -1887.8533679783  1.57D-05  2.47D-05  6.36D-04  1940.9
                                                     3.47D-05  6.11D-04
 d= 0,ls=0.5,diis   375  -1887.8534154067 -4.74D-05  2.01D-05  5.08D-04  1946.0
                                                     3.48D-05  4.98D-04
 d= 0,ls=0.5,diis   376  -1887.8534152058  2.01D-07  1.81D-05  5.11D-04  1950.9
                                                     2.92D-05  5.01D-04
 d= 0,ls=0.5,diis   377  -1887.8534325182 -1.73D-05  1.80D-05  5.01D-04  1956.9
                                                     2.30D-05  4.70D-04
 d= 0,ls=0.5,diis   378  -1887.8534113756  2.11D-05  1.22D-05  5.65D-04  1962.3
                                                     1.58D-05  5.27D-04
 d= 0,ls=0.5,diis   379  -1887.8534043366  7.04D-06  5.02D-05  5.87D-04  1967.7
                                                     5.13D-05  5.38D-04
 d= 0,ls=0.5,diis   380  -1887.8535283843 -1.24D-04  9.75D-05  3.48D-04  1972.3
                                                     9.86D-05  3.30D-04
 d= 0,ls=0.5,diis   381  -1887.8537267687 -1.98D-04  7.61D-05  1.12D-04  1977.4
                                                     9.17D-05  1.36D-04
 d= 0,ls=0.5,diis   382  -1887.8538853594 -1.59D-04  6.56D-05  3.81D-05  1983.1
                                                     8.87D-05  7.89D-05
 d= 0,ls=0.5,diis   383  -1887.8540226799 -1.37D-04  5.72D-05  2.22D-05  1987.7
                                                     8.58D-05  6.29D-05
 d= 0,ls=0.5,diis   384  -1887.8541543105 -1.32D-04  5.26D-05  1.88D-05  1992.4
                                                     8.26D-05  5.54D-05
 d= 0,ls=0.5,diis   385  -1887.8542831970 -1.29D-04  4.60D-05  2.02D-05  1997.2
                                                     7.56D-05  5.27D-05
 d= 0,ls=0.5,diis   386  -1887.8544043716 -1.21D-04  4.25D-05  2.52D-05  2002.0
                                                     7.12D-05  5.47D-05
 d= 0,ls=0.5,diis   387  -1887.8545206933 -1.16D-04  3.65D-05  3.16D-05  2007.3
                                                     6.02D-05  5.85D-05
 d= 0,ls=0.5,diis   388  -1887.8546102979 -8.96D-05  3.27D-05  6.04D-05  2012.6
                                                     5.35D-05  8.11D-05
 d= 0,ls=0.5,diis   389  -1887.8546856924 -7.54D-05  2.93D-05  9.08D-05  2017.1
                                                     5.10D-05  1.07D-04
 d= 0,ls=0.5,diis   390  -1887.8547576446 -7.20D-05  2.73D-05  1.15D-04  2022.4
                                                     4.90D-05  1.27D-04
 d= 0,ls=0.5,diis   391  -1887.8548217264 -6.41D-05  2.56D-05  1.46D-04  2026.6
                                                     4.79D-05  1.50D-04
 d= 0,ls=0.5,diis   392  -1887.8548850965 -6.34D-05  2.85D-05  1.71D-04  2032.3
                                                     4.46D-05  1.69D-04
 d= 0,ls=0.5,diis   393  -1887.8549080614 -2.30D-05  2.38D-05  2.61D-04  2037.3
                                                     4.22D-05  2.36D-04
 d= 0,ls=0.5,diis   394  -1887.8549290844 -2.10D-05  2.08D-05  3.30D-04  2042.0
                                                     4.06D-05  2.82D-04
 d= 0,ls=0.5,diis   395  -1887.8549532044 -2.41D-05  1.70D-05  3.79D-04  2047.1
                                                     3.76D-05  3.12D-04
 d= 0,ls=0.5,diis   396  -1887.8549768674 -2.37D-05  2.90D-05  4.13D-04  2053.7
                                                     4.17D-05  3.36D-04
 d= 0,ls=0.5,diis   397  -1887.8550408388 -6.40D-05  2.90D-05  3.78D-04  2059.1
                                                     3.70D-05  3.09D-04
 d= 0,ls=0.5,diis   398  -1887.8551000497 -5.92D-05  2.64D-05  3.88D-04  2063.8
                                                     3.57D-05  3.15D-04
 d= 0,ls=0.5,diis   399  -1887.8551545929 -5.45D-05  2.12D-05  4.13D-04  2068.2
                                                     3.40D-05  3.32D-04
 d= 0,ls=0.5,diis   400  -1887.8551984267 -4.38D-05  4.85D-05  4.55D-04  2072.8
                                                     5.94D-05  3.62D-04
 d= 0,ls=0.5,diis   401  -1887.8553184700 -1.20D-04  8.16D-05  3.94D-04  2077.2
                                                     9.04D-05  2.95D-04
 d= 0,ls=0.5,diis   402  -1887.8555201675 -2.02D-04  6.11D-05  2.39D-04  2082.1
                                                     7.80D-05  1.87D-04
 d= 0,ls=0.5,diis   403  -1887.8556777428 -1.58D-04  5.39D-05  2.30D-04  2087.9
                                                     6.63D-05  1.92D-04
 d= 0,ls=0.5,diis   404  -1887.8558052322 -1.27D-04  5.58D-05  2.77D-04  2092.6
                                                     6.66D-05  2.35D-04
 d= 0,ls=0.5,diis   405  -1887.8559436550 -1.38D-04  6.70D-05  2.70D-04  2098.6
                                                     7.83D-05  2.54D-04
 d= 0,ls=0.5,diis   406  -1887.8561056326 -1.62D-04  5.99D-05  2.46D-04  2102.9
                                                     7.20D-05  2.62D-04
 d= 0,ls=0.5,diis   407  -1887.8562593355 -1.54D-04  5.33D-05  2.66D-04  2107.8
                                                     6.30D-05  2.93D-04
 d= 0,ls=0.5,diis   408  -1887.8563828354 -1.23D-04  4.77D-05  3.29D-04  2113.6
                                                     5.50D-05  3.59D-04
 d= 0,ls=0.5,diis   409  -1887.8564904822 -1.08D-04  5.95D-05  3.82D-04  2117.9
                                                     7.15D-05  4.25D-04
 d= 0,ls=0.5,diis   410  -1887.8566726843 -1.82D-04  5.60D-05  3.15D-04  2123.3
                                                     7.24D-05  3.83D-04
 d= 0,ls=0.5,diis   411  -1887.8568543930 -1.82D-04  4.74D-05  2.83D-04  2128.4
                                                     6.51D-05  3.71D-04
 d= 0,ls=0.5,diis   412  -1887.8570066124 -1.52D-04  3.84D-05  3.06D-04  2133.7
                                                     5.68D-05  3.96D-04
 d= 0,ls=0.5,diis   413  -1887.8571248902 -1.18D-04  3.34D-05  3.41D-04  2138.2
                                                     5.35D-05  4.23D-04
 d= 0,ls=0.5,diis   414  -1887.8572379640 -1.13D-04  3.22D-05  3.64D-04  2143.9
                                                     5.25D-05  4.34D-04
 d= 0,ls=0.5,diis   415  -1887.8573459733 -1.08D-04  3.08D-05  3.95D-04  2148.8
                                                     5.10D-05  4.49D-04
 d= 0,ls=0.5,diis   416  -1887.8574476085 -1.02D-04  6.02D-05  4.34D-04  2154.4
                                                     8.68D-05  4.68D-04
 d= 0,ls=0.5,diis   417  -1887.8576896630 -2.42D-04  5.14D-05  2.80D-04  2159.5
                                                     9.16D-05  3.11D-04
 d= 0,ls=0.5,diis   418  -1887.8579185554 -2.29D-04  3.95D-05  2.22D-04  2164.7
                                                     7.11D-05  2.43D-04
 d= 0,ls=0.5,diis   419  -1887.8580563351 -1.38D-04  6.44D-05  3.22D-04  2170.3
                                                     9.31D-05  3.16D-04
 d= 0,ls=0.5,diis   420  -1887.8582998390 -2.44D-04  5.09D-05  2.65D-04  2175.6
                                                     8.26D-05  2.57D-04
 d= 0,ls=0.5,diis   421  -1887.8585003054 -2.00D-04  7.26D-05  3.17D-04  2180.7
                                                     1.08D-04  2.90D-04
 d= 0,ls=0.5,diis   422  -1887.8587849607 -2.85D-04  6.13D-05  2.91D-04  2186.2
                                                     1.05D-04  2.42D-04
 d= 0,ls=0.5,diis   423  -1887.8590473301 -2.62D-04  5.90D-05  3.26D-04  2191.2
                                                     1.03D-04  2.51D-04
 d= 0,ls=0.5,diis   424  -1887.8593027043 -2.55D-04  4.83D-05  3.79D-04  2196.8
                                                     9.57D-05  2.77D-04
 d= 0,ls=0.5,diis   425  -1887.8594986009 -1.96D-04  4.78D-05  5.41D-04  2202.5
                                                     8.54D-05  3.70D-04
 d= 0,ls=0.5,diis   426  -1887.8596200747 -1.21D-04  3.78D-05  7.72D-04  2207.3
                                                     8.68D-05  5.18D-04
 d= 0,ls=0.5,diis   427  -1887.8597125199 -9.24D-05  6.16D-05  1.01D-03  2212.0
                                                     1.12D-04  6.58D-04
 d= 0,ls=0.5,diis   428  -1887.8599766883 -2.64D-04  5.12D-05  9.11D-04  2216.1
                                                     1.01D-04  5.70D-04
 d= 0,ls=0.5,diis   429  -1887.8601986044 -2.22D-04  4.70D-05  9.82D-04  2222.4
                                                     9.33D-05  6.16D-04
 d= 0,ls=0.5,diis   430  -1887.8603938890 -1.95D-04  6.21D-05  1.11D-03  2227.0
                                                     1.04D-04  7.01D-04
 d= 0,ls=0.5,diis   431  -1887.8606765958 -2.83D-04  6.47D-05  1.10D-03  2231.7
                                                     1.05D-04  6.81D-04
 d= 0,ls=0.5,diis   432  -1887.8609574788 -2.81D-04  5.75D-05  1.17D-03  2236.6
                                                     1.01D-04  7.27D-04
 d= 0,ls=0.5,diis   433  -1887.8611932563 -2.36D-04  5.66D-05  1.34D-03  2241.7
                                                     1.05D-04  8.52D-04
 d= 0,ls=0.5,diis   434  -1887.8614041954 -2.11D-04  5.36D-05  1.56D-03  2247.8
                                                     1.06D-04  1.02D-03
 d= 0,ls=0.5,diis   435  -1887.8616091146 -2.05D-04  4.91D-05  1.79D-03  2252.7
                                                     9.67D-05  1.19D-03
 d= 0,ls=0.5,diis   436  -1887.8617204380 -1.11D-04  5.39D-05  2.18D-03  2257.3
                                                     9.88D-05  1.48D-03
 d= 0,ls=0.5,diis   437  -1887.8615833982  1.37D-04  3.84D-05  2.85D-03  2261.3
                                                     9.27D-05  2.03D-03
 d= 0,ls=0.5,diis   438  -1887.8614689615  1.14D-04  6.92D-05  3.39D-03  2266.2
                                                     1.14D-04  2.44D-03
 d= 0,ls=0.5,diis   439  -1887.8617885588 -3.20D-04  8.73D-05  3.09D-03  2271.3
                                                     1.20D-04  2.17D-03
 d= 0,ls=0.5,diis   440  -1887.8622203870 -4.32D-04  7.76D-05  2.74D-03  2275.8
                                                     1.05D-04  1.90D-03
 d= 0,ls=0.5,diis   441  -1887.8626032339 -3.83D-04  9.75D-05  2.60D-03  2280.7
                                                     1.20D-04  1.78D-03
 d= 0,ls=0.5,diis   442  -1887.8631055209 -5.02D-04  9.77D-05  2.29D-03  2286.8
                                                     1.19D-04  1.53D-03
 d= 0,ls=0.5,diis   443  -1887.8635826639 -4.77D-04  8.31D-05  2.13D-03  2291.4
                                                     1.03D-04  1.40D-03
 d= 0,ls=0.5,diis   444  -1887.8639581107 -3.75D-04  8.89D-05  2.20D-03  2297.6
                                                     1.09D-04  1.47D-03
 d= 0,ls=0.5,diis   445  -1887.8643527947 -3.95D-04  1.41D-04  2.30D-03  2303.3
                                                     1.48D-04  1.56D-03
 d= 0,ls=0.5,diis   446  -1887.8651257764 -7.73D-04  1.32D-04  1.68D-03  2309.1
                                                     1.34D-04  1.06D-03
 d= 0,ls=0.5,diis   447  -1887.8658082361 -6.82D-04  2.20D-04  1.31D-03  2313.6
                                                     2.23D-04  7.90D-04
 d= 0,ls=0.5,diis   448  -1887.8668103063 -1.00D-03  2.36D-04  5.58D-04  2318.5
                                                     2.43D-04  2.35D-04
 d= 0,ls=0.5,diis   449  -1887.8677405048 -9.30D-04  1.78D-04  3.45D-04  2323.4
                                                     1.78D-04  1.63D-04
[...]
   146     -4.320860  2 V  gxxxx            158      4.332668  2 V  gyyzz      
   151     -4.289814  2 V  gxxzz            156      4.284848  2 V  gyyyy      
    32      3.435793  1 V  dyz              109      3.445241  2 V  dxy        
    28     -2.811423  1 V  dxx               31      2.801613  1 V  dyy        
 
 Vector  146  Occ=0.000000D+00  E= 5.608864D+00
              MO Center=  4.0D-04, -1.1D-03, -1.1D+00, r^2= 3.2D+00
   Bfn.  Coefficient  Atom+Function         Bfn.  Coefficient  Atom+Function  
  ----- ------------  ---------------      ----- ------------  ---------------
   109     12.886083  2 V  dxy              147     -8.732543  2 V  gxxxy      
   152     -8.732691  2 V  gxyyy            154     -8.747648  2 V  gxyzz      
    29     -5.694612  1 V  dxy               74      3.890000  1 V  gxyzz      
    67      3.821451  1 V  gxxxy             72      3.822288  1 V  gxyyy      
   111      2.281148  2 V  dyy              108     -2.255012  2 V  dxx        
 
 Vector  147  Occ=0.000000D+00  E= 5.709030D+00
              MO Center= -3.8D-04,  4.6D-04, -8.4D-01, r^2= 3.7D+00
   Bfn.  Coefficient  Atom+Function         Bfn.  Coefficient  Atom+Function  
  ----- ------------  ---------------      ----- ------------  ---------------
   110     11.361377  2 V  dxz              155     -7.699606  2 V  gxzzz      
   148     -7.567323  2 V  gxxxz            153     -7.567816  2 V  gxyyz      
   112      7.449599  2 V  dyz               30      6.349512  1 V  dxz        
   159     -5.048495  2 V  gyzzz            150     -4.963714  2 V  gxxyz      
   157     -4.957053  2 V  gyyyz             32      4.402665  1 V  dyz        
 
 Vector  148  Occ=0.000000D+00  E= 5.710648D+00
              MO Center=  7.0D-04, -5.7D-04, -5.4D-01, r^2= 4.2D+00
   Bfn.  Coefficient  Atom+Function         Bfn.  Coefficient  Atom+Function  
  ----- ------------  ---------------      ----- ------------  ---------------
   112     10.572777  2 V  dyz               32      7.647765  1 V  dyz        
   110     -7.139296  2 V  dxz              159     -7.167217  2 V  gyzzz      
   150     -7.021068  2 V  gxxyz            157     -7.018321  2 V  gyyyz      
    79     -5.201884  1 V  gyzzz             70     -5.005763  1 V  gxxyz      
    77     -5.006209  1 V  gyyyz             30     -4.913256  1 V  dxz        
 
 Vector  149  Occ=0.000000D+00  E= 5.840920D+00
              MO Center= -8.9D-04,  1.6D-03,  1.1D+00, r^2= 3.4D+00
   Bfn.  Coefficient  Atom+Function         Bfn.  Coefficient  Atom+Function  
  ----- ------------  ---------------      ----- ------------  ---------------
    33      9.334965  1 V  dzz               80     -5.959159  1 V  gzzzz      
    69      5.257216  1 V  gxxyy            113     -4.073714  2 V  dzz        
    31     -3.723763  1 V  dyy               28     -3.704250  1 V  dxx        
    71     -3.075223  1 V  gxxzz             78     -3.065966  1 V  gyyzz      
    76      2.634943  1 V  gyyyy             66      2.621547  1 V  gxxxx      
 
 Vector  150  Occ=0.000000D+00  E= 5.916374D+00
              MO Center= -4.5D-05,  3.3D-04, -1.1D+00, r^2= 3.3D+00
   Bfn.  Coefficient  Atom+Function         Bfn.  Coefficient  Atom+Function  
  ----- ------------  ---------------      ----- ------------  ---------------
   113      9.214462  2 V  dzz              160     -5.960649  2 V  gzzzz      
   149      5.414026  2 V  gxxyy             33      3.921305  1 V  dzz        
   111     -3.938148  2 V  dyy              108     -3.868051  2 V  dxx        
   151     -3.234885  2 V  gxxzz            158     -3.184212  2 V  gyyzz      
   156      2.730807  2 V  gyyyy            146      2.683234  2 V  gxxxx      
 
 Vector  151  Occ=0.000000D+00  E= 8.054916D+00
              MO Center=  1.3D-05,  3.0D-06,  1.5D+00, r^2= 8.3D-01
   Bfn.  Coefficient  Atom+Function         Bfn.  Coefficient  Atom+Function  
  ----- ------------  ---------------      ----- ------------  ---------------
    13      3.193665  1 V  px                46     -2.349632  1 V  fxxx       
    49     -2.349984  1 V  fxyy              51     -2.353309  1 V  fxzz       
    56     -2.050609  1 V  fxxx              59     -2.050478  1 V  fxyy       
    61     -2.049010  1 V  fxzz              14      1.654562  1 V  py         
    10      1.634454  1 V  px                16      1.596705  1 V  px         
 
 Vector  152  Occ=0.000000D+00  E= 8.070505D+00
              MO Center= -1.1D-04,  2.0D-04,  1.5D+00, r^2= 8.6D-01
   Bfn.  Coefficient  Atom+Function         Bfn.  Coefficient  Atom+Function  
  ----- ------------  ---------------      ----- ------------  ---------------
    14      3.187133  1 V  py                47     -2.344418  1 V  fxxy       
    52     -2.344951  1 V  fyyy              54     -2.350957  1 V  fyzz       
    57     -2.045731  1 V  fxxy              62     -2.045515  1 V  fyyy       
    64     -2.041592  1 V  fyzz              13     -1.650642  1 V  px         
    11      1.631537  1 V  py                17      1.590882  1 V  py         
 
 Vector  153  Occ=0.000000D+00  E= 8.118016D+00
              MO Center= -1.9D-05,  8.1D-05,  8.5D-01, r^2= 2.4D+00
   Bfn.  Coefficient  Atom+Function         Bfn.  Coefficient  Atom+Function  
  ----- ------------  ---------------      ----- ------------  ---------------
    15      3.236488  1 V  pz                55     -2.388153  1 V  fzzz       
    48     -2.352468  1 V  fxxz              53     -2.356326  1 V  fyyz       
    58     -2.293288  1 V  fxxz              63     -2.290994  1 V  fyyz       
    65     -2.251127  1 V  fzzz              18      2.083973  1 V  pz         
    95     -1.680708  2 V  pz                12      1.602884  1 V  pz         
 
 Vector  154  Occ=0.000000D+00  E= 8.205791D+00
              MO Center=  1.4D-04,  2.3D-05, -1.5D+00, r^2= 8.3D-01
   Bfn.  Coefficient  Atom+Function         Bfn.  Coefficient  Atom+Function  
  ----- ------------  ---------------      ----- ------------  ---------------
    93      3.508346  2 V  px               126     -2.597419  2 V  fxxx       
   129     -2.598201  2 V  fxyy             131     -2.602827  2 V  fxzz       
   136     -2.259447  2 V  fxxx             139     -2.259339  2 V  fxyy       
   141     -2.249190  2 V  fxzz              90      1.817396  2 V  px         
    96      1.775768  2 V  px                94      0.662607  2 V  py         
 
 Vector  155  Occ=0.000000D+00  E= 8.207780D+00
              MO Center=  1.8D-04, -9.6D-04, -1.5D+00, r^2= 8.8D-01
   Bfn.  Coefficient  Atom+Function         Bfn.  Coefficient  Atom+Function  
  ----- ------------  ---------------      ----- ------------  ---------------
    94      3.497822  2 V  py               127     -2.591343  2 V  fxxy       
   132     -2.591344  2 V  fyyy             134     -2.592273  2 V  fyzz       
   137     -2.252995  2 V  fxxy             142     -2.253157  2 V  fyyy       
   144     -2.243795  2 V  fyzz              91      1.812955  2 V  py         
    97      1.771912  2 V  py                93     -0.654681  2 V  px         
 
 Vector  156  Occ=0.000000D+00  E= 8.339783D+00
              MO Center= -2.2D-04,  6.6D-04, -8.6D-01, r^2= 2.4D+00
   Bfn.  Coefficient  Atom+Function         Bfn.  Coefficient  Atom+Function  
  ----- ------------  ---------------      ----- ------------  ---------------
    95      3.284241  2 V  pz                98      2.675786  2 V  pz         
   138     -2.520607  2 V  fxxz             143     -2.521375  2 V  fyyz       
   135     -2.421344  2 V  fzzz             145     -2.432540  2 V  fzzz       
   128     -2.399735  2 V  fxxz             133     -2.397421  2 V  fyyz       
   101     -1.976269  2 V  pz                18      1.857581  1 V  pz         
 
 Vector  157  Occ=0.000000D+00  E= 1.149975D+01
              MO Center=  3.2D-05, -6.6D-05,  1.6D+00, r^2= 7.5D-01
   Bfn.  Coefficient  Atom+Function         Bfn.  Coefficient  Atom+Function  
  ----- ------------  ---------------      ----- ------------  ---------------
     4     13.603795  1 V  s                  3    -12.332943  1 V  s          
    69     -6.358705  1 V  gxxyy             71     -6.361090  1 V  gxxzz      
    78     -6.364264  1 V  gyyzz              5      5.895379  1 V  s          
    66     -3.178213  1 V  gxxxx             76     -3.179525  1 V  gyyyy      
    80     -3.181478  1 V  gzzzz              2     -2.546516  1 V  s          
 
 Vector  158  Occ=0.000000D+00  E= 1.164246D+01
              MO Center= -4.4D-06,  1.8D-05, -1.6D+00, r^2= 7.4D-01
   Bfn.  Coefficient  Atom+Function         Bfn.  Coefficient  Atom+Function  
  ----- ------------  ---------------      ----- ------------  ---------------
    84     13.639227  2 V  s                 83    -12.342926  2 V  s          
   149     -6.337191  2 V  gxxyy            151     -6.345505  2 V  gxxzz      
   158     -6.346408  2 V  gyyzz             85      5.831515  2 V  s          
   146     -3.168889  2 V  gxxxx            156     -3.168295  2 V  gyyyy      
   160     -3.174475  2 V  gzzzz             82     -2.548433  2 V  s          
 
 Vector  159  Occ=0.000000D+00  E= 4.682226D+01
              MO Center=  1.0D-07, -1.3D-07,  1.6D+00, r^2= 1.8D-01
   Bfn.  Coefficient  Atom+Function         Bfn.  Coefficient  Atom+Function  
  ----- ------------  ---------------      ----- ------------  ---------------
     4     27.916035  1 V  s                  3     25.192754  1 V  s          
    22    -20.620490  1 V  dxx               25    -20.620510  1 V  dyy        
    27    -20.600269  1 V  dzz               33     -3.738122  1 V  dzz        
    28     -3.568261  1 V  dxx               31     -3.567934  1 V  dyy        
     2      3.198747  1 V  s                 69     -2.380272  1 V  gxxyy      
 
 Vector  160  Occ=0.000000D+00  E= 4.690367D+01
              MO Center=  4.8D-07, -1.2D-06, -1.6D+00, r^2= 1.8D-01
   Bfn.  Coefficient  Atom+Function         Bfn.  Coefficient  Atom+Function  
  ----- ------------  ---------------      ----- ------------  ---------------
    84     27.914686  2 V  s                 83     25.189696  2 V  s          
   102    -20.620177  2 V  dxx              105    -20.620178  2 V  dyy        
   107    -20.599715  2 V  dzz              113     -3.740357  2 V  dzz        
   108     -3.568429  2 V  dxx              111     -3.568285  2 V  dyy        
    82      3.197472  2 V  s                149     -2.382905  2 V  gxxyy      
 

   alpha - beta orbital overlaps 
   ----------------------------- 


   alpha      1      2      3      4      5      6      7      8      9     10
    beta      1      2      3      4      5      6      7      8      9     10
 overlap   1.000  1.000  1.000  1.000  0.997  0.927  0.928  0.999  1.000  0.999


   alpha     11     12     13     14     15     16     17     18     19     20
    beta     12     11     16     17     18     13     14     15     19     31
 overlap   1.000  1.000  1.000  0.970  0.969  0.982  0.923  0.938  0.747  0.824


   alpha     21     22     23     24     25     26     27     28     29     30
    beta     32     33     24     32     29     24     23     21     20     22
 overlap   0.577  0.938  0.736  0.644  0.643  0.542  0.861  0.580  0.664  0.659


   alpha     31     32     33     34     35     36     37     38     39     40
    beta     27     26     28     36     34     37     35     40     38     39
 overlap   0.614  0.672  0.726  0.862  0.795  0.751  0.744  0.837  0.727  0.759


   alpha     41     42     43     44     45     46     47     48     49     50
    beta     42     41     43     45     44     47     46     49     48     51
 overlap   0.921  0.886  0.850  0.620  0.628  0.922  0.874  0.782  0.789  0.828


   alpha     51     52     53     54     55     56     57     58     59     60
    beta     50     52     53     55     54     56     59     57     60     63
 overlap   0.773  0.903  0.944  0.881  0.823  0.977  0.670  0.904  0.670  0.869


   alpha     61     62     63     64     65     66     67     68     69     70
    beta     62     61     58     66     64     67     65     68     69     70
 overlap   0.785  0.612  0.768  0.939  0.908  0.831  0.820  0.970  0.663  0.657


   alpha     71     72     73     74     75     76     77     78     79     80
    beta     79     78     83     77     81     82     77     74     71     84
 overlap   0.922  0.865  0.725  0.542  0.968  0.873  0.532  0.550  0.861  0.556


   alpha     81     82     83     84     85     86     87     88     89     90
    beta     75     72     73     80     85     87     86     89     88     90
 overlap   0.874  0.745  0.716  0.691  0.717  0.972  0.938  0.742  0.741  0.991


   alpha     91     92     93     94     95     96     97     98     99    100
    beta     96     95     94     93     92     91     98     97    100     99
 overlap   0.900  0.804  0.803  0.653  0.802  0.908  0.817  0.716  0.747  0.710


   alpha    101    102    103    104    105    106    107    108    109    110
    beta    104    105    103    101    102    106    107    113    123    125
 overlap   0.667  0.661  0.959  0.776  0.774  0.964  0.859  0.481  0.701  0.773


   alpha    111    112    113    114    115    116    117    118    119    120
    beta    124    120    118    119    121    119    116    111    114    112
 overlap   0.686  0.783  0.646  0.590  0.631  0.558  0.797  0.700  0.712  0.806


   alpha    121    122    123    124    125    126    127    128    129    130
    beta    115    117    108    109    110    117    139    132    135    134
 overlap   0.777  0.611  0.739  0.855  0.897  0.570  0.796  0.683  0.780  0.939


   alpha    131    132    133    134    135    136    137    138    139    140
    beta    136    137    133    131    130    128    129    138    127    140
 overlap   0.925  0.732  0.895  0.902  0.782  0.921  0.910  0.658  0.827  0.914


   alpha    141    142    143    144    145    146    147    148    149    150
    beta    142    141    144    143    145    146    148    147    149    150
 overlap   0.891  0.818  0.854  0.902  0.599  0.629  0.960  0.911  0.810  0.810


   alpha    151    152    153    154    155    156    157    158    159    160
    beta    154    155    153    151    152    156    158    157    159    160
 overlap   0.870  0.881  0.901  0.882  0.897  0.906  0.999  0.999  0.996  0.996


     --------------------------
     Expectation value of S2:  
     --------------------------
      <S2> =      5.1705 (Exact =     2.0000)
 

 center of mass
 --------------
 x =   0.00000000 y =   0.00000000 z =   0.00000000

 moments of inertia (a.u.)
 ------------------
         891.739387201827           0.000000000000           0.000000000000
           0.000000000000         891.739387201827           0.000000000000
           0.000000000000           0.000000000000           0.000000000000
 
     Multipole analysis of the density
     ---------------------------------
 
     L   x y z        total         alpha         beta         nuclear
     -   - - -        -----         -----         ----         -------
     0   0 0 0     -0.000000    -24.000000    -22.000000     46.000000
 
     1   1 0 0     -0.005002      0.007871     -0.012873      0.000000
     1   0 1 0      0.018849     -0.007569      0.026418      0.000000
     1   0 0 1      0.004919     11.134034    -11.129115      0.000000
 
     2   2 0 0    -27.105948    -15.820753    -11.285195      0.000000
     2   1 1 0      0.211092      0.325459     -0.114366      0.000000
     2   1 0 1      0.055978      0.207929     -0.151951      0.000000
     2   0 2 0    -27.298617    -16.218268    -11.080349      0.000000
     2   0 1 1     -0.195690     -0.483892      0.288202      0.000000
     2   0 0 2    -22.112026   -222.095408   -202.615665    402.599048
 

------------------------------------------------------------
EAF file 0: "./V2.aoints.0" size=44564480 bytes
------------------------------------------------------------
               write      read    awrite     aread      wait
               -----      ----    ------     -----      ----
     calls:       86       970         0     81396     81396
   data(b): 4.51e+07  5.09e+08  0.00e+00  4.27e+10
   time(s): 0.00e+00  0.00e+00  0.00e+00  0.00e+00  0.00e+00
rate(mb/s): 0.00e+00  0.00e+00
------------------------------------------------------------


 Parallel integral file used     332 records with       0 large values


 Task  times  cpu:     4951.5s     wall:     5137.8s
 
 
                                NWChem Input Module
                                -------------------
 
 
 Summary of allocated global arrays
-----------------------------------
  No active global arrays



                         GA Statistics for process    0
                         ------------------------------

       create   destroy   get      put      acc     scatter   gather  read&inc
calls: 2.15e+04 2.15e+04 3.11e+05 1.75e+05 8.72e+04    0        0       72     
number of processes/call 1.37e+00 1.08e+00 1.60e+00 0.00e+00 0.00e+00
bytes total:             1.40e+10 2.09e+09 7.15e+09 0.00e+00 0.00e+00 5.76e+02
bytes remote:            5.75e+09 6.48e+08 2.68e+09 0.00e+00 0.00e+00 0.00e+00
Max memory consumed for GA by this process: 3942400 bytes
 
MA_summarize_allocated_blocks: starting scan ...
MA_summarize_allocated_blocks: scan completed: 0 heap blocks, 0 stack blocks
MA usage statistics:

	allocation statistics:
					      heap	     stack
					      ----	     -----
	current number of blocks	         0	         0
	maximum number of blocks	        20	        51
	current total bytes		         0	         0
	maximum total bytes		   1338424	  44616760
	maximum total K-bytes		      1339	     44617
	maximum total M-bytes		         2	        45
 
 
                                     CITATION
                                     --------
                Please cite the following reference when publishing
                           results obtained with NWChem:
 
                 M. Valiev, E.J. Bylaska, N. Govind, K. Kowalski,
              T.P. Straatsma, H.J.J. van Dam, D. Wang, J. Nieplocha,
                        E. Apra, T.L. Windus, W.A. de Jong
                 "NWChem: a comprehensive and scalable open-source
                  solution for large scale molecular simulations"
                      Comput. Phys. Commun. 181, 1477 (2010)
                           doi:10.1016/j.cpc.2010.04.018
 
                                      AUTHORS
                                      -------
          E. Apra, E. J. Bylaska, W. A. de Jong, N. Govind, K. Kowalski,
       T. P. Straatsma, M. Valiev, H. J. J. van Dam, D. Wang, T. L. Windus,
        J. Hammond, J. Autschbach, K. Bhaskaran-Nair, J. Brabec, K. Lopata,
    S. A. Fischer, S. Krishnamoorthy, M. Jacquelin, W. Ma, M. Klemm, O. Villa,
      Y. Chen, V. Anisimov, F. Aquino, S. Hirata, M. T. Hackler, V. Konjkov,
            D. Mejia-Rodriguez, T. Risthaus, M. Malagoli, A. Marenich,
   A. Otero-de-la-Roza, J. Mullin, P. Nichols, R. Peverati, J. Pittner, Y. Zhao,
        P.-D. Fan, A. Fonari, M. J. Williamson, R. J. Harrison, J. R. Rehr,
      M. Dupuis, D. Silverstein, D. M. A. Smith, J. Nieplocha, V. Tipparaju,
    M. Krishnan, B. E. Van Kuiken, A. Vazquez-Mayagoitia, L. Jensen, M. Swart,
      Q. Wu, T. Van Voorhis, A. A. Auer, M. Nooijen, L. D. Crosby, E. Brown,
      G. Cisneros, G. I. Fann, H. Fruchtl, J. Garza, K. Hirao, R. A. Kendall,
      J. A. Nichols, K. Tsemekhman, K. Wolinski, J. Anchell, D. E. Bernholdt,
      P. Borowski, T. Clark, D. Clerc, H. Dachsel, M. J. O. Deegan, K. Dyall,
    D. Elwood, E. Glendening, M. Gutowski, A. C. Hess, J. Jaffe, B. G. Johnson,
     J. Ju, R. Kobayashi, R. Kutteh, Z. Lin, R. Littlefield, X. Long, B. Meng,
      T. Nakajima, S. Niu, L. Pollack, M. Rosing, K. Glaesemann, G. Sandrone,
      M. Stave, H. Taylor, G. Thomas, J. H. van Lenthe, A. T. Wong, Z. Zhang.

 Total times  cpu:     4951.7s     wall:     5138.0s
