  NWChem w/ OpenMP: maximum threads =  1
                                         
                                         
 
 
              Northwest Computational Chemistry Package (NWChem) 6.8
              ------------------------------------------------------
 
 
                    Environmental Molecular Sciences Laboratory
                       Pacific Northwest National Laboratory
                                Richland, WA 99352
 
                              Copyright (c) 1994-2018
                       Pacific Northwest National Laboratory
                            Battelle Memorial Institute
 
             NWChem is an open-source computational chemistry package
                        distributed under the terms of the
                      Educational Community License (ECL) 2.0
             A copy of the license is included with this distribution
                              in the LICENSE.TXT file
 
                                  ACKNOWLEDGMENT
                                  --------------

            This software and its documentation were developed at the
            EMSL at Pacific Northwest National Laboratory, a multiprogram
            national laboratory, operated for the U.S. Department of Energy
            by Battelle under Contract Number DE-AC05-76RL01830. Support
            for this work was provided by the Department of Energy Office
            of Biological and Environmental Research, Office of Basic
            Energy Sciences, and the Office of Advanced Scientific Computing.


           Job information
           ---------------

    hostname        = r8n4.niserhpc.org
    program         = /home/rabeet/nwchem-6.8/bin/LINUX64/nwchem
    date            = Mon Jul  1 11:14:12 2019

    compiled        = Fri_Jun_28_18:24:12_2019
    source          = /home/rabeet/nwchem-6.8
    nwchem branch   = Development
    nwchem revision = N/A
    ga revision     = 5.6.5
    use scalapack   = T
    input           = nwchem.nw
    prefix          = C.
    data base       = ./C.db
    status          = startup
    nproc           =       16
    time left       =     -1s



           Memory information
           ------------------

    heap     =   13107200 doubles =    100.0 Mbytes
    stack    =   13107197 doubles =    100.0 Mbytes
    global   =   26214400 doubles =    200.0 Mbytes (distinct from heap & stack)
    total    =   52428797 doubles =    400.0 Mbytes
    verify   = yes
    hardfail = no 


           Directory information
           ---------------------
 
  0 permanent = .
  0 scratch   = .
 
 
 
 
                                NWChem Input Module
                                -------------------
 
 

 Scaling coordinates for geometry "geometry" by  1.889725989
 (inverse scale =  0.529177249)

 
 
                             Geometry "geometry" -> ""
                             -------------------------
 
 Output coordinates in angstroms (scale by  1.889725989 to convert to a.u.)
 
  No.       Tag          Charge          X              Y              Z
 ---- ---------------- ---------- -------------- -------------- --------------
    1 C                    6.0000     0.00000000     0.00000000     0.00000000
 
      Atomic Mass 
      ----------- 
 
      C                 12.000000
 

 Effective nuclear repulsion energy (a.u.)       0.0000000000

            Nuclear Dipole moment (a.u.) 
            ----------------------------
        X                 Y               Z
 ---------------- ---------------- ----------------
     0.0000000000     0.0000000000     0.0000000000
 
 
            XYZ format geometry
            -------------------
     1
 geometry
 C                     0.00000000     0.00000000     0.00000000
 


 Summary of "ao basis" -> "" (cartesian)
 ------------------------------------------------------------------------------
       Tag                 Description            Shells   Functions and Types
 ---------------- ------------------------------  ------  ---------------------
 *                     6-311++G(3df,3pd)              on all atoms 


 
                                 NWChem DFT Module
                                 -----------------
 
 
                      Basis "ao basis" -> "ao basis" (cartesian)
                      -----
  C (Carbon)
  ----------
            Exponent  Coefficients 
       -------------- ---------------------------------------------------------
  1 S  4.56324000E+03  0.001967
  1 S  6.82024000E+02  0.015231
  1 S  1.54973000E+02  0.076127
  1 S  4.44553000E+01  0.260801
  1 S  1.30290000E+01  0.616462
  1 S  1.82773000E+00  0.221006
 
  2 S  2.09642000E+01  0.114660
  2 S  4.80331000E+00  0.919999
  2 S  1.45933000E+00 -0.003031
 
  3 P  2.09642000E+01  0.040249
  3 P  4.80331000E+00  0.237594
  3 P  1.45933000E+00  0.815854
 
  4 S  4.83456000E-01  1.000000
 
  5 P  4.83456000E-01  1.000000
 
  6 S  1.45585000E-01  1.000000
 
  7 P  1.45585000E-01  1.000000
 
  8 S  4.38000000E-02  1.000000
 
  9 P  4.38000000E-02  1.000000
 
 10 D  2.50400000E+00  1.000000
 
 11 D  6.26000000E-01  1.000000
 
 12 D  1.56500000E-01  1.000000
 
 13 F  8.00000000E-01  1.000000
 


 Summary of "ao basis" -> "ao basis" (cartesian)
 ------------------------------------------------------------------------------
       Tag                 Description            Shells   Functions and Types
 ---------------- ------------------------------  ------  ---------------------
 C                     6-311++G(3df,3pd)            13       45   5s4p3d1f




 Summary of "ao basis" -> "ao basis" (cartesian)
 ------------------------------------------------------------------------------
       Tag                 Description            Shells   Functions and Types
 ---------------- ------------------------------  ------  ---------------------
 C                     6-311++G(3df,3pd)            13       45   5s4p3d1f


  Caching 1-el integrals 
 
            General Information
            -------------------
          SCF calculation type: DFT
          Wavefunction type:  spin polarized.
          No. of atoms     :     1
          No. of electrons :     6
           Alpha electrons :     4
            Beta electrons :     2
          Charge           :     0
          Spin multiplicity:     3
          Use of symmetry is: off; symmetry adaption is: off
          Maximum number of iterations: ***
          AO basis - number of functions:    45
                     number of shells:    13
          Convergence on energy requested:  1.00D-06
          Convergence on density requested:  1.00D-05
          Convergence on gradient requested:  5.00D-04
 
              XC Information
              --------------
                  TPSS metaGGA Exchange Functional  1.000          
             TPSS03 metaGGA Correlation Functional  1.000          
 
             Grid Information
             ----------------
          Grid used for XC integration:  medium    
          Radial quadrature: Mura-Knowles        
          Angular quadrature: Lebedev. 
          Tag              B.-S. Rad. Rad. Pts. Rad. Cut. Ang. Pts.
          ---              ---------- --------- --------- ---------
          C                   0.70       49           8.0       434
          Grid pruning is: on 
          Number of quadrature shells:    49
          Spatial weights used:  Erf1
 
          Convergence Information
          -----------------------
          Convergence aids based upon iterative change in 
          total energy or number of iterations. 
          Levelshifting, if invoked, occurs when the 
          HOMO/LUMO gap drops below (HL_TOL):  1.00D-02
          DIIS, if invoked, will attempt to extrapolate 
          using up to (NFOCK): 10 stored Fock matrices.

                    Damping( 0%)  Levelshifting(0.5)       DIIS
                  --------------- ------------------- ---------------
          dE  on:    start            ASAP                start   
          dE off:    2 iters        *** iters           *** iters 

 
      Screening Tolerance Information
      -------------------------------
          Density screening/tol_rho:  1.00D-10
          AO Gaussian exp screening on grid/accAOfunc:  14
          CD Gaussian exp screening on grid/accCDfunc:  20
          XC Gaussian exp screening on grid/accXCfunc:  20
          Schwarz screening/accCoul:  1.00D-08

 
      Superposition of Atomic Density Guess
      -------------------------------------
 
 Sum of atomic energies:         -37.66911787
 
      Non-variational initial energy
      ------------------------------

 Total energy =     -37.313499
 1-e energy   =     -50.414240
 2-e energy   =      13.100741
 HOMO         =      -0.080018
 LUMO         =      -0.080018
 
   Time after variat. SCF:      0.4
   Time prior to 1st pass:      0.4

 #quartets = 4.186D+03 #integrals = 9.141D+04 #direct =  0.0% #cached =100.0%


 Integral file          = ./C.aoints.00
 Record size in doubles =    65536    No. of integs per rec  =    43688
 Max. records in memory =        3    Max. records in file   = 11055782
 No. of bits per label  =        8    No. of bits per value  =       64


File balance: exchanges=     0  moved=     0  time=   0.0


 Grid_pts file          = ./C.gridpts.00
 Record size in doubles =  12289        No. of grid_pts per rec  =   3070
 Max. records in memory =      2        Max. recs in file   =   2246063


           Memory utilization after 1st SCF pass: 
           Heap Space remaining (MW):       12.88            12883808
          Stack Space remaining (MW):       13.11            13106724

   convergence    iter        energy       DeltaE   RMS-Dens  Diis-err    time
 ---------------- ----- ----------------- --------- --------- ---------  ------
 d= 0,ls=0.0,diis     1    -37.8099914956 -3.78D+01  8.78D-03  9.68D-02     1.4
                                                     2.74D-03  1.87D-02
 d= 0,ls=0.0,diis     2    -37.8465240422 -3.65D-02  3.38D-03  3.73D-02     1.5
                                                     2.77D-03  1.80D-02
 d= 0,ls=0.0,diis     3    -37.8633680530 -1.68D-02  2.83D-04  6.81D-05     1.6
                                                     6.25D-04  2.14D-04
 d= 0,ls=0.0,diis     4    -37.8634364776 -6.84D-05  5.94D-05  8.28D-06     1.6
                                                     4.93D-05  1.94D-06
 d= 0,ls=0.0,diis     5    -37.8634404754 -4.00D-06  4.77D-06  2.87D-08     1.7
                                                     7.23D-06  3.83D-08
 d= 0,ls=0.0,diis     6    -37.8634404952 -1.99D-08  2.57D-07  5.06D-11     1.8
                                                     1.51D-07  6.40D-11


         Total DFT energy =      -37.863440495209
      One electron energy =      -50.459580366795
           Coulomb energy =       17.835061791984
          Exchange energy =       -5.091512132089
       Correlation energy =       -0.147409788309
 Nuclear repulsion energy =        0.000000000000

 Numeric. integr. density =        5.999999987821

     Total iterative time =      1.4s


 
                    DFT Final Alpha Molecular Orbital Analysis
                    ------------------------------------------
 
 Vector    1  Occ=1.000000D+00  E=-1.012432D+01
              MO Center= -2.8D-17,  1.9D-17,  4.9D-18, r^2= 2.8D-02
   Bfn.  Coefficient  Atom+Function         Bfn.  Coefficient  Atom+Function  
  ----- ------------  ---------------      ----- ------------  ---------------
     1      0.563086  1 C  s                  2      0.464912  1 C  s          
 
 Vector    2  Occ=1.000000D+00  E=-5.480958D-01
              MO Center=  5.6D-15,  4.1D-15, -1.9D-15, r^2= 8.1D-01
   Bfn.  Coefficient  Atom+Function         Bfn.  Coefficient  Atom+Function  
  ----- ------------  ---------------      ----- ------------  ---------------
     6      0.607693  1 C  s                 10      0.600473  1 C  s          
     2     -0.217920  1 C  s                  1     -0.130063  1 C  s          
    33     -0.049246  1 C  dyy               30     -0.047832  1 C  dxx        
    35     -0.043748  1 C  dzz               14      0.039960  1 C  s          
 
 Vector    3  Occ=1.000000D+00  E=-2.303989D-01
              MO Center= -2.7D-15, -2.1D-15,  8.1D-16, r^2= 1.1D+00
   Bfn.  Coefficient  Atom+Function         Bfn.  Coefficient  Atom+Function  
  ----- ------------  ---------------      ----- ------------  ---------------
     8      0.271128  1 C  py                 7      0.254070  1 C  px         
     9     -0.249448  1 C  pz                12      0.250590  1 C  py         
    11      0.234824  1 C  px                13     -0.230551  1 C  pz         
     4      0.183619  1 C  py                 3      0.172065  1 C  px         
     5     -0.168935  1 C  pz                16      0.032573  1 C  py         
 
 Vector    4  Occ=1.000000D+00  E=-2.303988D-01
              MO Center= -1.2D-15,  9.1D-16, -1.2D-15, r^2= 1.1D+00
   Bfn.  Coefficient  Atom+Function         Bfn.  Coefficient  Atom+Function  
  ----- ------------  ---------------      ----- ------------  ---------------
     9      0.365337  1 C  pz                13      0.337661  1 C  pz         
     5      0.247419  1 C  pz                 7      0.227260  1 C  px         
    11      0.210045  1 C  px                 3      0.153909  1 C  px         
     8      0.123161  1 C  py                12      0.113831  1 C  py         
     4      0.083409  1 C  py                17      0.043891  1 C  pz         
 
 Vector    5  Occ=0.000000D+00  E=-1.936300D-01
              MO Center= -1.7D-15,  1.7D-15,  1.2D-16, r^2= 1.2D+00
   Bfn.  Coefficient  Atom+Function         Bfn.  Coefficient  Atom+Function  
  ----- ------------  ---------------      ----- ------------  ---------------
    12      0.322454  1 C  py                 8      0.298263  1 C  py         
    11     -0.279891  1 C  px                 7     -0.258893  1 C  px         
     4      0.219765  1 C  py                 3     -0.190756  1 C  px         
    13      0.065403  1 C  pz                 9      0.060497  1 C  pz         
    16      0.060708  1 C  py                15     -0.052694  1 C  px         
 
 Vector    6  Occ=0.000000D+00  E= 1.700796D-02
              MO Center= -1.9D-14, -3.8D-15, -7.8D-14, r^2= 8.2D+00
   Bfn.  Coefficient  Atom+Function         Bfn.  Coefficient  Atom+Function  
  ----- ------------  ---------------      ----- ------------  ---------------
    14      1.785872  1 C  s                  6     -0.322981  1 C  s          
    30     -0.296237  1 C  dxx               33     -0.296539  1 C  dyy        
    35     -0.295364  1 C  dzz               10     -0.257489  1 C  s          
    29     -0.078371  1 C  dzz               24     -0.077200  1 C  dxx        
    27     -0.076795  1 C  dyy                1      0.041646  1 C  s          
 
 Vector    7  Occ=0.000000D+00  E= 6.004295D-02
              MO Center=  2.6D-14,  9.5D-15,  7.4D-14, r^2= 9.3D+00
   Bfn.  Coefficient  Atom+Function         Bfn.  Coefficient  Atom+Function  
  ----- ------------  ---------------      ----- ------------  ---------------
    17      1.110111  1 C  pz                15      0.378711  1 C  px         
    13     -0.360868  1 C  pz                11     -0.123109  1 C  px         
     5     -0.121600  1 C  pz                16      0.103555  1 C  py         
     9     -0.100126  1 C  pz                 3     -0.041483  1 C  px         
     7     -0.034158  1 C  px                12     -0.033663  1 C  py         
 
 Vector    8  Occ=0.000000D+00  E= 6.004296D-02
              MO Center= -8.1D-15, -6.6D-15,  2.7D-15, r^2= 9.3D+00
   Bfn.  Coefficient  Atom+Function         Bfn.  Coefficient  Atom+Function  
  ----- ------------  ---------------      ----- ------------  ---------------
    15      0.812995  1 C  px                16      0.776642  1 C  py         
    17     -0.349798  1 C  pz                11     -0.264283  1 C  px         
    12     -0.252466  1 C  py                13      0.113710  1 C  pz         
     3     -0.089054  1 C  px                 4     -0.085072  1 C  py         
     7     -0.073328  1 C  px                 8     -0.070049  1 C  py         
 
 Vector    9  Occ=0.000000D+00  E= 6.630555D-02
              MO Center= -1.3D-15,  1.5D-15,  1.4D-15, r^2= 9.2D+00
   Bfn.  Coefficient  Atom+Function         Bfn.  Coefficient  Atom+Function  
  ----- ------------  ---------------      ----- ------------  ---------------
    16      0.882849  1 C  py                15     -0.766325  1 C  px         
    12     -0.309189  1 C  py                11      0.268380  1 C  px         
    17      0.179074  1 C  pz                 4     -0.100957  1 C  py         
     3      0.087632  1 C  px                 8     -0.081171  1 C  py         
     7      0.070457  1 C  px                13     -0.062715  1 C  pz         
 
 Vector   10  Occ=0.000000D+00  E= 3.144873D-01
              MO Center= -7.5D-16, -1.2D-15,  2.9D-15, r^2= 3.1D+00
   Bfn.  Coefficient  Atom+Function         Bfn.  Coefficient  Atom+Function  
  ----- ------------  ---------------      ----- ------------  ---------------
    31      0.770424  1 C  dxy               35     -0.758167  1 C  dzz        
    34      0.644920  1 C  dyz               30      0.489213  1 C  dxx        
    32      0.388677  1 C  dxz               33      0.268958  1 C  dyy        
 
 Vector   11  Occ=0.000000D+00  E= 3.144873D-01
              MO Center= -3.2D-15, -1.9D-15, -4.1D-15, r^2= 3.1D+00
   Bfn.  Coefficient  Atom+Function         Bfn.  Coefficient  Atom+Function  
  ----- ------------  ---------------      ----- ------------  ---------------
    32      1.229571  1 C  dxz               34      0.923654  1 C  dyz        
    31     -0.399987  1 C  dxy               35      0.354010  1 C  dzz        
    33     -0.267252  1 C  dyy               30     -0.086744  1 C  dxx        
    26      0.025815  1 C  dxz        
 
 Vector   12  Occ=0.000000D+00  E= 3.176769D-01
              MO Center=  6.0D-16,  3.2D-17,  4.5D-16, r^2= 3.1D+00
   Bfn.  Coefficient  Atom+Function         Bfn.  Coefficient  Atom+Function  
  ----- ------------  ---------------      ----- ------------  ---------------
    34      1.069212  1 C  dyz               32     -0.712725  1 C  dxz        
    30     -0.611504  1 C  dxx               33      0.411531  1 C  dyy        
    31      0.347268  1 C  dxy               35      0.199914  1 C  dzz        
 
 Vector   13  Occ=0.000000D+00  E= 3.176771D-01
              MO Center=  4.2D-16,  2.5D-17, -3.0D-16, r^2= 3.1D+00
   Bfn.  Coefficient  Atom+Function         Bfn.  Coefficient  Atom+Function  
  ----- ------------  ---------------      ----- ------------  ---------------
    32      0.824533  1 C  dxz               33      0.745337  1 C  dyy        
    34     -0.641369  1 C  dyz               30     -0.584652  1 C  dxx        
    35     -0.160788  1 C  dzz               31      0.026552  1 C  dxy        
 
 Vector   14  Occ=0.000000D+00  E= 3.188076D-01
              MO Center=  5.3D-15,  5.5D-15,  2.3D-15, r^2= 6.5D+00
   Bfn.  Coefficient  Atom+Function         Bfn.  Coefficient  Atom+Function  
  ----- ------------  ---------------      ----- ------------  ---------------
    14      2.056729  1 C  s                 10      1.776523  1 C  s          
    35     -1.601048  1 C  dzz               30     -1.542982  1 C  dxx        
    33     -1.522929  1 C  dyy               24     -0.372994  1 C  dxx        
    27     -0.373389  1 C  dyy               29     -0.371856  1 C  dzz        
     2     -0.243263  1 C  s                 31     -0.141479  1 C  dxy        
 
 Vector   15  Occ=0.000000D+00  E= 3.233231D-01
              MO Center= -1.6D-16,  4.5D-16, -2.2D-16, r^2= 3.1D+00
   Bfn.  Coefficient  Atom+Function         Bfn.  Coefficient  Atom+Function  
  ----- ------------  ---------------      ----- ------------  ---------------
    31      1.431950  1 C  dxy               33     -0.497245  1 C  dyy        
    34     -0.334611  1 C  dyz               30     -0.293838  1 C  dxx        
    35      0.293688  1 C  dzz               32      0.290450  1 C  dxz        
    10      0.217149  1 C  s                 14      0.206423  1 C  s          
    27     -0.051050  1 C  dyy               24     -0.047917  1 C  dxx        
 
 Vector   16  Occ=0.000000D+00  E= 4.964948D-01
              MO Center= -3.8D-15, -6.2D-15,  2.4D-15, r^2= 3.9D+00
   Bfn.  Coefficient  Atom+Function         Bfn.  Coefficient  Atom+Function  
  ----- ------------  ---------------      ----- ------------  ---------------
    12      1.011858  1 C  py                11      0.969450  1 C  px         
    13     -0.839941  1 C  pz                 8     -0.612271  1 C  py         
     7     -0.586611  1 C  px                 9      0.508245  1 C  pz         
    16     -0.467733  1 C  py                15     -0.448130  1 C  px         
    17      0.388264  1 C  pz                 4     -0.144034  1 C  py         
 
 Vector   17  Occ=0.000000D+00  E= 4.964948D-01
              MO Center= -2.2D-16, -9.3D-16, -7.8D-16, r^2= 3.9D+00
   Bfn.  Coefficient  Atom+Function         Bfn.  Coefficient  Atom+Function  
  ----- ------------  ---------------      ----- ------------  ---------------
    13      1.379311  1 C  pz                 9     -0.834616  1 C  pz         
    11      0.780206  1 C  px                17     -0.637588  1 C  pz         
     7     -0.472100  1 C  px                12      0.397455  1 C  py         
    15     -0.360651  1 C  px                 8     -0.240499  1 C  py         
     5     -0.196339  1 C  pz                16     -0.183724  1 C  py         
 
 Vector   18  Occ=0.000000D+00  E= 5.145906D-01
              MO Center= -7.3D-18, -1.9D-15, -2.2D-15, r^2= 3.8D+00
   Bfn.  Coefficient  Atom+Function         Bfn.  Coefficient  Atom+Function  
  ----- ------------  ---------------      ----- ------------  ---------------
    12      1.213602  1 C  py                11     -1.053416  1 C  px         
     8     -0.749267  1 C  py                 7      0.650370  1 C  px         
    16     -0.556453  1 C  py                15      0.483006  1 C  px         
    13      0.246158  1 C  pz                 4     -0.173898  1 C  py         
     9     -0.151976  1 C  pz                 3      0.150945  1 C  px         
 
 Vector   19  Occ=0.000000D+00  E= 1.101245D+00
              MO Center= -5.3D-15,  1.9D-15, -1.7D-16, r^2= 3.6D+00
   Bfn.  Coefficient  Atom+Function         Bfn.  Coefficient  Atom+Function  
  ----- ------------  ---------------      ----- ------------  ---------------
    10      7.930495  1 C  s                  6     -2.681973  1 C  s          
    30     -2.515426  1 C  dxx               33     -2.516139  1 C  dyy        
    35     -2.513366  1 C  dzz               14      1.388235  1 C  s          
    29     -1.046092  1 C  dzz               24     -1.035855  1 C  dxx        
    27     -1.032311  1 C  dyy               23     -0.250221  1 C  dzz        
 
 Vector   20  Occ=0.000000D+00  E= 1.508002D+00
              MO Center= -1.2D-15, -2.8D-16, -9.2D-16, r^2= 1.2D+00
   Bfn.  Coefficient  Atom+Function         Bfn.  Coefficient  Atom+Function  
  ----- ------------  ---------------      ----- ------------  ---------------
    28      1.225556  1 C  dyz               26     -0.825702  1 C  dxz        
    24     -0.679860  1 C  dxx               34     -0.588673  1 C  dyz        
    27      0.449817  1 C  dyy               32      0.396611  1 C  dxz        
    25      0.392890  1 C  dxy               30      0.326558  1 C  dxx        
    29      0.230042  1 C  dzz               33     -0.216062  1 C  dyy        
 
 Vector   21  Occ=0.000000D+00  E= 1.508002D+00
              MO Center= -3.4D-16,  1.6D-15,  6.6D-17, r^2= 1.2D+00
   Bfn.  Coefficient  Atom+Function         Bfn.  Coefficient  Atom+Function  
  ----- ------------  ---------------      ----- ------------  ---------------
    26      0.918491  1 C  dxz               27      0.853570  1 C  dyy        
    28     -0.702962  1 C  dyz               24     -0.675839  1 C  dxx        
    32     -0.441181  1 C  dxz               33     -0.409997  1 C  dyy        
    34      0.337655  1 C  dyz               30      0.324626  1 C  dxx        
    29     -0.177731  1 C  dzz               35      0.085370  1 C  dzz        
 
 Vector   22  Occ=0.000000D+00  E= 1.508817D+00
              MO Center= -6.3D-16,  2.2D-16,  2.7D-16, r^2= 1.2D+00
   Bfn.  Coefficient  Atom+Function         Bfn.  Coefficient  Atom+Function  
  ----- ------------  ---------------      ----- ------------  ---------------
    25      0.881894  1 C  dxy               26     -0.857361  1 C  dxz        
    29     -0.831825  1 C  dzz               27      0.423980  1 C  dyy        
    31     -0.425360  1 C  dxy               32      0.413527  1 C  dxz        
    24      0.407845  1 C  dxx               28     -0.406816  1 C  dyz        
    35      0.401210  1 C  dzz               33     -0.204497  1 C  dyy        
 
 Vector   23  Occ=0.000000D+00  E= 1.508817D+00
              MO Center=  3.0D-16,  4.3D-16, -2.2D-16, r^2= 1.2D+00
   Bfn.  Coefficient  Atom+Function         Bfn.  Coefficient  Atom+Function  
  ----- ------------  ---------------      ----- ------------  ---------------
    28      1.207781  1 C  dyz               26      1.180265  1 C  dxz        
    34     -0.582544  1 C  dyz               32     -0.569272  1 C  dxz        
    29     -0.451799  1 C  dzz               25      0.432021  1 C  dxy        
    24      0.386828  1 C  dxx               35      0.217915  1 C  dzz        
    31     -0.208375  1 C  dxy               30     -0.186576  1 C  dxx        
 
 Vector   24  Occ=0.000000D+00  E= 1.514876D+00
              MO Center=  1.5D-15, -6.1D-16, -1.2D-16, r^2= 1.2D+00
   Bfn.  Coefficient  Atom+Function         Bfn.  Coefficient  Atom+Function  
  ----- ------------  ---------------      ----- ------------  ---------------
    25      1.627896  1 C  dxy               31     -0.776537  1 C  dxy        
    29      0.486949  1 C  dzz               27     -0.412213  1 C  dyy        
    28     -0.380399  1 C  dyz               26      0.330211  1 C  dxz        
    35     -0.300028  1 C  dzz               24     -0.180976  1 C  dxx        
    34      0.181458  1 C  dyz               10      0.177520  1 C  s          
 
 Vector   25  Occ=0.000000D+00  E= 2.575895D+00
              MO Center=  3.6D-15,  4.2D-16, -1.8D-16, r^2= 9.8D-01
   Bfn.  Coefficient  Atom+Function         Bfn.  Coefficient  Atom+Function  
  ----- ------------  ---------------      ----- ------------  ---------------
     4      0.689171  1 C  py                 5     -0.647968  1 C  pz         
     3      0.642164  1 C  px                 8     -0.535073  1 C  py         
     9      0.503095  1 C  pz                 7     -0.498595  1 C  px         
    12      0.486556  1 C  py                13     -0.457467  1 C  pz         
    11      0.453370  1 C  px                42     -0.276695  1 C  fyyy       
 
 Vector   26  Occ=0.000000D+00  E= 2.575895D+00
              MO Center=  4.3D-15, -3.7D-16,  5.5D-15, r^2= 9.8D-01
   Bfn.  Coefficient  Atom+Function         Bfn.  Coefficient  Atom+Function  
  ----- ------------  ---------------      ----- ------------  ---------------
     5      0.925927  1 C  pz                 9     -0.718903  1 C  pz         
    13      0.653707  1 C  pz                 3      0.587982  1 C  px         
     7     -0.456521  1 C  px                11      0.415117  1 C  px         
    43     -0.387068  1 C  fyyz               4      0.322693  1 C  py         
    38     -0.320851  1 C  fxxz              45     -0.267939  1 C  fzzz       
 
 Vector   27  Occ=0.000000D+00  E= 2.578835D+00
              MO Center=  1.3D-14, -1.5D-14,  3.9D-16, r^2= 9.6D-01
   Bfn.  Coefficient  Atom+Function         Bfn.  Coefficient  Atom+Function  
  ----- ------------  ---------------      ----- ------------  ---------------
     4      0.845430  1 C  py                 3     -0.734190  1 C  px         
     8     -0.609088  1 C  py                12      0.592467  1 C  py         
     7      0.528965  1 C  px                11     -0.514513  1 C  px         
    37     -0.379804  1 C  fxxy              39      0.370653  1 C  fxyy       
    42     -0.299432  1 C  fyyy              36      0.246406  1 C  fxxx       
 
 Vector   28  Occ=0.000000D+00  E= 2.760925D+00
              MO Center=  3.6D-16,  6.6D-16,  6.7D-16, r^2= 7.9D-01
   Bfn.  Coefficient  Atom+Function         Bfn.  Coefficient  Atom+Function  
  ----- ------------  ---------------      ----- ------------  ---------------
    40      2.099586  1 C  fxyz              37      1.404656  1 C  fxxy       
    43     -1.057995  1 C  fyyz              41      0.763635  1 C  fxzz       
    45      0.424378  1 C  fzzz              36     -0.362872  1 C  fxxx       
    44     -0.360348  1 C  fyzz              39      0.345386  1 C  fxyy       
    42     -0.344154  1 C  fyyy              38     -0.186253  1 C  fxxz       
 
 Vector   29  Occ=0.000000D+00  E= 2.760926D+00
              MO Center=  2.4D-16, -2.0D-16, -7.1D-16, r^2= 7.9D-01
   Bfn.  Coefficient  Atom+Function         Bfn.  Coefficient  Atom+Function  
  ----- ------------  ---------------      ----- ------------  ---------------
    40      1.829423  1 C  fxyz              37     -1.177377  1 C  fxxy       
    39     -1.151960  1 C  fxyy              44     -0.744033  1 C  fyzz       
    38     -0.725104  1 C  fxxz              42      0.633205  1 C  fyyy       
    36      0.351625  1 C  fxxx              45      0.336601  1 C  fzzz       
    43     -0.261790  1 C  fyyz              41      0.077311  1 C  fxzz       
 
 Vector   30  Occ=0.000000D+00  E= 2.762682D+00
              MO Center= -7.8D-16,  4.1D-16, -4.6D-17, r^2= 7.9D-01
   Bfn.  Coefficient  Atom+Function         Bfn.  Coefficient  Atom+Function  
  ----- ------------  ---------------      ----- ------------  ---------------
    39      1.730497  1 C  fxyy              37     -1.225101  1 C  fxxy       
    40      1.096346  1 C  fxyz              44      0.992438  1 C  fyzz       
    41     -0.861347  1 C  fxzz              43     -0.404681  1 C  fyyz       
    36     -0.293980  1 C  fxxx              38     -0.248190  1 C  fxxz       
    45      0.218621  1 C  fzzz              42      0.082469  1 C  fyyy       
 
 Vector   31  Occ=0.000000D+00  E= 2.764457D+00
              MO Center=  8.3D-16, -7.5D-16,  4.8D-17, r^2= 7.9D-01
   Bfn.  Coefficient  Atom+Function         Bfn.  Coefficient  Atom+Function  
  ----- ------------  ---------------      ----- ------------  ---------------
    38      1.348962  1 C  fxxz              44     -1.333361  1 C  fyzz       
    41      0.735274  1 C  fxzz              39      0.716402  1 C  fxyy       
    43     -0.631160  1 C  fyyz              42      0.622115  1 C  fyyy       
    37     -0.532984  1 C  fxxy              40     -0.511616  1 C  fxyz       
    36     -0.483892  1 C  fxxx              45     -0.239267  1 C  fzzz       
 
 Vector   32  Occ=0.000000D+00  E= 2.764458D+00
              MO Center=  4.3D-16,  2.9D-16, -9.7D-16, r^2= 7.9D-01
   Bfn.  Coefficient  Atom+Function         Bfn.  Coefficient  Atom+Function  
  ----- ------------  ---------------      ----- ------------  ---------------
    43      1.774640  1 C  fyyz              38     -1.302073  1 C  fxxz       
    41      1.008166  1 C  fxzz              39      0.623585  1 C  fxyy       
    36     -0.543917  1 C  fxxx              44     -0.422885  1 C  fyzz       
    40      0.285533  1 C  fxyz              45     -0.157522  1 C  fzzz       
    42      0.150183  1 C  fyyy              37     -0.027661  1 C  fxxy       
 
 Vector   33  Occ=0.000000D+00  E= 2.783423D+00
              MO Center= -3.5D-16, -2.5D-16, -3.0D-16, r^2= 7.9D-01
   Bfn.  Coefficient  Atom+Function         Bfn.  Coefficient  Atom+Function  
  ----- ------------  ---------------      ----- ------------  ---------------
    40      2.334107  1 C  fxyz              38      1.351222  1 C  fxxz       
    43      0.914741  1 C  fyyz              45     -0.755321  1 C  fzzz       
    44      0.484409  1 C  fyzz              39     -0.282952  1 C  fxyy       
    42     -0.143708  1 C  fyyy              36      0.084792  1 C  fxxx       
    37     -0.053286  1 C  fxxy              41      0.028576  1 C  fxzz       
 
 Vector   34  Occ=0.000000D+00  E= 2.783423D+00
              MO Center=  7.3D-16,  5.1D-16,  5.9D-16, r^2= 7.9D-01
   Bfn.  Coefficient  Atom+Function         Bfn.  Coefficient  Atom+Function  
  ----- ------------  ---------------      ----- ------------  ---------------
    41      1.764853  1 C  fxzz              44      1.463893  1 C  fyzz       
    37     -0.914025  1 C  fxxy              39     -0.748134  1 C  fxyy       
    43     -0.490574  1 C  fyyz              40     -0.446209  1 C  fxyz       
    36     -0.338906  1 C  fxxx              42     -0.183289  1 C  fyyy       
    38      0.155364  1 C  fxxz              45      0.111737  1 C  fzzz       
 
 Vector   35  Occ=0.000000D+00  E= 3.111576D+00
              MO Center= -1.8D-14,  1.0D-14, -4.5D-16, r^2= 1.7D+00
   Bfn.  Coefficient  Atom+Function         Bfn.  Coefficient  Atom+Function  
  ----- ------------  ---------------      ----- ------------  ---------------
    10      7.877095  1 C  s                  6      3.712611  1 C  s          
    24     -3.461362  1 C  dxx               27     -3.459224  1 C  dyy        
    29     -3.467540  1 C  dzz               30     -2.001874  1 C  dxx        
    33     -2.002573  1 C  dyy               35     -1.999856  1 C  dzz        
     2     -1.461069  1 C  s                 14      0.817137  1 C  s          
 
 Vector   36  Occ=0.000000D+00  E= 6.844863D+00
              MO Center=  1.5D-15,  6.2D-16,  3.6D-15, r^2= 3.5D-01
   Bfn.  Coefficient  Atom+Function         Bfn.  Coefficient  Atom+Function  
  ----- ------------  ---------------      ----- ------------  ---------------
    19      0.981080  1 C  dxy               23     -0.953323  1 C  dzz        
    18      0.571425  1 C  dxx               25     -0.537278  1 C  dxy        
    29      0.522077  1 C  dzz               22      0.432437  1 C  dyz        
    21      0.381898  1 C  dyy               24     -0.312934  1 C  dxx        
    28     -0.236821  1 C  dyz               27     -0.209143  1 C  dyy        
 
 Vector   37  Occ=0.000000D+00  E= 6.844863D+00
              MO Center= -3.6D-16, -5.5D-16,  1.0D-15, r^2= 3.5D-01
   Bfn.  Coefficient  Atom+Function         Bfn.  Coefficient  Atom+Function  
  ----- ------------  ---------------      ----- ------------  ---------------
    20      1.488813  1 C  dxz               22      1.227287  1 C  dyz        
    26     -0.815332  1 C  dxz               28     -0.672111  1 C  dyz        
    32      0.248398  1 C  dxz               21     -0.214345  1 C  dyy        
    19     -0.207329  1 C  dxy               34      0.204765  1 C  dyz        
    23      0.159888  1 C  dzz               27      0.117384  1 C  dyy        
 
 Vector   38  Occ=0.000000D+00  E= 6.847320D+00
              MO Center= -2.5D-15,  7.3D-16, -1.5D-15, r^2= 3.4D-01
   Bfn.  Coefficient  Atom+Function         Bfn.  Coefficient  Atom+Function  
  ----- ------------  ---------------      ----- ------------  ---------------
    22      1.244042  1 C  dyz               20     -0.835354  1 C  dxz        
    18     -0.696683  1 C  dxx               28     -0.675865  1 C  dyz        
    21      0.463608  1 C  dyy               26      0.453832  1 C  dxz        
    19      0.400439  1 C  dxy               24      0.378497  1 C  dxx        
    27     -0.251866  1 C  dyy               23      0.233079  1 C  dzz        
 
 Vector   39  Occ=0.000000D+00  E= 6.847320D+00
              MO Center= -4.4D-15,  3.0D-15,  1.8D-15, r^2= 3.4D-01
   Bfn.  Coefficient  Atom+Function         Bfn.  Coefficient  Atom+Function  
  ----- ------------  ---------------      ----- ------------  ---------------
    20      0.940458  1 C  dxz               21      0.866771  1 C  dyy        
    22     -0.723816  1 C  dyz               18     -0.684165  1 C  dxx        
    26     -0.510932  1 C  dxz               27     -0.470888  1 C  dyy        
    28      0.393236  1 C  dyz               24      0.371706  1 C  dxx        
    23     -0.182591  1 C  dzz               32      0.155528  1 C  dxz        
 
 Vector   40  Occ=0.000000D+00  E= 6.860850D+00
              MO Center=  4.1D-16,  2.7D-15, -3.7D-15, r^2= 3.4D-01
   Bfn.  Coefficient  Atom+Function         Bfn.  Coefficient  Atom+Function  
  ----- ------------  ---------------      ----- ------------  ---------------
    19      1.657648  1 C  dxy               25     -0.899074  1 C  dxy        
    23      0.520956  1 C  dzz               21     -0.394307  1 C  dyy        
    22     -0.387463  1 C  dyz               20      0.336469  1 C  dxz        
    29     -0.307963  1 C  dzz               31      0.273280  1 C  dxy        
    28      0.210152  1 C  dyz               27      0.188457  1 C  dyy        
 
 Vector   41  Occ=0.000000D+00  E= 8.187455D+00
              MO Center=  4.2D-14, -4.5D-14, -1.1D-14, r^2= 1.7D+00
   Bfn.  Coefficient  Atom+Function         Bfn.  Coefficient  Atom+Function  
  ----- ------------  ---------------      ----- ------------  ---------------
     8     11.038658  1 C  py                 7     -9.581600  1 C  px         
    37     -5.820373  1 C  fxxy              42     -5.823891  1 C  fyyy       
    44     -5.826337  1 C  fyzz              36      5.055758  1 C  fxxx       
    39      5.050316  1 C  fxyy              41      5.057285  1 C  fxzz       
     4     -2.621633  1 C  py                 3      2.275589  1 C  px         
 
 Vector   42  Occ=0.000000D+00  E= 8.219819D+00
              MO Center=  2.5D-14,  1.4D-14,  3.2D-14, r^2= 1.7D+00
   Bfn.  Coefficient  Atom+Function         Bfn.  Coefficient  Atom+Function  
  ----- ------------  ---------------      ----- ------------  ---------------
     9     11.258091  1 C  pz                 7      8.247521  1 C  px         
    38     -5.942127  1 C  fxxz              43     -5.939654  1 C  fyyz       
    45     -5.943779  1 C  fzzz               8      4.875406  1 C  py         
    36     -4.352433  1 C  fxxx              39     -4.354510  1 C  fxyy       
    41     -4.355611  1 C  fxzz               5     -2.671226  1 C  pz         
 
 Vector   43  Occ=0.000000D+00  E= 8.219819D+00
              MO Center=  6.5D-15, -2.9D-15, -8.0D-15, r^2= 1.7D+00
   Bfn.  Coefficient  Atom+Function         Bfn.  Coefficient  Atom+Function  
  ----- ------------  ---------------      ----- ------------  ---------------
     9     -9.315650  1 C  pz                 8      8.543427  1 C  py         
     7      7.665789  1 C  px                38      4.915240  1 C  fxxz       
    43      4.916490  1 C  fyyz              45      4.918256  1 C  fzzz       
    37     -4.512889  1 C  fxxy              42     -4.507910  1 C  fyyy       
    44     -4.511777  1 C  fyzz              36     -4.045437  1 C  fxxx       
 
 Vector   44  Occ=0.000000D+00  E= 8.660738D+00
              MO Center= -4.2D-14,  1.3D-14, -1.6D-14, r^2= 1.1D+00
   Bfn.  Coefficient  Atom+Function         Bfn.  Coefficient  Atom+Function  
  ----- ------------  ---------------      ----- ------------  ---------------
     6     13.770425  1 C  s                 10      5.857901  1 C  s          
    24     -5.487676  1 C  dxx               27     -5.488560  1 C  dyy        
    29     -5.485124  1 C  dzz                2     -3.332946  1 C  s          
    18     -3.177052  1 C  dxx               21     -3.176331  1 C  dyy        
    23     -3.179132  1 C  dzz               30     -1.442419  1 C  dxx        
 
 Vector   45  Occ=0.000000D+00  E= 2.893027D+01
              MO Center=  6.6D-16, -2.6D-16,  2.5D-16, r^2= 9.0D-02
   Bfn.  Coefficient  Atom+Function         Bfn.  Coefficient  Atom+Function  
  ----- ------------  ---------------      ----- ------------  ---------------
     6      4.124986  1 C  s                  1     -2.003127  1 C  s          
     2      1.549561  1 C  s                 24     -1.214069  1 C  dxx        
    27     -1.214272  1 C  dyy               29     -1.213484  1 C  dzz        
    18     -1.131364  1 C  dxx               21     -1.131216  1 C  dyy        
    23     -1.131792  1 C  dzz               10      0.512281  1 C  s          
 
 
                     DFT Final Beta Molecular Orbital Analysis
                     -----------------------------------------
 
 Vector    1  Occ=1.000000D+00  E=-1.009253D+01
              MO Center= -2.2D-18,  8.7D-18,  3.8D-18, r^2= 2.7D-02
   Bfn.  Coefficient  Atom+Function         Bfn.  Coefficient  Atom+Function  
  ----- ------------  ---------------      ----- ------------  ---------------
     1      0.564898  1 C  s                  2      0.463484  1 C  s          
 
 Vector    2  Occ=1.000000D+00  E=-4.406453D-01
              MO Center=  1.0D-15,  1.9D-15,  5.9D-16, r^2= 8.9D-01
   Bfn.  Coefficient  Atom+Function         Bfn.  Coefficient  Atom+Function  
  ----- ------------  ---------------      ----- ------------  ---------------
    10      0.588338  1 C  s                  6      0.563675  1 C  s          
     2     -0.204161  1 C  s                  1     -0.125325  1 C  s          
    14      0.051833  1 C  s                 25     -0.036947  1 C  dxy        
    35     -0.034898  1 C  dzz               30     -0.028701  1 C  dxx        
    33     -0.026555  1 C  dyy        
 
 Vector    3  Occ=0.000000D+00  E=-1.567881D-01
              MO Center=  2.4D-15, -4.0D-16, -4.5D-16, r^2= 1.3D+00
   Bfn.  Coefficient  Atom+Function         Bfn.  Coefficient  Atom+Function  
  ----- ------------  ---------------      ----- ------------  ---------------
    12      0.334156  1 C  py                11     -0.290045  1 C  px         
     8      0.259888  1 C  py                 7     -0.225580  1 C  px         
     4      0.216831  1 C  py                 3     -0.188208  1 C  px         
    16      0.079433  1 C  py                15     -0.068947  1 C  px         
    13      0.067776  1 C  pz                 9      0.052712  1 C  pz         
 
 Vector    4  Occ=0.000000D+00  E=-1.005113D-01
              MO Center= -6.5D-16,  7.1D-16,  3.9D-15, r^2= 1.7D+00
   Bfn.  Coefficient  Atom+Function         Bfn.  Coefficient  Atom+Function  
  ----- ------------  ---------------      ----- ------------  ---------------
    13      0.458464  1 C  pz                 9      0.291638  1 C  pz         
     5      0.270345  1 C  pz                17      0.183434  1 C  pz         
    12     -0.055029  1 C  py                43      0.054681  1 C  fyyz       
    38      0.050991  1 C  fxxz              11      0.043733  1 C  px         
    45      0.040172  1 C  fzzz               8     -0.035005  1 C  py         
 
 Vector    5  Occ=0.000000D+00  E=-1.005113D-01
              MO Center=  1.7D-16, -5.5D-16, -7.4D-16, r^2= 1.7D+00
   Bfn.  Coefficient  Atom+Function         Bfn.  Coefficient  Atom+Function  
  ----- ------------  ---------------      ----- ------------  ---------------
    11      0.350569  1 C  px                12      0.303681  1 C  py         
     7      0.223004  1 C  px                 3      0.206722  1 C  px         
     8      0.193177  1 C  py                 4      0.179073  1 C  py         
    15      0.140265  1 C  px                16      0.121504  1 C  py         
    36      0.039400  1 C  fxxx              42      0.036734  1 C  fyyy       
 
 Vector    6  Occ=0.000000D+00  E= 4.103737D-02
              MO Center= -4.2D-14,  8.6D-15,  3.4D-14, r^2= 8.3D+00
   Bfn.  Coefficient  Atom+Function         Bfn.  Coefficient  Atom+Function  
  ----- ------------  ---------------      ----- ------------  ---------------
    14      1.820785  1 C  s                 35     -0.314689  1 C  dzz        
    30     -0.309456  1 C  dxx               33     -0.307644  1 C  dyy        
     6     -0.305218  1 C  s                 10     -0.298051  1 C  s          
    27     -0.086173  1 C  dyy               24     -0.084407  1 C  dxx        
    29     -0.079307  1 C  dzz                1      0.042727  1 C  s          
 
 Vector    7  Occ=0.000000D+00  E= 8.160458D-02
              MO Center=  2.0D-14, -2.7D-14, -6.6D-15, r^2= 9.2D+00
   Bfn.  Coefficient  Atom+Function         Bfn.  Coefficient  Atom+Function  
  ----- ------------  ---------------      ----- ------------  ---------------
    16      0.886970  1 C  py                15     -0.769883  1 C  px         
    12     -0.333844  1 C  py                11      0.289774  1 C  px         
    17      0.179901  1 C  pz                 4     -0.106439  1 C  py         
     3      0.092389  1 C  px                 8     -0.071768  1 C  py         
    13     -0.067712  1 C  pz                 7      0.062294  1 C  px         
 
 Vector    8  Occ=0.000000D+00  E= 9.490778D-02
              MO Center= -3.6D-15,  5.2D-15, -3.1D-14, r^2= 9.1D+00
   Bfn.  Coefficient  Atom+Function         Bfn.  Coefficient  Atom+Function  
  ----- ------------  ---------------      ----- ------------  ---------------
    17      1.180950  1 C  pz                13     -0.525952  1 C  pz         
     5     -0.160756  1 C  pz                16     -0.159726  1 C  py         
     9     -0.092560  1 C  pz                15      0.091939  1 C  px         
    12      0.071136  1 C  py                43     -0.043520  1 C  fyyz       
    38     -0.041926  1 C  fxxz              11     -0.040946  1 C  px         
 
 Vector    9  Occ=0.000000D+00  E= 9.490778D-02
              MO Center=  1.7D-14,  1.6D-14,  1.6D-15, r^2= 9.1D+00
   Bfn.  Coefficient  Atom+Function         Bfn.  Coefficient  Atom+Function  
  ----- ------------  ---------------      ----- ------------  ---------------
    15      0.905748  1 C  px                16      0.779110  1 C  py         
    11     -0.403387  1 C  px                12     -0.346988  1 C  py         
     3     -0.123294  1 C  px                 4     -0.106056  1 C  py         
     7     -0.070990  1 C  px                 8     -0.061065  1 C  py         
    17      0.034862  1 C  pz                36     -0.032309  1 C  fxxx       
 
 Vector   10  Occ=0.000000D+00  E= 3.416148D-01
              MO Center=  8.5D-17, -3.7D-16, -7.0D-17, r^2= 3.5D+00
   Bfn.  Coefficient  Atom+Function         Bfn.  Coefficient  Atom+Function  
  ----- ------------  ---------------      ----- ------------  ---------------
    31      1.380762  1 C  dxy               33     -0.818026  1 C  dyy        
    14      0.643396  1 C  s                 30     -0.621890  1 C  dxx        
    10      0.617806  1 C  s                 34     -0.322648  1 C  dyz        
    32      0.280058  1 C  dxz               29     -0.124606  1 C  dzz        
    24     -0.122111  1 C  dxx               27     -0.121247  1 C  dyy        
 
 Vector   11  Occ=0.000000D+00  E= 3.487453D-01
              MO Center=  2.2D-16, -2.0D-15,  7.8D-16, r^2= 3.1D+00
   Bfn.  Coefficient  Atom+Function         Bfn.  Coefficient  Atom+Function  
  ----- ------------  ---------------      ----- ------------  ---------------
    32      0.852798  1 C  dxz               33      0.741378  1 C  dyy        
    34     -0.677753  1 C  dyz               30     -0.573421  1 C  dxx        
    35     -0.167970  1 C  dzz        
 
 Vector   12  Occ=0.000000D+00  E= 3.487454D-01
              MO Center=  1.6D-15, -1.9D-15, -2.3D-16, r^2= 3.1D+00
   Bfn.  Coefficient  Atom+Function         Bfn.  Coefficient  Atom+Function  
  ----- ------------  ---------------      ----- ------------  ---------------
    34      1.062067  1 C  dyz               32     -0.696858  1 C  dxz        
    30     -0.634016  1 C  dxx               33      0.436551  1 C  dyy        
    31      0.351512  1 C  dxy               35      0.197454  1 C  dzz        
 
 Vector   13  Occ=0.000000D+00  E= 3.502343D-01
              MO Center= -8.7D-16,  8.6D-15, -3.6D-17, r^2= 6.2D+00
   Bfn.  Coefficient  Atom+Function         Bfn.  Coefficient  Atom+Function  
  ----- ------------  ---------------      ----- ------------  ---------------
    10      1.966421  1 C  s                 14      1.968152  1 C  s          
    35     -1.702094  1 C  dzz               30     -1.522065  1 C  dxx        
    33     -1.459744  1 C  dyy               31     -0.438771  1 C  dxy        
    29     -0.384212  1 C  dzz               24     -0.376548  1 C  dxx        
    27     -0.373894  1 C  dyy                2     -0.235386  1 C  s          
 
 Vector   14  Occ=0.000000D+00  E= 3.603238D-01
              MO Center=  2.4D-16,  2.3D-16,  2.9D-16, r^2= 3.1D+00
   Bfn.  Coefficient  Atom+Function         Bfn.  Coefficient  Atom+Function  
  ----- ------------  ---------------      ----- ------------  ---------------
    32      1.174181  1 C  dxz               34      0.827131  1 C  dyz        
    31     -0.521507  1 C  dxy               35      0.473435  1 C  dzz        
    33     -0.310212  1 C  dyy               30     -0.163221  1 C  dxx        
 
 Vector   15  Occ=0.000000D+00  E= 3.603238D-01
              MO Center=  1.0D-15,  7.0D-16,  1.2D-15, r^2= 3.1D+00
   Bfn.  Coefficient  Atom+Function         Bfn.  Coefficient  Atom+Function  
  ----- ------------  ---------------      ----- ------------  ---------------
    34      0.791300  1 C  dyz               31      0.711378  1 C  dxy        
    35     -0.706223  1 C  dzz               32      0.581592  1 C  dxz        
    30      0.477736  1 C  dxx               33      0.228488  1 C  dyy        
 
 Vector   16  Occ=0.000000D+00  E= 5.437090D-01
              MO Center=  7.7D-15, -5.5D-15, -8.2D-16, r^2= 3.8D+00
   Bfn.  Coefficient  Atom+Function         Bfn.  Coefficient  Atom+Function  
  ----- ------------  ---------------      ----- ------------  ---------------
    12      1.207618  1 C  py                11     -1.048202  1 C  px         
     8     -0.728397  1 C  py                 7      0.632243  1 C  px         
    16     -0.548700  1 C  py                15      0.476267  1 C  px         
    13      0.244937  1 C  pz                 4     -0.176574  1 C  py         
     3      0.153265  1 C  px                 9     -0.147738  1 C  pz         
 
 Vector   17  Occ=0.000000D+00  E= 5.768298D-01
              MO Center= -2.3D-15,  1.2D-15, -1.6D-15, r^2= 3.6D+00
   Bfn.  Coefficient  Atom+Function         Bfn.  Coefficient  Atom+Function  
  ----- ------------  ---------------      ----- ------------  ---------------
    13      1.222251  1 C  pz                12     -0.796994  1 C  py         
     9     -0.759495  1 C  pz                11     -0.632596  1 C  px         
    17     -0.544446  1 C  pz                 8      0.495244  1 C  py         
     7      0.393089  1 C  px                16      0.355017  1 C  py         
    15      0.281787  1 C  px                 5     -0.190557  1 C  pz         
 
 Vector   18  Occ=0.000000D+00  E= 5.768298D-01
              MO Center= -3.4D-15, -1.9D-15, -2.8D-15, r^2= 3.6D+00
   Bfn.  Coefficient  Atom+Function         Bfn.  Coefficient  Atom+Function  
  ----- ------------  ---------------      ----- ------------  ---------------
    11      1.033065  1 C  px                13      0.988633  1 C  pz         
    12      0.696171  1 C  py                 7     -0.641937  1 C  px         
     9     -0.614327  1 C  pz                15     -0.460174  1 C  px         
    17     -0.440382  1 C  pz                 8     -0.432594  1 C  py         
    16     -0.310106  1 C  py                 3     -0.161062  1 C  px         
 
 Vector   19  Occ=0.000000D+00  E= 1.163541D+00
              MO Center= -4.7D-16,  3.3D-16,  4.5D-16, r^2= 3.5D+00
   Bfn.  Coefficient  Atom+Function         Bfn.  Coefficient  Atom+Function  
  ----- ------------  ---------------      ----- ------------  ---------------
    10      7.993815  1 C  s                  6     -2.666823  1 C  s          
    30     -2.495353  1 C  dxx               33     -2.494090  1 C  dyy        
    35     -2.499003  1 C  dzz               14      1.347842  1 C  s          
    24     -1.079479  1 C  dxx               27     -1.084374  1 C  dyy        
    29     -1.065340  1 C  dzz               18     -0.249940  1 C  dxx        
 
 Vector   20  Occ=0.000000D+00  E= 1.578448D+00
              MO Center= -1.5D-16,  2.4D-16,  4.1D-16, r^2= 1.2D+00
   Bfn.  Coefficient  Atom+Function         Bfn.  Coefficient  Atom+Function  
  ----- ------------  ---------------      ----- ------------  ---------------
    25      1.629826  1 C  dxy               31     -0.758748  1 C  dxy        
    29      0.525005  1 C  dzz               28     -0.380847  1 C  dyz        
    27     -0.375221  1 C  dyy               26      0.330573  1 C  dxz        
    35     -0.217411  1 C  dzz               33      0.201679  1 C  dyy        
    34      0.177299  1 C  dyz               32     -0.153894  1 C  dxz        
 
 Vector   21  Occ=0.000000D+00  E= 1.595465D+00
              MO Center=  4.7D-16,  9.9D-16, -8.8D-16, r^2= 1.2D+00
   Bfn.  Coefficient  Atom+Function         Bfn.  Coefficient  Atom+Function  
  ----- ------------  ---------------      ----- ------------  ---------------
    26      1.053106  1 C  dxz               28     -0.911830  1 C  dyz        
    27      0.761940  1 C  dyy               24     -0.545651  1 C  dxx        
    32     -0.487282  1 C  dxz               34      0.421912  1 C  dyz        
    33     -0.352556  1 C  dyy               30      0.252478  1 C  dxx        
    29     -0.216289  1 C  dzz               35      0.100079  1 C  dzz        
 
 Vector   22  Occ=0.000000D+00  E= 1.595465D+00
              MO Center= -4.7D-16, -1.8D-16, -4.4D-16, r^2= 1.2D+00
   Bfn.  Coefficient  Atom+Function         Bfn.  Coefficient  Atom+Function  
  ----- ------------  ---------------      ----- ------------  ---------------
    28      1.083802  1 C  dyz               24     -0.791085  1 C  dxx        
    26     -0.650989  1 C  dxz               27      0.595770  1 C  dyy        
    34     -0.501485  1 C  dyz               25      0.394273  1 C  dxy        
    30      0.366042  1 C  dxx               32      0.301218  1 C  dxz        
    33     -0.275668  1 C  dyy               29      0.195315  1 C  dzz        
 
 Vector   23  Occ=0.000000D+00  E= 1.640725D+00
              MO Center= -4.3D-17, -9.9D-17,  3.7D-16, r^2= 1.1D+00
   Bfn.  Coefficient  Atom+Function         Bfn.  Coefficient  Atom+Function  
  ----- ------------  ---------------      ----- ------------  ---------------
    26      1.261527  1 C  dxz               28      0.856273  1 C  dyz        
    25     -0.642594  1 C  dxy               29      0.588489  1 C  dzz        
    32     -0.573311  1 C  dxz               34     -0.389140  1 C  dyz        
    27     -0.365721  1 C  dyy               31      0.292032  1 C  dxy        
    35     -0.267444  1 C  dzz               24     -0.222768  1 C  dxx        
 
 Vector   24  Occ=0.000000D+00  E= 1.640725D+00
              MO Center=  5.4D-16,  9.4D-16,  8.4D-16, r^2= 1.1D+00
   Bfn.  Coefficient  Atom+Function         Bfn.  Coefficient  Atom+Function  
  ----- ------------  ---------------      ----- ------------  ---------------
    28      0.953622  1 C  dyz               25      0.749943  1 C  dxy        
    26      0.748953  1 C  dxz               29     -0.748266  1 C  dzz        
    24      0.519504  1 C  dxx               34     -0.433381  1 C  dyz        
    31     -0.340817  1 C  dxy               32     -0.340368  1 C  dxz        
    35      0.340055  1 C  dzz               30     -0.236093  1 C  dxx        
 
 Vector   25  Occ=0.000000D+00  E= 2.659410D+00
              MO Center= -3.3D-16,  9.7D-16,  1.5D-15, r^2= 9.4D-01
   Bfn.  Coefficient  Atom+Function         Bfn.  Coefficient  Atom+Function  
  ----- ------------  ---------------      ----- ------------  ---------------
     4      0.876447  1 C  py                 3     -0.760752  1 C  px         
     8     -0.721033  1 C  py                 7      0.625853  1 C  px         
    12      0.591440  1 C  py                11     -0.513367  1 C  px         
    39      0.367732  1 C  fxyy              37     -0.352408  1 C  fxxy       
    42     -0.231029  1 C  fyyy              16     -0.198874  1 C  py         
 
 Vector   26  Occ=0.000000D+00  E= 2.705650D+00
              MO Center= -6.5D-16, -1.3D-16, -1.4D-15, r^2= 9.3D-01
   Bfn.  Coefficient  Atom+Function         Bfn.  Coefficient  Atom+Function  
  ----- ------------  ---------------      ----- ------------  ---------------
     5      0.951177  1 C  pz                 9     -0.792469  1 C  pz         
    13      0.635823  1 C  pz                 3      0.608690  1 C  px         
     7     -0.507128  1 C  px                11      0.406885  1 C  px         
    43     -0.350091  1 C  fyyz               4      0.335415  1 C  py         
     8     -0.279449  1 C  py                38     -0.272121  1 C  fxxz       
 
 Vector   27  Occ=0.000000D+00  E= 2.705650D+00
              MO Center= -8.0D-17,  3.5D-16, -8.4D-18, r^2= 9.3D-01
   Bfn.  Coefficient  Atom+Function         Bfn.  Coefficient  Atom+Function  
  ----- ------------  ---------------      ----- ------------  ---------------
     4      0.708472  1 C  py                 5     -0.671709  1 C  pz         
     3      0.659256  1 C  px                 8     -0.590261  1 C  py         
     9      0.559632  1 C  pz                 7     -0.549256  1 C  px         
    12      0.473585  1 C  py                13     -0.449010  1 C  pz         
    11      0.440686  1 C  px                42     -0.247252  1 C  fyyy       
 
 Vector   28  Occ=0.000000D+00  E= 2.846664D+00
              MO Center=  7.2D-16, -8.7D-16,  3.8D-16, r^2= 7.9D-01
   Bfn.  Coefficient  Atom+Function         Bfn.  Coefficient  Atom+Function  
  ----- ------------  ---------------      ----- ------------  ---------------
    39      1.709396  1 C  fxyy              37     -1.203453  1 C  fxxy       
    40      1.093655  1 C  fxyz              44      1.008896  1 C  fyzz       
    41     -0.875714  1 C  fxzz              43     -0.399441  1 C  fyyz       
    36     -0.309554  1 C  fxxx              38     -0.244095  1 C  fxxz       
    45      0.221910  1 C  fzzz              42      0.101328  1 C  fyyy       
 
 Vector   29  Occ=0.000000D+00  E= 2.854053D+00
              MO Center=  1.0D-15, -1.2D-15,  1.8D-16, r^2= 7.9D-01
   Bfn.  Coefficient  Atom+Function         Bfn.  Coefficient  Atom+Function  
  ----- ------------  ---------------      ----- ------------  ---------------
    40      2.110329  1 C  fxyz              39     -1.097804  1 C  fxyy       
    37     -0.971542  1 C  fxxy              44     -0.797838  1 C  fyzz       
    38     -0.729256  1 C  fxxz              42      0.565748  1 C  fyyy       
    45      0.407899  1 C  fzzz              43     -0.397010  1 C  fyyz       
    36      0.286568  1 C  fxxx              41      0.177760  1 C  fxzz       
 
 Vector   30  Occ=0.000000D+00  E= 2.854053D+00
              MO Center=  5.4D-16, -1.6D-15, -5.7D-16, r^2= 7.9D-01
   Bfn.  Coefficient  Atom+Function         Bfn.  Coefficient  Atom+Function  
  ----- ------------  ---------------      ----- ------------  ---------------
    40      1.811718  1 C  fxyz              37      1.565413  1 C  fxxy       
    43     -0.994614  1 C  fyyz              41      0.755654  1 C  fxzz       
    39      0.519841  1 C  fxyy              42     -0.423457  1 C  fyyy       
    36     -0.397281  1 C  fxxx              45      0.384259  1 C  fzzz       
    44     -0.241050  1 C  fyzz               5     -0.071273  1 C  pz         
 
 Vector   31  Occ=0.000000D+00  E= 2.874190D+00
              MO Center= -5.4D-16,  2.5D-16, -4.5D-16, r^2= 7.9D-01
   Bfn.  Coefficient  Atom+Function         Bfn.  Coefficient  Atom+Function  
  ----- ------------  ---------------      ----- ------------  ---------------
    38      1.511576  1 C  fxxz              44     -1.264366  1 C  fyzz       
    43     -0.863764  1 C  fyyz              39      0.626351  1 C  fxyy       
    42      0.596344  1 C  fyyy              41      0.593078  1 C  fxzz       
    40     -0.545275  1 C  fxyz              37     -0.524666  1 C  fxxy       
    36     -0.406476  1 C  fxxx              45     -0.215937  1 C  fzzz       
 
 Vector   32  Occ=0.000000D+00  E= 2.874190D+00
              MO Center= -2.8D-16, -7.4D-16, -7.9D-17, r^2= 7.9D-01
   Bfn.  Coefficient  Atom+Function         Bfn.  Coefficient  Atom+Function  
  ----- ------------  ---------------      ----- ------------  ---------------
    43      1.673898  1 C  fyyz              38     -1.109126  1 C  fxxz       
    41      1.097792  1 C  fxzz              39      0.713923  1 C  fxyy       
    36     -0.603905  1 C  fxxx              44     -0.598217  1 C  fyzz       
    42      0.232418  1 C  fyyy              40      0.214090  1 C  fxyz       
    45     -0.188258  1 C  fzzz              37     -0.099038  1 C  fxxy       
 
 Vector   33  Occ=0.000000D+00  E= 2.907803D+00
              MO Center= -2.1D-16, -1.3D-16, -2.7D-16, r^2= 7.9D-01
   Bfn.  Coefficient  Atom+Function         Bfn.  Coefficient  Atom+Function  
  ----- ------------  ---------------      ----- ------------  ---------------
    40      2.372764  1 C  fxyz              38      1.318430  1 C  fxxz       
    43      0.971996  1 C  fyyz              45     -0.763475  1 C  fzzz       
    44      0.284850  1 C  fyzz              41     -0.207041  1 C  fxzz       
    39     -0.180651  1 C  fxyy              36      0.129231  1 C  fxxx       
    42     -0.117984  1 C  fyyy              37      0.069101  1 C  fxxy       
 
 Vector   34  Occ=0.000000D+00  E= 2.907803D+00
              MO Center= -7.1D-16, -5.6D-16, -2.8D-16, r^2= 7.9D-01
   Bfn.  Coefficient  Atom+Function         Bfn.  Coefficient  Atom+Function  
  ----- ------------  ---------------      ----- ------------  ---------------
    41      1.752901  1 C  fxzz              44      1.515419  1 C  fyzz       
    37     -0.912970  1 C  fxxy              39     -0.779173  1 C  fxyy       
    43     -0.364195  1 C  fyyz              38      0.334181  1 C  fxxz       
    36     -0.324576  1 C  fxxx              42     -0.200816  1 C  fyyy       
    40     -0.130938  1 C  fxyz       
 
 Vector   35  Occ=0.000000D+00  E= 3.202087D+00
              MO Center=  3.2D-15, -7.0D-17,  2.4D-15, r^2= 1.7D+00
   Bfn.  Coefficient  Atom+Function         Bfn.  Coefficient  Atom+Function  
  ----- ------------  ---------------      ----- ------------  ---------------
    10      7.812257  1 C  s                  6      3.981501  1 C  s          
    24     -3.524687  1 C  dxx               27     -3.523970  1 C  dyy        
    29     -3.526756  1 C  dzz               30     -1.979359  1 C  dxx        
    33     -1.979576  1 C  dyy               35     -1.978732  1 C  dzz        
     2     -1.504381  1 C  s                 23     -0.842376  1 C  dzz        
 
 Vector   36  Occ=0.000000D+00  E= 7.027204D+00
              MO Center= -1.0D-16, -1.8D-17, -4.2D-18, r^2= 3.4D-01
   Bfn.  Coefficient  Atom+Function         Bfn.  Coefficient  Atom+Function  
  ----- ------------  ---------------      ----- ------------  ---------------
    19      1.657582  1 C  dxy               25     -0.894669  1 C  dxy        
    23      0.517104  1 C  dzz               21     -0.398435  1 C  dyy        
    22     -0.387337  1 C  dyz               20      0.336211  1 C  dxz        
    29     -0.325270  1 C  dzz               31      0.270477  1 C  dxy        
    28      0.209062  1 C  dyz               26     -0.181468  1 C  dxz        
 
 Vector   37  Occ=0.000000D+00  E= 7.040100D+00
              MO Center=  1.4D-16,  9.3D-17,  2.7D-16, r^2= 3.4D-01
   Bfn.  Coefficient  Atom+Function         Bfn.  Coefficient  Atom+Function  
  ----- ------------  ---------------      ----- ------------  ---------------
    22      1.304437  1 C  dyz               20     -0.917136  1 C  dxz        
    28     -0.703279  1 C  dyz               18     -0.631915  1 C  dxx        
    26      0.494468  1 C  dxz               19      0.395485  1 C  dxy        
    21      0.383102  1 C  dyy               24      0.340693  1 C  dxx        
    23      0.248813  1 C  dzz               25     -0.213223  1 C  dxy        
 
 Vector   38  Occ=0.000000D+00  E= 7.040100D+00
              MO Center=  2.0D-16, -1.8D-16, -5.1D-17, r^2= 3.4D-01
   Bfn.  Coefficient  Atom+Function         Bfn.  Coefficient  Atom+Function  
  ----- ------------  ---------------      ----- ------------  ---------------
    21      0.905089  1 C  dyy               20      0.861147  1 C  dxz        
    18     -0.744507  1 C  dxx               22     -0.608103  1 C  dyz        
    27     -0.487973  1 C  dyy               26     -0.464281  1 C  dxz        
    24      0.401396  1 C  dxx               28      0.327855  1 C  dyz        
    23     -0.160582  1 C  dzz               33      0.147415  1 C  dyy        
 
 Vector   39  Occ=0.000000D+00  E= 7.078028D+00
              MO Center=  2.2D-17,  4.5D-17,  4.9D-17, r^2= 3.4D-01
   Bfn.  Coefficient  Atom+Function         Bfn.  Coefficient  Atom+Function  
  ----- ------------  ---------------      ----- ------------  ---------------
    20      0.988673  1 C  dxz               19     -0.853365  1 C  dxy        
    23      0.800515  1 C  dzz               22      0.533431  1 C  dyz        
    26     -0.531676  1 C  dxz               25      0.458912  1 C  dxy        
    29     -0.430490  1 C  dzz               21     -0.424455  1 C  dyy        
    18     -0.376060  1 C  dxx               28     -0.286861  1 C  dyz        
 
 Vector   40  Occ=0.000000D+00  E= 7.078028D+00
              MO Center=  1.2D-16,  1.3D-16, -7.9D-17, r^2= 3.4D-01
   Bfn.  Coefficient  Atom+Function         Bfn.  Coefficient  Atom+Function  
  ----- ------------  ---------------      ----- ------------  ---------------
    22      1.187074  1 C  dyz               20      1.114381  1 C  dxz        
    28     -0.638369  1 C  dyz               26     -0.599277  1 C  dxz        
    23     -0.541833  1 C  dzz               19      0.526730  1 C  dxy        
    18      0.433619  1 C  dxx               29      0.291380  1 C  dzz        
    25     -0.283258  1 C  dxy               24     -0.233186  1 C  dxx        
 
 Vector   41  Occ=0.000000D+00  E= 8.265934D+00
              MO Center=  1.1D-15, -1.5D-15, -3.9D-16, r^2= 1.7D+00
   Bfn.  Coefficient  Atom+Function         Bfn.  Coefficient  Atom+Function  
  ----- ------------  ---------------      ----- ------------  ---------------
     8     11.034331  1 C  py                 7     -9.577752  1 C  px         
    37     -5.826630  1 C  fxxy              42     -5.826786  1 C  fyyy       
    44     -5.826894  1 C  fyzz              36      5.057651  1 C  fxxx       
    39      5.057410  1 C  fxyy              41      5.057719  1 C  fxzz       
     4     -2.610885  1 C  py                 3      2.266237  1 C  px         
 
 Vector   42  Occ=0.000000D+00  E= 8.299832D+00
              MO Center=  3.9D-15,  2.3D-15,  6.6D-15, r^2= 1.7D+00
   Bfn.  Coefficient  Atom+Function         Bfn.  Coefficient  Atom+Function  
  ----- ------------  ---------------      ----- ------------  ---------------
     9     12.237121  1 C  pz                 7      7.327433  1 C  px         
    38     -6.462447  1 C  fxxz              43     -6.462227  1 C  fyyz       
    45     -6.462635  1 C  fzzz               8      3.878148  1 C  py         
    36     -3.869584  1 C  fxxx              39     -3.869735  1 C  fxyy       
    41     -3.869876  1 C  fxzz               5     -2.894239  1 C  pz         
 
 Vector   43  Occ=0.000000D+00  E= 8.299832D+00
              MO Center=  4.7D-16,  6.4D-16, -3.6D-16, r^2= 1.7D+00
   Bfn.  Coefficient  Atom+Function         Bfn.  Coefficient  Atom+Function  
  ----- ------------  ---------------      ----- ------------  ---------------
     8      9.038433  1 C  py                 7      8.547653  1 C  px         
     9     -7.982657  1 C  pz                37     -4.773610  1 C  fxxy       
    42     -4.773087  1 C  fyyy              44     -4.773452  1 C  fyzz       
    36     -4.513976  1 C  fxxx              39     -4.514392  1 C  fxyy       
    41     -4.514077  1 C  fxzz              38      4.215512  1 C  fxxz       
 
 Vector   44  Occ=0.000000D+00  E= 8.816205D+00
              MO Center= -6.2D-15, -2.5D-15, -7.7D-15, r^2= 1.0D+00
   Bfn.  Coefficient  Atom+Function         Bfn.  Coefficient  Atom+Function  
  ----- ------------  ---------------      ----- ------------  ---------------
     6     13.688022  1 C  s                 10      5.768851  1 C  s          
    24     -5.435542  1 C  dxx               27     -5.436207  1 C  dyy        
    29     -5.433621  1 C  dzz                2     -3.318043  1 C  s          
    18     -3.161655  1 C  dxx               21     -3.160959  1 C  dyy        
    23     -3.163666  1 C  dzz               30     -1.420757  1 C  dxx        
 
 Vector   45  Occ=0.000000D+00  E= 2.902689D+01
              MO Center=  6.4D-17,  4.1D-17,  3.0D-17, r^2= 9.1D-02
   Bfn.  Coefficient  Atom+Function         Bfn.  Coefficient  Atom+Function  
  ----- ------------  ---------------      ----- ------------  ---------------
     6      4.164228  1 C  s                  1     -1.999835  1 C  s          
     2      1.540609  1 C  s                 24     -1.227495  1 C  dxx        
    27     -1.227478  1 C  dyy               29     -1.227545  1 C  dzz        
    18     -1.141867  1 C  dxx               21     -1.141832  1 C  dyy        
    23     -1.141968  1 C  dzz               10      0.523957  1 C  s          
 

   alpha - beta orbital overlaps 
   ----------------------------- 


   alpha      1      2      3      4      5      6      7      8      9     10
    beta      1      2      5      4      3      6      8      9      7     15
 overlap   1.000  0.998  0.810  0.810  0.999  0.999  0.932  0.932  0.999  0.988


   alpha     11     12     13     14     15     16     17     18     19     20
    beta     14     12     11     13     10     17     18     16     19     22
 overlap   0.988  0.999  0.999  0.975  0.976  0.938  0.938  1.000  0.998  0.984


   alpha     21     22     23     24     25     26     27     28     29     30
    beta     21     23     24     20     27     26     25     30     29     28
 overlap   0.984  0.918  0.918  0.998  1.000  1.000  0.999  0.989  0.989  0.999


   alpha     31     32     33     34     35     36     37     38     39     40
    beta     31     32     33     34     35     39     40     37     38     36
 overlap   0.991  0.991  0.991  0.991  1.000  0.724  0.724  0.996  0.996  1.000


   alpha     41     42     43     44     45
    beta     41     42     43     44     45
 overlap   1.000  0.994  0.994  1.000  1.000

     --------------------------
     Expectation value of S2:  
     --------------------------
      <S2> =      2.0042 (Exact =     2.0000)
 

 Parallel integral file used      16 records with       0 large values


 Task  times  cpu:        1.1s     wall:        1.8s
 
 
                                NWChem Input Module
                                -------------------
 
 
 Summary of allocated global arrays
-----------------------------------
  No active global arrays



                         GA Statistics for process    0
                         ------------------------------

       create   destroy   get      put      acc     scatter   gather  read&inc
calls:  221      221      813      503      154        0        0       39     
number of processes/call 1.62e+00 1.45e+00 3.84e+00 0.00e+00 0.00e+00
bytes total:             7.37e+06 2.80e+06 2.49e+06 0.00e+00 0.00e+00 3.12e+02
bytes remote:            5.01e+05 8.93e+04 5.71e+05 0.00e+00 0.00e+00 0.00e+00
Max memory consumed for GA by this process: 1053000 bytes
 
MA_summarize_allocated_blocks: starting scan ...
MA_summarize_allocated_blocks: scan completed: 0 heap blocks, 0 stack blocks
MA usage statistics:

	allocation statistics:
					      heap	     stack
					      ----	     -----
	current number of blocks	         0	         0
	maximum number of blocks	        21	        53
	current total bytes		         0	         0
	maximum total bytes		   1787128	  22512520
	maximum total K-bytes		      1788	     22513
	maximum total M-bytes		         2	        23
 
 
                                     CITATION
                                     --------
                Please cite the following reference when publishing
                           results obtained with NWChem:
 
                 M. Valiev, E.J. Bylaska, N. Govind, K. Kowalski,
              T.P. Straatsma, H.J.J. van Dam, D. Wang, J. Nieplocha,
                        E. Apra, T.L. Windus, W.A. de Jong
                 "NWChem: a comprehensive and scalable open-source
                  solution for large scale molecular simulations"
                      Comput. Phys. Commun. 181, 1477 (2010)
                           doi:10.1016/j.cpc.2010.04.018
 
                                      AUTHORS
                                      -------
          E. Apra, E. J. Bylaska, W. A. de Jong, N. Govind, K. Kowalski,
       T. P. Straatsma, M. Valiev, H. J. J. van Dam, D. Wang, T. L. Windus,
        J. Hammond, J. Autschbach, K. Bhaskaran-Nair, J. Brabec, K. Lopata,
    S. A. Fischer, S. Krishnamoorthy, M. Jacquelin, W. Ma, M. Klemm, O. Villa,
      Y. Chen, V. Anisimov, F. Aquino, S. Hirata, M. T. Hackler, V. Konjkov,
            D. Mejia-Rodriguez, T. Risthaus, M. Malagoli, A. Marenich,
   A. Otero-de-la-Roza, J. Mullin, P. Nichols, R. Peverati, J. Pittner, Y. Zhao,
        P.-D. Fan, A. Fonari, M. J. Williamson, R. J. Harrison, J. R. Rehr,
      M. Dupuis, D. Silverstein, D. M. A. Smith, J. Nieplocha, V. Tipparaju,
    M. Krishnan, B. E. Van Kuiken, A. Vazquez-Mayagoitia, L. Jensen, M. Swart,
      Q. Wu, T. Van Voorhis, A. A. Auer, M. Nooijen, L. D. Crosby, E. Brown,
      G. Cisneros, G. I. Fann, H. Fruchtl, J. Garza, K. Hirao, R. A. Kendall,
      J. A. Nichols, K. Tsemekhman, K. Wolinski, J. Anchell, D. E. Bernholdt,
      P. Borowski, T. Clark, D. Clerc, H. Dachsel, M. J. O. Deegan, K. Dyall,
    D. Elwood, E. Glendening, M. Gutowski, A. C. Hess, J. Jaffe, B. G. Johnson,
     J. Ju, R. Kobayashi, R. Kutteh, Z. Lin, R. Littlefield, X. Long, B. Meng,
      T. Nakajima, S. Niu, L. Pollack, M. Rosing, K. Glaesemann, G. Sandrone,
      M. Stave, H. Taylor, G. Thomas, J. H. van Lenthe, A. T. Wong, Z. Zhang.

 Total times  cpu:        1.1s     wall:        2.0s
