  NWChem w/ OpenMP: maximum threads =  1
                                         
                                         
 
 
              Northwest Computational Chemistry Package (NWChem) 6.8
              ------------------------------------------------------
 
 
                    Environmental Molecular Sciences Laboratory
                       Pacific Northwest National Laboratory
                                Richland, WA 99352
 
                              Copyright (c) 1994-2018
                       Pacific Northwest National Laboratory
                            Battelle Memorial Institute
 
             NWChem is an open-source computational chemistry package
                        distributed under the terms of the
                      Educational Community License (ECL) 2.0
             A copy of the license is included with this distribution
                              in the LICENSE.TXT file
 
                                  ACKNOWLEDGMENT
                                  --------------

            This software and its documentation were developed at the
            EMSL at Pacific Northwest National Laboratory, a multiprogram
            national laboratory, operated for the U.S. Department of Energy
            by Battelle under Contract Number DE-AC05-76RL01830. Support
            for this work was provided by the Department of Energy Office
            of Biological and Environmental Research, Office of Basic
            Energy Sciences, and the Office of Advanced Scientific Computing.


           Job information
           ---------------

    hostname        = r8n4.niserhpc.org
    program         = /home/rabeet/nwchem-6.8/bin/LINUX64/nwchem
    date            = Mon Jul  1 11:14:16 2019

    compiled        = Fri_Jun_28_18:24:12_2019
    source          = /home/rabeet/nwchem-6.8
    nwchem branch   = Development
    nwchem revision = N/A
    ga revision     = 5.6.5
    use scalapack   = T
    input           = nwchem.nw
    prefix          = O.
    data base       = ./O.db
    status          = startup
    nproc           =       16
    time left       =     -1s



           Memory information
           ------------------

    heap     =   13107200 doubles =    100.0 Mbytes
    stack    =   13107197 doubles =    100.0 Mbytes
    global   =   26214400 doubles =    200.0 Mbytes (distinct from heap & stack)
    total    =   52428797 doubles =    400.0 Mbytes
    verify   = yes
    hardfail = no 


           Directory information
           ---------------------
 
  0 permanent = .
  0 scratch   = .
 
 
 
 
                                NWChem Input Module
                                -------------------
 
 

 Scaling coordinates for geometry "geometry" by  1.889725989
 (inverse scale =  0.529177249)

 
 
                             Geometry "geometry" -> ""
                             -------------------------
 
 Output coordinates in angstroms (scale by  1.889725989 to convert to a.u.)
 
  No.       Tag          Charge          X              Y              Z
 ---- ---------------- ---------- -------------- -------------- --------------
    1 O                    8.0000     0.00000000     0.00000000     0.00000000
 
      Atomic Mass 
      ----------- 
 
      O                 15.994910
 

 Effective nuclear repulsion energy (a.u.)       0.0000000000

            Nuclear Dipole moment (a.u.) 
            ----------------------------
        X                 Y               Z
 ---------------- ---------------- ----------------
     0.0000000000     0.0000000000     0.0000000000
 
 
            XYZ format geometry
            -------------------
     1
 geometry
 O                     0.00000000     0.00000000     0.00000000
 


 Summary of "ao basis" -> "" (cartesian)
 ------------------------------------------------------------------------------
       Tag                 Description            Shells   Functions and Types
 ---------------- ------------------------------  ------  ---------------------
 *                     6-311++G(3df,3pd)              on all atoms 


 
                                 NWChem DFT Module
                                 -----------------
 
 
                      Basis "ao basis" -> "ao basis" (cartesian)
                      -----
  O (Oxygen)
  ----------
            Exponent  Coefficients 
       -------------- ---------------------------------------------------------
  1 S  8.58850000E+03  0.001895
  1 S  1.29723000E+03  0.014386
  1 S  2.99296000E+02  0.070732
  1 S  8.73771000E+01  0.240001
  1 S  2.56789000E+01  0.594797
  1 S  3.74004000E+00  0.280802
 
  2 S  4.21175000E+01  0.113889
  2 S  9.62837000E+00  0.920811
  2 S  2.85332000E+00 -0.003274
 
  3 P  4.21175000E+01  0.036511
  3 P  9.62837000E+00  0.237153
  3 P  2.85332000E+00  0.819702
 
  4 S  9.05661000E-01  1.000000
 
  5 P  9.05661000E-01  1.000000
 
  6 S  2.55611000E-01  1.000000
 
  7 P  2.55611000E-01  1.000000
 
  8 S  8.45000000E-02  1.000000
 
  9 P  8.45000000E-02  1.000000
 
 10 D  5.16000000E+00  1.000000
 
 11 D  1.29200000E+00  1.000000
 
 12 D  3.22500000E-01  1.000000
 
 13 F  1.40000000E+00  1.000000
 


 Summary of "ao basis" -> "ao basis" (cartesian)
 ------------------------------------------------------------------------------
       Tag                 Description            Shells   Functions and Types
 ---------------- ------------------------------  ------  ---------------------
 O                     6-311++G(3df,3pd)            13       45   5s4p3d1f




 Summary of "ao basis" -> "ao basis" (cartesian)
 ------------------------------------------------------------------------------
       Tag                 Description            Shells   Functions and Types
 ---------------- ------------------------------  ------  ---------------------
 O                     6-311++G(3df,3pd)            13       45   5s4p3d1f


  Caching 1-el integrals 
 
            General Information
            -------------------
          SCF calculation type: DFT
          Wavefunction type:  spin polarized.
          No. of atoms     :     1
          No. of electrons :     8
           Alpha electrons :     5
            Beta electrons :     3
          Charge           :     0
          Spin multiplicity:     3
          Use of symmetry is: off; symmetry adaption is: off
          Maximum number of iterations: ***
          AO basis - number of functions:    45
                     number of shells:    13
          Convergence on energy requested:  1.00D-06
          Convergence on density requested:  1.00D-05
          Convergence on gradient requested:  5.00D-04
 
              XC Information
              --------------
                  TPSS metaGGA Exchange Functional  1.000          
             TPSS03 metaGGA Correlation Functional  1.000          
 
             Grid Information
             ----------------
          Grid used for XC integration:  medium    
          Radial quadrature: Mura-Knowles        
          Angular quadrature: Lebedev. 
          Tag              B.-S. Rad. Rad. Pts. Rad. Cut. Ang. Pts.
          ---              ---------- --------- --------- ---------
          O                   0.60       49           6.0       434
          Grid pruning is: on 
          Number of quadrature shells:    49
          Spatial weights used:  Erf1
 
          Convergence Information
          -----------------------
          Convergence aids based upon iterative change in 
          total energy or number of iterations. 
          Levelshifting, if invoked, occurs when the 
          HOMO/LUMO gap drops below (HL_TOL):  1.00D-02
          DIIS, if invoked, will attempt to extrapolate 
          using up to (NFOCK): 10 stored Fock matrices.

                    Damping( 0%)  Levelshifting(0.5)       DIIS
                  --------------- ------------------- ---------------
          dE  on:    start            ASAP                start   
          dE off:    2 iters        *** iters           *** iters 

 
      Screening Tolerance Information
      -------------------------------
          Density screening/tol_rho:  1.00D-10
          AO Gaussian exp screening on grid/accAOfunc:  14
          CD Gaussian exp screening on grid/accCDfunc:  20
          XC Gaussian exp screening on grid/accXCfunc:  20
          Schwarz screening/accCoul:  1.00D-08

 
      Superposition of Atomic Density Guess
      -------------------------------------
 
 Sum of atomic energies:         -74.77778571
 
      Non-variational initial energy
      ------------------------------

 Total energy =     -74.276656
 1-e energy   =    -103.202565
 2-e energy   =      28.925909
 HOMO         =      -0.377599
 LUMO         =      -0.377599
 
   Time after variat. SCF:      0.4
   Time prior to 1st pass:      0.4

 #quartets = 4.186D+03 #integrals = 9.141D+04 #direct =  0.0% #cached =100.0%


 Integral file          = ./O.aoints.00
 Record size in doubles =    65536    No. of integs per rec  =    43688
 Max. records in memory =        3    Max. records in file   = 11055251
 No. of bits per label  =        8    No. of bits per value  =       64


File balance: exchanges=     0  moved=     0  time=   0.0


 Grid_pts file          = ./O.gridpts.00
 Record size in doubles =  12289        No. of grid_pts per rec  =   3070
 Max. records in memory =      2        Max. recs in file   =  58956549


           Memory utilization after 1st SCF pass: 
           Heap Space remaining (MW):       12.88            12883808
          Stack Space remaining (MW):       13.11            13106724

   convergence    iter        energy       DeltaE   RMS-Dens  Diis-err    time
 ---------------- ----- ----------------- --------- --------- ---------  ------
 d= 0,ls=0.0,diis     1    -75.0724517656 -7.51D+01  5.08D-03  1.61D-01     1.2
                                                     1.88D-03  5.88D-02
 d= 0,ls=0.0,diis     2    -75.0819963679 -9.54D-03  2.74D-03  7.44D-02     1.3
                                                     2.37D-03  4.62D-02
 d= 0,ls=0.0,diis     3    -75.1006724768 -1.87D-02  5.21D-04  3.20D-03     1.3
                                                     2.73D-04  1.08D-03
 d= 0,ls=0.0,diis     4    -75.1014274914 -7.55D-04  1.82D-05  4.24D-06     1.4
                                                     5.29D-05  1.04D-05
 d= 0,ls=0.0,diis     5    -75.1014306228 -3.13D-06  6.94D-06  2.93D-07     1.5
                                                     2.67D-06  2.84D-08
 d= 0,ls=0.0,diis     6    -75.1014306967 -7.38D-08  3.45D-07  1.53D-09     1.5
                                                     8.34D-07  3.08D-09


         Total DFT energy =      -75.101430696664
      One electron energy =     -103.202559958153
           Coulomb energy =       36.584644776038
          Exchange energy =       -8.247184214304
       Correlation energy =       -0.236331300245
 Nuclear repulsion energy =        0.000000000000

 Numeric. integr. density =        7.999999976013

     Total iterative time =      1.2s


 
                    DFT Final Alpha Molecular Orbital Analysis
                    ------------------------------------------
 
 Vector    1  Occ=1.000000D+00  E=-1.903121D+01
              MO Center= -7.8D-17, -6.2D-18,  2.2D-18, r^2= 1.5D-02
   Bfn.  Coefficient  Atom+Function         Bfn.  Coefficient  Atom+Function  
  ----- ------------  ---------------      ----- ------------  ---------------
     1      0.551108  1 O  s                  2      0.470427  1 O  s          
 
 Vector    2  Occ=1.000000D+00  E=-9.499076D-01
              MO Center=  4.6D-17, -1.4D-15, -8.5D-15, r^2= 4.3D-01
   Bfn.  Coefficient  Atom+Function         Bfn.  Coefficient  Atom+Function  
  ----- ------------  ---------------      ----- ------------  ---------------
    10      0.682006  1 O  s                  6      0.668957  1 O  s          
     2     -0.234882  1 O  s                  1     -0.129963  1 O  s          
    30     -0.082250  1 O  dxx               33     -0.073686  1 O  dyy        
    35     -0.072111  1 O  dzz               24     -0.059990  1 O  dxx        
    27     -0.043434  1 O  dyy               29     -0.040390  1 O  dzz        
 
 Vector    3  Occ=1.000000D+00  E=-4.057884D-01
              MO Center=  8.6D-16,  2.0D-15,  6.4D-15, r^2= 5.4D-01
   Bfn.  Coefficient  Atom+Function         Bfn.  Coefficient  Atom+Function  
  ----- ------------  ---------------      ----- ------------  ---------------
     9      0.460008  1 O  pz                13      0.362276  1 O  pz         
     5      0.316389  1 O  pz                 8      0.119726  1 O  py         
    12      0.094289  1 O  py                 4      0.082346  1 O  py         
     7      0.077750  1 O  px                11      0.061231  1 O  px         
     3      0.053476  1 O  px                17      0.036709  1 O  pz         
 
 Vector    4  Occ=1.000000D+00  E=-4.057883D-01
              MO Center= -2.0D-16, -1.3D-15,  8.8D-16, r^2= 5.4D-01
   Bfn.  Coefficient  Atom+Function         Bfn.  Coefficient  Atom+Function  
  ----- ------------  ---------------      ----- ------------  ---------------
     8      0.431229  1 O  py                12      0.339611  1 O  py         
     4      0.296595  1 O  py                 7      0.162785  1 O  px         
     9     -0.139749  1 O  pz                11      0.128200  1 O  px         
     3      0.111962  1 O  px                13     -0.110059  1 O  pz         
     5     -0.096118  1 O  pz                16      0.034413  1 O  py         
 
 Vector    5  Occ=1.000000D+00  E=-3.263837D-01
              MO Center=  3.5D-16,  9.2D-17, -1.1D-16, r^2= 6.0D-01
   Bfn.  Coefficient  Atom+Function         Bfn.  Coefficient  Atom+Function  
  ----- ------------  ---------------      ----- ------------  ---------------
     7      0.420369  1 O  px                11      0.368452  1 O  px         
     3      0.300295  1 O  px                 8     -0.167577  1 O  py         
    12     -0.146881  1 O  py                 4     -0.119710  1 O  py         
    15      0.062244  1 O  px                 9     -0.027435  1 O  pz         
 
 Vector    6  Occ=0.000000D+00  E= 6.158805D-02
              MO Center= -4.2D-15,  2.0D-14,  1.7D-14, r^2= 4.2D+00
   Bfn.  Coefficient  Atom+Function         Bfn.  Coefficient  Atom+Function  
  ----- ------------  ---------------      ----- ------------  ---------------
    14      1.760873  1 O  s                  6     -0.363433  1 O  s          
    30     -0.311049  1 O  dxx               33     -0.303344  1 O  dyy        
    35     -0.301928  1 O  dzz               10     -0.211382  1 O  s          
    29     -0.069289  1 O  dzz               27     -0.068324  1 O  dyy        
    24     -0.063073  1 O  dxx                2      0.043069  1 O  s          
 
 Vector    7  Occ=0.000000D+00  E= 1.310184D-01
              MO Center= -5.3D-15, -1.3D-14, -2.1D-15, r^2= 4.9D+00
   Bfn.  Coefficient  Atom+Function         Bfn.  Coefficient  Atom+Function  
  ----- ------------  ---------------      ----- ------------  ---------------
    16      1.123098  1 O  py                15      0.450579  1 O  px         
    12     -0.372877  1 O  py                11     -0.149596  1 O  px         
     8     -0.140412  1 O  py                 4     -0.111876  1 O  py         
     7     -0.056332  1 O  px                 3     -0.044884  1 O  px         
    17      0.043946  1 O  pz         
 
 Vector    8  Occ=0.000000D+00  E= 1.310184D-01
              MO Center= -1.0D-15,  6.1D-16, -1.4D-14, r^2= 4.9D+00
   Bfn.  Coefficient  Atom+Function         Bfn.  Coefficient  Atom+Function  
  ----- ------------  ---------------      ----- ------------  ---------------
    17      1.207891  1 O  pz                13     -0.401029  1 O  pz         
     9     -0.151013  1 O  pz                 5     -0.120323  1 O  pz         
    16     -0.068014  1 O  py                15      0.051720  1 O  px         
 
 Vector    9  Occ=0.000000D+00  E= 1.425027D-01
              MO Center=  9.0D-15, -4.3D-15, -1.2D-15, r^2= 4.9D+00
   Bfn.  Coefficient  Atom+Function         Bfn.  Coefficient  Atom+Function  
  ----- ------------  ---------------      ----- ------------  ---------------
    15      1.134358  1 O  px                16     -0.452200  1 O  py         
    11     -0.413093  1 O  px                12      0.164675  1 O  py         
     7     -0.142047  1 O  px                 3     -0.119197  1 O  px         
    17     -0.074034  1 O  pz                 8      0.056626  1 O  py         
     4      0.047517  1 O  py                13      0.026961  1 O  pz         
 
 Vector   10  Occ=0.000000D+00  E= 6.946162D-01
              MO Center=  1.3D-15,  3.4D-15,  6.6D-16, r^2= 1.5D+00
   Bfn.  Coefficient  Atom+Function         Bfn.  Coefficient  Atom+Function  
  ----- ------------  ---------------      ----- ------------  ---------------
    34      1.503167  1 O  dyz               32      0.559814  1 O  dxz        
    35     -0.301938  1 O  dzz               31      0.279804  1 O  dxy        
    33      0.227900  1 O  dyy               30      0.074039  1 O  dxx        
    22      0.025250  1 O  dyz        
 
 Vector   11  Occ=0.000000D+00  E= 6.946162D-01
              MO Center=  2.6D-16, -3.7D-16,  6.7D-15, r^2= 1.5D+00
   Bfn.  Coefficient  Atom+Function         Bfn.  Coefficient  Atom+Function  
  ----- ------------  ---------------      ----- ------------  ---------------
    35      0.800343  1 O  dzz               33     -0.705334  1 O  dyy        
    31     -0.528021  1 O  dxy               34      0.526043  1 O  dyz        
    32      0.314170  1 O  dxz               30     -0.094988  1 O  dxx        
 
 Vector   12  Occ=0.000000D+00  E= 7.009644D-01
              MO Center=  4.0D-15,  2.3D-15,  3.5D-15, r^2= 2.9D+00
   Bfn.  Coefficient  Atom+Function         Bfn.  Coefficient  Atom+Function  
  ----- ------------  ---------------      ----- ------------  ---------------
    10      2.243033  1 O  s                 35     -1.761824  1 O  dzz        
    33     -1.703356  1 O  dyy               14      1.691734  1 O  s          
    30     -1.385335  1 O  dxx               24     -0.353211  1 O  dxx        
    27     -0.346244  1 O  dyy               29     -0.344963  1 O  dzz        
    31     -0.301456  1 O  dxy                2     -0.244565  1 O  s          
 
 Vector   13  Occ=0.000000D+00  E= 7.159332D-01
              MO Center=  4.9D-15, -2.9D-15, -1.3D-15, r^2= 1.5D+00
   Bfn.  Coefficient  Atom+Function         Bfn.  Coefficient  Atom+Function  
  ----- ------------  ---------------      ----- ------------  ---------------
    32      1.182884  1 O  dxz               31      0.756186  1 O  dxy        
    34     -0.544444  1 O  dyz               30      0.452482  1 O  dxx        
    33     -0.373353  1 O  dyy               35     -0.079128  1 O  dzz        
 
 Vector   14  Occ=0.000000D+00  E= 7.159332D-01
              MO Center=  3.8D-15, -1.6D-16, -1.3D-15, r^2= 1.5D+00
   Bfn.  Coefficient  Atom+Function         Bfn.  Coefficient  Atom+Function  
  ----- ------------  ---------------      ----- ------------  ---------------
    32     -1.061187  1 O  dxz               31      0.995490  1 O  dxy        
    33     -0.459050  1 O  dyy               30      0.391465  1 O  dxx        
    34      0.337694  1 O  dyz               35      0.067592  1 O  dzz        
 
 Vector   15  Occ=0.000000D+00  E= 7.262286D-01
              MO Center=  2.6D-15, -9.7D-16, -6.0D-16, r^2= 1.6D+00
   Bfn.  Coefficient  Atom+Function         Bfn.  Coefficient  Atom+Function  
  ----- ------------  ---------------      ----- ------------  ---------------
    30      1.255890  1 O  dxx               31     -0.978468  1 O  dxy        
    10     -0.721116  1 O  s                 14     -0.509619  1 O  s          
    33      0.223668  1 O  dyy               32     -0.160192  1 O  dxz        
    24      0.114184  1 O  dxx               27      0.105478  1 O  dyy        
    29      0.103878  1 O  dzz                2      0.070488  1 O  s          
 
 Vector   16  Occ=0.000000D+00  E= 8.990651D-01
              MO Center= -7.0D-15, -2.1D-15, -1.1D-14, r^2= 2.2D+00
   Bfn.  Coefficient  Atom+Function         Bfn.  Coefficient  Atom+Function  
  ----- ------------  ---------------      ----- ------------  ---------------
    13      1.468345  1 O  pz                17     -0.740573  1 O  pz         
    12      0.679896  1 O  py                 9     -0.607219  1 O  pz         
    11      0.366866  1 O  px                16     -0.342911  1 O  py         
     8     -0.281164  1 O  py                 5     -0.256038  1 O  pz         
    15     -0.185032  1 O  px                 7     -0.151714  1 O  px         
 
 Vector   17  Occ=0.000000D+00  E= 8.990652D-01
              MO Center= -6.0D-15, -2.8D-15,  8.4D-16, r^2= 2.2D+00
   Bfn.  Coefficient  Atom+Function         Bfn.  Coefficient  Atom+Function  
  ----- ------------  ---------------      ----- ------------  ---------------
    12      1.383663  1 O  py                13     -0.766008  1 O  pz         
    16     -0.697862  1 O  py                 8     -0.572200  1 O  py         
    11      0.501593  1 O  px                17      0.386343  1 O  pz         
     9      0.316775  1 O  pz                15     -0.252983  1 O  px         
     4     -0.241272  1 O  py                 7     -0.207428  1 O  px         
 
 Vector   18  Occ=0.000000D+00  E= 9.373558D-01
              MO Center= -6.3D-15,  2.8D-15,  3.1D-15, r^2= 2.1D+00
   Bfn.  Coefficient  Atom+Function         Bfn.  Coefficient  Atom+Function  
  ----- ------------  ---------------      ----- ------------  ---------------
    11      1.527054  1 O  px                15     -0.758221  1 O  px         
     7     -0.637476  1 O  px                12     -0.608747  1 O  py         
    16      0.302258  1 O  py                 3     -0.275356  1 O  px         
     8      0.254125  1 O  py                 4      0.109769  1 O  py         
    13     -0.099662  1 O  pz                41     -0.067524  1 O  fxzz       
 
 Vector   19  Occ=0.000000D+00  E= 2.416346D+00
              MO Center=  2.2D-15,  2.0D-15,  9.0D-16, r^2= 1.6D+00
   Bfn.  Coefficient  Atom+Function         Bfn.  Coefficient  Atom+Function  
  ----- ------------  ---------------      ----- ------------  ---------------
    10     10.261572  1 O  s                  6     -3.442667  1 O  s          
    30     -3.320267  1 O  dxx               33     -3.320118  1 O  dyy        
    35     -3.320091  1 O  dzz               14      1.039325  1 O  s          
    27     -0.984226  1 O  dyy               29     -0.986345  1 O  dzz        
    24     -0.972704  1 O  dxx               21     -0.233002  1 O  dyy        
 
 Vector   20  Occ=0.000000D+00  E= 3.143251D+00
              MO Center=  5.8D-16,  1.1D-15,  5.0D-16, r^2= 5.8D-01
   Bfn.  Coefficient  Atom+Function         Bfn.  Coefficient  Atom+Function  
  ----- ------------  ---------------      ----- ------------  ---------------
    28      1.749960  1 O  dyz               34     -0.835604  1 O  dyz        
    26      0.723153  1 O  dxz               32     -0.345305  1 O  dxz        
    27     -0.208867  1 O  dyy               29      0.195697  1 O  dzz        
    33      0.099734  1 O  dyy               35     -0.093445  1 O  dzz        
    25     -0.052316  1 O  dxy        
 
 Vector   21  Occ=0.000000D+00  E= 3.143251D+00
              MO Center= -4.4D-16, -7.3D-16,  2.2D-15, r^2= 5.8D-01
   Bfn.  Coefficient  Atom+Function         Bfn.  Coefficient  Atom+Function  
  ----- ------------  ---------------      ----- ------------  ---------------
    29      0.944937  1 O  dzz               27     -0.809706  1 O  dyy        
    25     -0.672106  1 O  dxy               35     -0.451206  1 O  dzz        
    28     -0.406664  1 O  dyz               33      0.386634  1 O  dyy        
    31      0.320930  1 O  dxy               34      0.194182  1 O  dyz        
    24     -0.135231  1 O  dxx               30      0.064572  1 O  dxx        
 
 Vector   22  Occ=0.000000D+00  E= 3.202432D+00
              MO Center=  2.4D-16,  1.2D-15, -2.7D-16, r^2= 5.7D-01
   Bfn.  Coefficient  Atom+Function         Bfn.  Coefficient  Atom+Function  
  ----- ------------  ---------------      ----- ------------  ---------------
    26      1.613687  1 O  dxz               32     -0.761456  1 O  dxz        
    28     -0.694820  1 O  dyz               25      0.499573  1 O  dxy        
    24      0.363835  1 O  dxx               34      0.327867  1 O  dyz        
    27     -0.256970  1 O  dyy               31     -0.235735  1 O  dxy        
    30     -0.171684  1 O  dxx               33      0.121257  1 O  dyy        
 
 Vector   23  Occ=0.000000D+00  E= 3.202432D+00
              MO Center= -5.6D-16,  2.0D-16, -3.0D-16, r^2= 5.7D-01
   Bfn.  Coefficient  Atom+Function         Bfn.  Coefficient  Atom+Function  
  ----- ------------  ---------------      ----- ------------  ---------------
    25      1.314536  1 O  dxy               26     -0.769127  1 O  dxz        
    31     -0.620294  1 O  dxy               27     -0.614012  1 O  dyy        
    24      0.566228  1 O  dxx               32      0.362931  1 O  dxz        
    33      0.289736  1 O  dyy               30     -0.267188  1 O  dxx        
    28      0.191352  1 O  dyz               34     -0.090294  1 O  dyz        
 
 Vector   24  Occ=0.000000D+00  E= 3.224020D+00
              MO Center= -9.7D-16,  9.6D-16,  3.7D-16, r^2= 5.7D-01
   Bfn.  Coefficient  Atom+Function         Bfn.  Coefficient  Atom+Function  
  ----- ------------  ---------------      ----- ------------  ---------------
    25      1.150418  1 O  dxy               24     -0.878455  1 O  dxx        
    29      0.558317  1 O  dzz               31     -0.540644  1 O  dxy        
    30      0.403029  1 O  dxx               27      0.335161  1 O  dyy        
    35     -0.272189  1 O  dzz               26      0.188340  1 O  dxz        
    33     -0.167316  1 O  dyy               32     -0.088511  1 O  dxz        
 
 Vector   25  Occ=0.000000D+00  E= 4.437217D+00
              MO Center=  1.1D-15, -7.1D-17, -6.1D-15, r^2= 5.7D-01
   Bfn.  Coefficient  Atom+Function         Bfn.  Coefficient  Atom+Function  
  ----- ------------  ---------------      ----- ------------  ---------------
    45      1.098369  1 O  fzzz              43      1.082603  1 O  fyyz       
    38      0.997262  1 O  fxxz              13     -0.759026  1 O  pz         
     5     -0.745693  1 O  pz                 9     -0.447548  1 O  pz         
    17      0.291356  1 O  pz                40      0.081121  1 O  fxyz       
    41      0.079821  1 O  fxzz              39      0.064530  1 O  fxyy       
 
 Vector   26  Occ=0.000000D+00  E= 4.437217D+00
              MO Center= -3.4D-15, -6.3D-15,  2.4D-16, r^2= 5.7D-01
   Bfn.  Coefficient  Atom+Function         Bfn.  Coefficient  Atom+Function  
  ----- ------------  ---------------      ----- ------------  ---------------
    44      1.022499  1 O  fyzz              42      1.007704  1 O  fyyy       
    37      0.957791  1 O  fxxy              12     -0.706555  1 O  py         
     4     -0.694144  1 O  py                39      0.476876  1 O  fxyy       
     8     -0.416609  1 O  py                41      0.406626  1 O  fxzz       
    36      0.369033  1 O  fxxx              11     -0.281102  1 O  px         
 
 Vector   27  Occ=0.000000D+00  E= 4.506667D+00
              MO Center= -1.5D-15,  6.0D-16, -3.9D-16, r^2= 5.6D-01
   Bfn.  Coefficient  Atom+Function         Bfn.  Coefficient  Atom+Function  
  ----- ------------  ---------------      ----- ------------  ---------------
    41      1.070196  1 O  fxzz              39      1.018913  1 O  fxyy       
    36      0.961078  1 O  fxxx               3     -0.694827  1 O  px         
    11     -0.697908  1 O  px                44     -0.426625  1 O  fyzz       
    42     -0.420186  1 O  fyyy               7     -0.412313  1 O  px         
    37     -0.295002  1 O  fxxy               4      0.276987  1 O  py         
 
 Vector   28  Occ=0.000000D+00  E= 4.857462D+00
              MO Center= -3.2D-16, -7.5D-16, -3.1D-16, r^2= 4.5D-01
   Bfn.  Coefficient  Atom+Function         Bfn.  Coefficient  Atom+Function  
  ----- ------------  ---------------      ----- ------------  ---------------
    44     -1.588749  1 O  fyzz              43      1.446056  1 O  fyyz       
    40      0.945541  1 O  fxyz              41     -0.736880  1 O  fxzz       
    39      0.617317  1 O  fxyy              45     -0.528810  1 O  fzzz       
    42      0.437268  1 O  fyyy              37      0.276944  1 O  fxxy       
    38      0.140375  1 O  fxxz              36      0.039855  1 O  fxxx       
 
 Vector   29  Occ=0.000000D+00  E= 4.857462D+00
              MO Center= -2.6D-16, -5.9D-16, -4.1D-16, r^2= 4.5D-01
   Bfn.  Coefficient  Atom+Function         Bfn.  Coefficient  Atom+Function  
  ----- ------------  ---------------      ----- ------------  ---------------
    44      1.515544  1 O  fyzz              43      1.444493  1 O  fyyz       
    40      1.349494  1 O  fxyz              45     -0.581824  1 O  fzzz       
    41      0.490243  1 O  fxzz              42     -0.459384  1 O  fyyy       
    39     -0.455115  1 O  fxyy              38      0.300978  1 O  fxxz       
    37     -0.137392  1 O  fxxy       
 
 Vector   30  Occ=0.000000D+00  E= 4.900727D+00
              MO Center=  5.1D-16, -8.4D-16,  1.3D-15, r^2= 4.5D-01
   Bfn.  Coefficient  Atom+Function         Bfn.  Coefficient  Atom+Function  
  ----- ------------  ---------------      ----- ------------  ---------------
    41      1.763614  1 O  fxzz              37     -1.148633  1 O  fxxy       
    39     -1.013912  1 O  fxyy              44     -0.659034  1 O  fyzz       
    42      0.602556  1 O  fyyy              40     -0.566187  1 O  fxyz       
    43      0.362171  1 O  fyyz              36     -0.249901  1 O  fxxx       
    45     -0.114958  1 O  fzzz       
 
 Vector   31  Occ=0.000000D+00  E= 4.900727D+00
              MO Center= -1.7D-16, -3.9D-16,  3.3D-16, r^2= 4.5D-01
   Bfn.  Coefficient  Atom+Function         Bfn.  Coefficient  Atom+Function  
  ----- ------------  ---------------      ----- ------------  ---------------
    40      2.733351  1 O  fxyz              38      1.340071  1 O  fxxz       
    43     -1.278851  1 O  fyyz              44     -0.337693  1 O  fyzz       
    39     -0.319754  1 O  fxyy              41      0.225085  1 O  fxzz       
    42      0.137226  1 O  fyyy              37     -0.073985  1 O  fxxy       
    36      0.031556  1 O  fxxx       
 
 Vector   32  Occ=0.000000D+00  E= 4.928509D+00
              MO Center= -3.9D-16,  2.7D-16,  6.5D-16, r^2= 4.5D-01
   Bfn.  Coefficient  Atom+Function         Bfn.  Coefficient  Atom+Function  
  ----- ------------  ---------------      ----- ------------  ---------------
    40     -2.051103  1 O  fxyz              38      1.885449  1 O  fxxz       
    39     -0.619605  1 O  fxyy              45     -0.524790  1 O  fzzz       
    41     -0.420826  1 O  fxzz              36      0.359671  1 O  fxxx       
    37      0.218083  1 O  fxxy              43     -0.102405  1 O  fyyz       
    42     -0.042354  1 O  fyyy              44     -0.028402  1 O  fyzz       
 
 Vector   33  Occ=0.000000D+00  E= 4.928509D+00
              MO Center= -1.0D-16,  3.3D-17, -1.7D-17, r^2= 4.5D-01
   Bfn.  Coefficient  Atom+Function         Bfn.  Coefficient  Atom+Function  
  ----- ------------  ---------------      ----- ------------  ---------------
    39      1.905569  1 O  fxyy              37     -1.130349  1 O  fxxy       
    38      0.788015  1 O  fxxz              36     -0.683711  1 O  fxxx       
    44      0.537198  1 O  fyzz              40     -0.426988  1 O  fxyz       
    45     -0.181883  1 O  fzzz              43     -0.170044  1 O  fyyz       
    42      0.132444  1 O  fyyy              41      0.072223  1 O  fxzz       
 
 Vector   34  Occ=0.000000D+00  E= 4.938206D+00
              MO Center=  1.1D-15, -3.2D-16, -3.1D-17, r^2= 4.5D-01
   Bfn.  Coefficient  Atom+Function         Bfn.  Coefficient  Atom+Function  
  ----- ------------  ---------------      ----- ------------  ---------------
    37      1.848964  1 O  fxxy              41      1.305463  1 O  fxzz       
    36     -0.658792  1 O  fxxx              44     -0.520413  1 O  fyzz       
    42     -0.404502  1 O  fyyy              39      0.382315  1 O  fxyy       
    40     -0.310595  1 O  fxyz              38      0.302704  1 O  fxxz       
    45     -0.086306  1 O  fzzz              11      0.038403  1 O  px         
 
 Vector   35  Occ=0.000000D+00  E= 6.761666D+00
              MO Center=  1.6D-14,  5.4D-15,  2.6D-15, r^2= 7.7D-01
   Bfn.  Coefficient  Atom+Function         Bfn.  Coefficient  Atom+Function  
  ----- ------------  ---------------      ----- ------------  ---------------
    10      9.327627  1 O  s                  6      4.163824  1 O  s          
    24     -3.695022  1 O  dxx               27     -3.693757  1 O  dyy        
    29     -3.693524  1 O  dzz               30     -2.654153  1 O  dxx        
    33     -2.654844  1 O  dyy               35     -2.654971  1 O  dzz        
     2     -1.567115  1 O  s                 18     -0.813429  1 O  dxx        
 
 Vector   36  Occ=0.000000D+00  E= 1.396136D+01
              MO Center= -2.3D-15, -7.6D-15,  9.7D-15, r^2= 1.7D-01
   Bfn.  Coefficient  Atom+Function         Bfn.  Coefficient  Atom+Function  
  ----- ------------  ---------------      ----- ------------  ---------------
    23     -0.888189  1 O  dzz               22      0.837148  1 O  dyz        
    21      0.750867  1 O  dyy               19      0.653291  1 O  dxy        
    29      0.486757  1 O  dzz               28     -0.458785  1 O  dyz        
    27     -0.411500  1 O  dyy               25     -0.358025  1 O  dxy        
    20      0.217787  1 O  dxz               35     -0.147887  1 O  dzz        
 
 Vector   37  Occ=0.000000D+00  E= 1.396136D+01
              MO Center=  2.1D-15,  5.2D-15,  1.5D-15, r^2= 1.7D-01
   Bfn.  Coefficient  Atom+Function         Bfn.  Coefficient  Atom+Function  
  ----- ------------  ---------------      ----- ------------  ---------------
    22      1.633895  1 O  dyz               28     -0.895429  1 O  dyz        
    20      0.707248  1 O  dxz               23      0.428355  1 O  dzz        
    21     -0.407872  1 O  dyy               26     -0.387596  1 O  dxz        
    34      0.272051  1 O  dyz               29     -0.234753  1 O  dzz        
    27      0.223527  1 O  dyy               19     -0.218557  1 O  dxy        
 
 Vector   38  Occ=0.000000D+00  E= 1.402289D+01
              MO Center= -2.5D-15,  6.0D-16, -8.9D-16, r^2= 1.7D-01
   Bfn.  Coefficient  Atom+Function         Bfn.  Coefficient  Atom+Function  
  ----- ------------  ---------------      ----- ------------  ---------------
    20      1.702027  1 O  dxz               26     -0.931477  1 O  dxz        
    22     -0.722230  1 O  dyz               19      0.408943  1 O  dxy        
    28      0.395258  1 O  dyz               18      0.327555  1 O  dxx        
    32      0.282523  1 O  dxz               25     -0.223804  1 O  dxy        
    21     -0.215077  1 O  dyy               24     -0.179263  1 O  dxx        
 
 Vector   39  Occ=0.000000D+00  E= 1.402289D+01
              MO Center=  1.4D-15, -2.9D-15,  6.9D-16, r^2= 1.7D-01
   Bfn.  Coefficient  Atom+Function         Bfn.  Coefficient  Atom+Function  
  ----- ------------  ---------------      ----- ------------  ---------------
    19      1.376850  1 O  dxy               25     -0.753516  1 O  dxy        
    20     -0.660764  1 O  dxz               21     -0.644914  1 O  dyy        
    18      0.604364  1 O  dxx               26      0.361620  1 O  dxz        
    27      0.352945  1 O  dyy               24     -0.330753  1 O  dxx        
    31      0.228546  1 O  dxy               22      0.142101  1 O  dyz        
 
 Vector   40  Occ=0.000000D+00  E= 1.404372D+01
              MO Center= -8.3D-15,  5.6D-15,  4.9D-15, r^2= 1.7D-01
   Bfn.  Coefficient  Atom+Function         Bfn.  Coefficient  Atom+Function  
  ----- ------------  ---------------      ----- ------------  ---------------
    19      1.174969  1 O  dxy               18     -0.884160  1 O  dxx        
    25     -0.642738  1 O  dxy               23      0.583275  1 O  dzz        
    24      0.539381  1 O  dxx               21      0.355355  1 O  dyy        
    29     -0.263343  1 O  dzz               31      0.194833  1 O  dxy        
    20      0.192366  1 O  dxz               27     -0.138665  1 O  dyy        
 
 Vector   41  Occ=0.000000D+00  E= 1.618079D+01
              MO Center=  1.7D-14,  2.9D-14,  3.9D-14, r^2= 3.2D-01
   Bfn.  Coefficient  Atom+Function         Bfn.  Coefficient  Atom+Function  
  ----- ------------  ---------------      ----- ------------  ---------------
     9     11.564145  1 O  pz                38     -6.252311  1 O  fxxz       
    43     -6.252887  1 O  fyyz              45     -6.253016  1 O  fzzz       
     8      4.845343  1 O  py                 5     -3.112695  1 O  pz         
     7      2.686283  1 O  px                37     -2.619826  1 O  fxxy       
    42     -2.619948  1 O  fyyy              44     -2.619958  1 O  fyzz       
 
 Vector   42  Occ=0.000000D+00  E= 1.618079D+01
              MO Center=  1.8D-14,  5.6D-14, -3.0D-14, r^2= 3.2D-01
   Bfn.  Coefficient  Atom+Function         Bfn.  Coefficient  Atom+Function  
  ----- ------------  ---------------      ----- ------------  ---------------
     8     10.884933  1 O  py                37     -5.885265  1 O  fxxy       
    42     -5.885643  1 O  fyyy              44     -5.885768  1 O  fyzz       
     9     -5.485560  1 O  pz                 7      3.981179  1 O  px         
    38      2.965799  1 O  fxxz              43      2.966159  1 O  fyyz       
    45      2.966176  1 O  fzzz               4     -2.929873  1 O  py         
 
 Vector   43  Occ=0.000000D+00  E= 1.624541D+01
              MO Center=  1.8D-13, -6.8D-14, -1.2D-14, r^2= 3.2D-01
   Bfn.  Coefficient  Atom+Function         Bfn.  Coefficient  Atom+Function  
  ----- ------------  ---------------      ----- ------------  ---------------
     7     11.890344  1 O  px                36     -6.428925  1 O  fxxx       
    39     -6.429292  1 O  fxyy              41     -6.429617  1 O  fxzz       
     8     -4.739989  1 O  py                 3     -3.199467  1 O  px         
    37      2.562280  1 O  fxxy              42      2.563074  1 O  fyyy       
    44      2.563115  1 O  fyzz               4      1.275442  1 O  py         
 
 Vector   44  Occ=0.000000D+00  E= 1.846393D+01
              MO Center= -2.8D-13, -2.6D-14, -2.8D-14, r^2= 4.6D-01
   Bfn.  Coefficient  Atom+Function         Bfn.  Coefficient  Atom+Function  
  ----- ------------  ---------------      ----- ------------  ---------------
     6     16.465563  1 O  s                 24     -6.280496  1 O  dxx        
    27     -6.284001  1 O  dyy               29     -6.284646  1 O  dzz        
    10      5.540939  1 O  s                  2     -3.629158  1 O  s          
    18     -3.343776  1 O  dxx               21     -3.338745  1 O  dyy        
    23     -3.337819  1 O  dzz               30     -1.616920  1 O  dxx        
 
 Vector   45  Occ=0.000000D+00  E= 6.100641D+01
              MO Center=  1.3D-15,  2.0D-16,  2.2D-16, r^2= 4.3D-02
   Bfn.  Coefficient  Atom+Function         Bfn.  Coefficient  Atom+Function  
  ----- ------------  ---------------      ----- ------------  ---------------
     6      5.295442  1 O  s                  1     -2.203785  1 O  s          
     2      1.606527  1 O  s                 24     -1.556649  1 O  dxx        
    27     -1.556728  1 O  dyy               29     -1.556743  1 O  dzz        
    18     -1.206013  1 O  dxx               21     -1.205747  1 O  dyy        
    23     -1.205698  1 O  dzz               10      0.185532  1 O  s          
 
 
                     DFT Final Beta Molecular Orbital Analysis
                     -----------------------------------------
 
 Vector    1  Occ=1.000000D+00  E=-1.897766D+01
              MO Center=  3.7D-18,  7.3D-18, -8.9D-18, r^2= 1.5D-02
   Bfn.  Coefficient  Atom+Function         Bfn.  Coefficient  Atom+Function  
  ----- ------------  ---------------      ----- ------------  ---------------
     1      0.552782  1 O  s                  2      0.468851  1 O  s          
 
 Vector    2  Occ=1.000000D+00  E=-8.048020D-01
              MO Center=  4.1D-15,  8.2D-16,  8.0D-16, r^2= 4.6D-01
   Bfn.  Coefficient  Atom+Function         Bfn.  Coefficient  Atom+Function  
  ----- ------------  ---------------      ----- ------------  ---------------
    10      0.679249  1 O  s                  6      0.613671  1 O  s          
     2     -0.220796  1 O  s                  1     -0.126556  1 O  s          
    35     -0.069641  1 O  dzz               33     -0.068048  1 O  dyy        
    30     -0.059385  1 O  dxx               14      0.042693  1 O  s          
    29     -0.041279  1 O  dzz               27     -0.039396  1 O  dyy        
 
 Vector    3  Occ=1.000000D+00  E=-2.904489D-01
              MO Center= -5.3D-15,  2.2D-15,  1.2D-16, r^2= 6.4D-01
   Bfn.  Coefficient  Atom+Function         Bfn.  Coefficient  Atom+Function  
  ----- ------------  ---------------      ----- ------------  ---------------
     7      0.389661  1 O  px                11      0.376827  1 O  px         
     3      0.295966  1 O  px                 8     -0.155334  1 O  py         
    12     -0.150217  1 O  py                 4     -0.117982  1 O  py         
    15      0.078319  1 O  px                16     -0.031221  1 O  py         
     9     -0.025434  1 O  pz         
 
 Vector    4  Occ=0.000000D+00  E=-2.155414D-01
              MO Center= -1.3D-15, -2.2D-15, -4.8D-15, r^2= 7.5D-01
   Bfn.  Coefficient  Atom+Function         Bfn.  Coefficient  Atom+Function  
  ----- ------------  ---------------      ----- ------------  ---------------
    13      0.361342  1 O  pz                 9      0.324768  1 O  pz         
     5      0.259805  1 O  pz                12      0.190871  1 O  py         
     8      0.171555  1 O  py                 4      0.137236  1 O  py         
    17      0.115749  1 O  pz                11      0.099673  1 O  px         
     7      0.089585  1 O  px                 3      0.071665  1 O  px         
 
 Vector    5  Occ=0.000000D+00  E=-2.155408D-01
              MO Center=  3.8D-16, -2.5D-16,  5.7D-16, r^2= 7.5D-01
   Bfn.  Coefficient  Atom+Function         Bfn.  Coefficient  Atom+Function  
  ----- ------------  ---------------      ----- ------------  ---------------
    12      0.341072  1 O  py                 8      0.306561  1 O  py         
     4      0.245227  1 O  py                13     -0.213818  1 O  pz         
     9     -0.192181  1 O  pz                 5     -0.153734  1 O  pz         
    11      0.122008  1 O  px                 7      0.109663  1 O  px         
    16      0.109255  1 O  py                 3      0.087722  1 O  px         
 
 Vector    6  Occ=0.000000D+00  E= 8.278971D-02
              MO Center=  3.0D-15,  1.3D-14,  6.9D-15, r^2= 4.3D+00
   Bfn.  Coefficient  Atom+Function         Bfn.  Coefficient  Atom+Function  
  ----- ------------  ---------------      ----- ------------  ---------------
    14      1.794087  1 O  s                  6     -0.350160  1 O  s          
    33     -0.321150  1 O  dyy               35     -0.321452  1 O  dzz        
    30     -0.319502  1 O  dxx               10     -0.243698  1 O  s          
    24     -0.073228  1 O  dxx               27     -0.069839  1 O  dyy        
    29     -0.069215  1 O  dzz                1      0.042648  1 O  s          
 
 Vector    7  Occ=0.000000D+00  E= 1.487080D-01
              MO Center=  4.6D-15, -1.4D-15,  4.7D-16, r^2= 4.9D+00
   Bfn.  Coefficient  Atom+Function         Bfn.  Coefficient  Atom+Function  
  ----- ------------  ---------------      ----- ------------  ---------------
    15      1.140279  1 O  px                16     -0.454551  1 O  py         
    11     -0.436140  1 O  px                12      0.173859  1 O  py         
     7     -0.136289  1 O  px                 3     -0.122889  1 O  px         
    17     -0.074429  1 O  pz                 8      0.054329  1 O  py         
     4      0.048987  1 O  py                13      0.028468  1 O  pz         
 
 Vector    8  Occ=0.000000D+00  E= 1.659150D-01
              MO Center= -1.4D-15,  4.4D-16, -2.5D-15, r^2= 4.9D+00
   Bfn.  Coefficient  Atom+Function         Bfn.  Coefficient  Atom+Function  
  ----- ------------  ---------------      ----- ------------  ---------------
    17      1.229352  1 O  pz                13     -0.515006  1 O  pz         
     9     -0.155107  1 O  pz                 5     -0.144464  1 O  pz         
    15      0.102136  1 O  px                16      0.054920  1 O  py         
    11     -0.042787  1 O  px         
 
 Vector    9  Occ=0.000000D+00  E= 1.659172D-01
              MO Center= -3.8D-15, -1.1D-14,  3.2D-16, r^2= 4.9D+00
   Bfn.  Coefficient  Atom+Function         Bfn.  Coefficient  Atom+Function  
  ----- ------------  ---------------      ----- ------------  ---------------
    16      1.146050  1 O  py                12     -0.480108  1 O  py         
    15      0.451063  1 O  px                11     -0.188961  1 O  px         
     8     -0.144601  1 O  py                 4     -0.134673  1 O  py         
    17     -0.088673  1 O  pz                 7     -0.056912  1 O  px         
     3     -0.053005  1 O  px                13      0.037148  1 O  pz         
 
 Vector   10  Occ=0.000000D+00  E= 7.463605D-01
              MO Center=  1.7D-15, -4.1D-17, -1.2D-15, r^2= 2.8D+00
   Bfn.  Coefficient  Atom+Function         Bfn.  Coefficient  Atom+Function  
  ----- ------------  ---------------      ----- ------------  ---------------
    10      2.425300  1 O  s                 30     -1.928720  1 O  dxx        
    14      1.631661  1 O  s                 33     -1.535303  1 O  dyy        
    35     -1.462946  1 O  dzz               31      0.372936  1 O  dxy        
    27     -0.354075  1 O  dyy               29     -0.355539  1 O  dzz        
    24     -0.346118  1 O  dxx                2     -0.241314  1 O  s          
 
 Vector   11  Occ=0.000000D+00  E= 7.477490D-01
              MO Center=  1.3D-15, -4.0D-16,  4.8D-16, r^2= 1.5D+00
   Bfn.  Coefficient  Atom+Function         Bfn.  Coefficient  Atom+Function  
  ----- ------------  ---------------      ----- ------------  ---------------
    32      1.565967  1 O  dxz               34     -0.643927  1 O  dyz        
    30      0.192378  1 O  dxx               31      0.147707  1 O  dxy        
    35     -0.103099  1 O  dzz               33     -0.089539  1 O  dyy        
    20      0.026108  1 O  dxz        
 
 Vector   12  Occ=0.000000D+00  E= 7.477493D-01
              MO Center= -1.3D-15,  4.8D-15, -5.6D-16, r^2= 1.5D+00
   Bfn.  Coefficient  Atom+Function         Bfn.  Coefficient  Atom+Function  
  ----- ------------  ---------------      ----- ------------  ---------------
    31      1.248163  1 O  dxy               33     -0.588014  1 O  dyy        
    30      0.569904  1 O  dxx               32     -0.316410  1 O  dxz        
 
 Vector   13  Occ=0.000000D+00  E= 7.498269D-01
              MO Center= -2.8D-16,  7.5D-16,  3.8D-16, r^2= 1.7D+00
   Bfn.  Coefficient  Atom+Function         Bfn.  Coefficient  Atom+Function  
  ----- ------------  ---------------      ----- ------------  ---------------
    35      1.107586  1 O  dzz               10     -0.971206  1 O  s          
    31      0.958971  1 O  dxy               33      0.921638  1 O  dyy        
    14     -0.632412  1 O  s                 32      0.157020  1 O  dxz        
    24      0.144851  1 O  dxx               27      0.142207  1 O  dyy        
    29      0.141721  1 O  dzz                2      0.092536  1 O  s          
 
 Vector   14  Occ=0.000000D+00  E= 7.619571D-01
              MO Center= -2.1D-16, -3.4D-16, -1.1D-15, r^2= 1.5D+00
   Bfn.  Coefficient  Atom+Function         Bfn.  Coefficient  Atom+Function  
  ----- ------------  ---------------      ----- ------------  ---------------
    35      0.862426  1 O  dzz               33     -0.748847  1 O  dyy        
    31     -0.592466  1 O  dxy               32      0.140333  1 O  dxz        
    30     -0.113505  1 O  dxx               34      0.069643  1 O  dyz        
 
 Vector   15  Occ=0.000000D+00  E= 7.619573D-01
              MO Center= -4.6D-16, -9.7D-16, -1.0D-15, r^2= 1.5D+00
   Bfn.  Coefficient  Atom+Function         Bfn.  Coefficient  Atom+Function  
  ----- ------------  ---------------      ----- ------------  ---------------
    34      1.607717  1 O  dyz               32      0.633318  1 O  dxz        
    31      0.116380  1 O  dxy               35     -0.058233  1 O  dzz        
    30      0.043847  1 O  dxx               22      0.026054  1 O  dyz        
 
 Vector   16  Occ=0.000000D+00  E= 9.639438D-01
              MO Center= -2.7D-15, -4.0D-15, -7.3D-17, r^2= 2.1D+00
   Bfn.  Coefficient  Atom+Function         Bfn.  Coefficient  Atom+Function  
  ----- ------------  ---------------      ----- ------------  ---------------
    11      1.523459  1 O  px                15     -0.749354  1 O  px         
     7     -0.621302  1 O  px                12     -0.607298  1 O  py         
    16      0.298716  1 O  py                 3     -0.278704  1 O  px         
     8      0.247671  1 O  py                 4      0.111100  1 O  py         
    13     -0.099439  1 O  pz                36     -0.084182  1 O  fxxx       
 
 Vector   17  Occ=0.000000D+00  E= 1.002143D+00
              MO Center= -6.8D-16,  1.1D-15,  2.8D-16, r^2= 2.0D+00
   Bfn.  Coefficient  Atom+Function         Bfn.  Coefficient  Atom+Function  
  ----- ------------  ---------------      ----- ------------  ---------------
    13      1.499927  1 O  pz                17     -0.731807  1 O  pz         
     9     -0.625587  1 O  pz                12      0.548337  1 O  py         
    11      0.316487  1 O  px                 5     -0.283475  1 O  pz         
    16     -0.267531  1 O  py                 8     -0.228700  1 O  py         
    15     -0.154412  1 O  px                 7     -0.131999  1 O  px         
 
 Vector   18  Occ=0.000000D+00  E= 1.002144D+00
              MO Center=  2.3D-15, -3.5D-15,  8.8D-16, r^2= 2.0D+00
   Bfn.  Coefficient  Atom+Function         Bfn.  Coefficient  Atom+Function  
  ----- ------------  ---------------      ----- ------------  ---------------
    12      1.409905  1 O  py                16     -0.687886  1 O  py         
    13     -0.625403  1 O  pz                 8     -0.588052  1 O  py         
    11      0.521211  1 O  px                17      0.305131  1 O  pz         
     4     -0.266457  1 O  py                 9      0.260846  1 O  pz         
    15     -0.254297  1 O  px                 7     -0.217390  1 O  px         
 
 Vector   19  Occ=0.000000D+00  E= 2.496354D+00
              MO Center=  3.2D-16,  1.5D-16, -2.4D-17, r^2= 1.6D+00
   Bfn.  Coefficient  Atom+Function         Bfn.  Coefficient  Atom+Function  
  ----- ------------  ---------------      ----- ------------  ---------------
    10     10.303448  1 O  s                  6     -3.420297  1 O  s          
    30     -3.303475  1 O  dxx               33     -3.312304  1 O  dyy        
    35     -3.313930  1 O  dzz               24     -1.029364  1 O  dxx        
    14      1.015164  1 O  s                 27     -1.003785  1 O  dyy        
    29     -0.999077  1 O  dzz               18     -0.236056  1 O  dxx        
 
 Vector   20  Occ=0.000000D+00  E= 3.313457D+00
              MO Center= -2.4D-17,  7.6D-16,  3.5D-16, r^2= 5.6D-01
   Bfn.  Coefficient  Atom+Function         Bfn.  Coefficient  Atom+Function  
  ----- ------------  ---------------      ----- ------------  ---------------
    26      1.689455  1 O  dxz               32     -0.781212  1 O  dxz        
    28     -0.713034  1 O  dyz               25      0.359987  1 O  dxy        
    34      0.329709  1 O  dyz               24      0.303463  1 O  dxx        
    27     -0.191757  1 O  dyy               31     -0.166460  1 O  dxy        
    30     -0.140335  1 O  dxx               29     -0.111718  1 O  dzz        
 
 Vector   21  Occ=0.000000D+00  E= 3.313460D+00
              MO Center=  2.3D-16,  4.1D-16, -1.5D-16, r^2= 5.6D-01
   Bfn.  Coefficient  Atom+Function         Bfn.  Coefficient  Atom+Function  
  ----- ------------  ---------------      ----- ------------  ---------------
    25      1.363093  1 O  dxy               27     -0.639082  1 O  dyy        
    31     -0.630300  1 O  dxy               24      0.602725  1 O  dxx        
    26     -0.597478  1 O  dxz               33      0.295514  1 O  dyy        
    30     -0.278703  1 O  dxx               32      0.276276  1 O  dxz        
    28      0.117900  1 O  dyz               34     -0.054517  1 O  dyz        
 
 Vector   22  Occ=0.000000D+00  E= 3.321733D+00
              MO Center=  3.0D-16,  7.2D-17, -5.7D-17, r^2= 5.6D-01
   Bfn.  Coefficient  Atom+Function         Bfn.  Coefficient  Atom+Function  
  ----- ------------  ---------------      ----- ------------  ---------------
    25      1.152107  1 O  dxy               24     -0.854231  1 O  dxx        
    29      0.582954  1 O  dzz               31     -0.531590  1 O  dxy        
    30      0.485144  1 O  dxx               27      0.361163  1 O  dyy        
    10     -0.255691  1 O  s                 26      0.188197  1 O  dxz        
    35     -0.177985  1 O  dzz                6      0.095706  1 O  s          
 
 Vector   23  Occ=0.000000D+00  E= 3.325643D+00
              MO Center=  2.3D-17,  9.9D-16, -8.6D-17, r^2= 5.6D-01
   Bfn.  Coefficient  Atom+Function         Bfn.  Coefficient  Atom+Function  
  ----- ------------  ---------------      ----- ------------  ---------------
    29      0.913135  1 O  dzz               27     -0.776233  1 O  dyy        
    25     -0.660641  1 O  dxy               28     -0.650050  1 O  dyz        
    35     -0.419083  1 O  dzz               33      0.356359  1 O  dyy        
    31      0.303241  1 O  dxy               34      0.298381  1 O  dyz        
    26     -0.139867  1 O  dxz               24     -0.136844  1 O  dxx        
 
 Vector   24  Occ=0.000000D+00  E= 3.325648D+00
              MO Center=  4.0D-16,  2.7D-16,  7.5D-17, r^2= 5.6D-01
   Bfn.  Coefficient  Atom+Function         Bfn.  Coefficient  Atom+Function  
  ----- ------------  ---------------      ----- ------------  ---------------
    28      1.684061  1 O  dyz               34     -0.773005  1 O  dyz        
    26      0.714526  1 O  dxz               29      0.327747  1 O  dzz        
    32     -0.327978  1 O  dxz               27     -0.321043  1 O  dyy        
    35     -0.150347  1 O  dzz               33      0.147457  1 O  dyy        
    25     -0.145145  1 O  dxy               31      0.066621  1 O  dxy        
 
 Vector   25  Occ=0.000000D+00  E= 4.608957D+00
              MO Center=  1.1D-15, -2.0D-16,  5.7D-16, r^2= 5.4D-01
   Bfn.  Coefficient  Atom+Function         Bfn.  Coefficient  Atom+Function  
  ----- ------------  ---------------      ----- ------------  ---------------
    45      1.021232  1 O  fzzz              43      1.009999  1 O  fyyz       
    38      0.957640  1 O  fxxz               5     -0.708730  1 O  pz         
    13     -0.687425  1 O  pz                 9     -0.434377  1 O  pz         
    42      0.324821  1 O  fyyy              44      0.324680  1 O  fyzz       
    37      0.317231  1 O  fxxy              17      0.263440  1 O  pz         
 
 Vector   26  Occ=0.000000D+00  E= 4.608973D+00
              MO Center= -5.6D-17, -4.8D-16,  3.1D-16, r^2= 5.4D-01
   Bfn.  Coefficient  Atom+Function         Bfn.  Coefficient  Atom+Function  
  ----- ------------  ---------------      ----- ------------  ---------------
    44      0.960086  1 O  fyzz              42      0.949303  1 O  fyyy       
    37      0.915876  1 O  fxxy               4     -0.665406  1 O  py         
    12     -0.645405  1 O  py                 8     -0.407852  1 O  py         
    39      0.403192  1 O  fxyy              43     -0.376677  1 O  fyyz       
    45     -0.377220  1 O  fzzz              41      0.354571  1 O  fxzz       
 
 Vector   27  Occ=0.000000D+00  E= 4.623738D+00
              MO Center= -7.8D-16, -4.8D-16, -8.3D-16, r^2= 5.5D-01
   Bfn.  Coefficient  Atom+Function         Bfn.  Coefficient  Atom+Function  
  ----- ------------  ---------------      ----- ------------  ---------------
    41      1.093954  1 O  fxzz              39      1.018890  1 O  fxyy       
    36      0.934231  1 O  fxxx               3     -0.701952  1 O  px         
    11     -0.685355  1 O  px                44     -0.436220  1 O  fyzz       
    42     -0.426809  1 O  fyyy               7     -0.403041  1 O  px         
     4      0.279919  1 O  py                12      0.273300  1 O  py         
 
 Vector   28  Occ=0.000000D+00  E= 5.003516D+00
              MO Center= -1.9D-16, -3.7D-16, -5.7D-16, r^2= 4.5D-01
   Bfn.  Coefficient  Atom+Function         Bfn.  Coefficient  Atom+Function  
  ----- ------------  ---------------      ----- ------------  ---------------
    43      1.815501  1 O  fyyz              40      1.573182  1 O  fxyz       
    44      0.960888  1 O  fyzz              45     -0.715053  1 O  fzzz       
    38      0.329651  1 O  fxxz              42     -0.304612  1 O  fyyy       
    39     -0.246376  1 O  fxyy              41      0.243602  1 O  fxzz       
    37     -0.047061  1 O  fxxy       
 
 Vector   29  Occ=0.000000D+00  E= 5.003517D+00
              MO Center= -3.0D-16, -7.6D-16, -4.7D-17, r^2= 4.5D-01
   Bfn.  Coefficient  Atom+Function         Bfn.  Coefficient  Atom+Function  
  ----- ------------  ---------------      ----- ------------  ---------------
    44      1.974330  1 O  fyzz              43     -0.939075  1 O  fyyz       
    41      0.850294  1 O  fxzz              39     -0.726245  1 O  fxyy       
    42     -0.556387  1 O  fyyy              40     -0.490264  1 O  fxyz       
    45      0.327017  1 O  fzzz              37     -0.305183  1 O  fxxy       
    38     -0.041975  1 O  fxxz              36     -0.041351  1 O  fxxx       
 
 Vector   30  Occ=0.000000D+00  E= 5.005131D+00
              MO Center= -4.7D-16, -4.7D-16,  1.4D-16, r^2= 4.5D-01
   Bfn.  Coefficient  Atom+Function         Bfn.  Coefficient  Atom+Function  
  ----- ------------  ---------------      ----- ------------  ---------------
    40      2.600002  1 O  fxyz              38      1.318435  1 O  fxxz       
    43     -1.200676  1 O  fyyz              41      0.516384  1 O  fxzz       
    39     -0.484518  1 O  fxyy              44     -0.443405  1 O  fyzz       
    37     -0.264623  1 O  fxxy              42      0.236007  1 O  fyyy       
    45     -0.039257  1 O  fzzz       
 
 Vector   31  Occ=0.000000D+00  E= 5.005134D+00
              MO Center=  3.7D-16, -8.4D-16,  4.6D-16, r^2= 4.5D-01
   Bfn.  Coefficient  Atom+Function         Bfn.  Coefficient  Atom+Function  
  ----- ------------  ---------------      ----- ------------  ---------------
    41      1.701566  1 O  fxzz              37     -1.120168  1 O  fxxy       
    40     -1.015311  1 O  fxyz              39     -0.946545  1 O  fxyy       
    44     -0.592864  1 O  fyzz              42      0.571006  1 O  fyyy       
    43      0.569871  1 O  fyyz              36     -0.251672  1 O  fxxx       
    38     -0.240937  1 O  fxxz              45     -0.109648  1 O  fzzz       
 
 Vector   32  Occ=0.000000D+00  E= 5.034866D+00
              MO Center= -3.0D-16,  1.1D-16, -7.0D-18, r^2= 4.5D-01
   Bfn.  Coefficient  Atom+Function         Bfn.  Coefficient  Atom+Function  
  ----- ------------  ---------------      ----- ------------  ---------------
    39      1.893375  1 O  fxyy              37     -1.113118  1 O  fxxy       
    38      0.833845  1 O  fxxz              36     -0.669783  1 O  fxxx       
    44      0.548200  1 O  fyzz              40     -0.481897  1 O  fxyz       
    45     -0.200590  1 O  fzzz              43     -0.177473  1 O  fyyz       
    42      0.142949  1 O  fyyy              41      0.065317  1 O  fxzz       
 
 Vector   33  Occ=0.000000D+00  E= 5.034871D+00
              MO Center= -4.5D-16, -3.5D-16,  6.4D-17, r^2= 4.5D-01
   Bfn.  Coefficient  Atom+Function         Bfn.  Coefficient  Atom+Function  
  ----- ------------  ---------------      ----- ------------  ---------------
    40      2.040138  1 O  fxyz              38     -1.852168  1 O  fxxz       
    39      0.672795  1 O  fxyy              45      0.532351  1 O  fzzz       
    41      0.424818  1 O  fxzz              36     -0.375297  1 O  fxxx       
    37     -0.245107  1 O  fxxy              43      0.110160  1 O  fyyz       
    42      0.050092  1 O  fyyy              44      0.047200  1 O  fyzz       
 
 Vector   34  Occ=0.000000D+00  E= 5.038356D+00
              MO Center= -6.5D-16,  1.2D-16,  9.2D-17, r^2= 4.5D-01
   Bfn.  Coefficient  Atom+Function         Bfn.  Coefficient  Atom+Function  
  ----- ------------  ---------------      ----- ------------  ---------------
    37      1.853340  1 O  fxxy              41      1.284091  1 O  fxzz       
    36     -0.677100  1 O  fxxx              44     -0.511665  1 O  fyzz       
    42     -0.396154  1 O  fyyy              39      0.362797  1 O  fxyy       
    40     -0.309344  1 O  fxyz              38      0.302660  1 O  fxxz       
    45     -0.084689  1 O  fzzz               3      0.059377  1 O  px         
 
 Vector   35  Occ=0.000000D+00  E= 6.880536D+00
              MO Center=  4.3D-16,  2.1D-16, -3.8D-16, r^2= 7.6D-01
   Bfn.  Coefficient  Atom+Function         Bfn.  Coefficient  Atom+Function  
  ----- ------------  ---------------      ----- ------------  ---------------
    10      9.246454  1 O  s                  6      4.358997  1 O  s          
    24     -3.741836  1 O  dxx               27     -3.735088  1 O  dyy        
    29     -3.733847  1 O  dzz               30     -2.627800  1 O  dxx        
    33     -2.629699  1 O  dyy               35     -2.630048  1 O  dzz        
     2     -1.595169  1 O  s                 18     -0.838333  1 O  dxx        
 
 Vector   36  Occ=0.000000D+00  E= 1.427462D+01
              MO Center= -6.0D-18, -1.0D-17,  3.9D-17, r^2= 1.6D-01
   Bfn.  Coefficient  Atom+Function         Bfn.  Coefficient  Atom+Function  
  ----- ------------  ---------------      ----- ------------  ---------------
    22      1.252359  1 O  dyz               23      0.704690  1 O  dzz        
    28     -0.675751  1 O  dyz               21     -0.638747  1 O  dyy        
    20      0.591319  1 O  dxz               19     -0.427283  1 O  dxy        
    29     -0.380199  1 O  dzz               27      0.344698  1 O  dyy        
    26     -0.319065  1 O  dxz               25      0.230555  1 O  dxy        
 
 Vector   37  Occ=0.000000D+00  E= 1.427463D+01
              MO Center= -1.7D-16, -2.6D-16, -7.9D-17, r^2= 1.6D-01
   Bfn.  Coefficient  Atom+Function         Bfn.  Coefficient  Atom+Function  
  ----- ------------  ---------------      ----- ------------  ---------------
    22      1.342272  1 O  dyz               28     -0.724267  1 O  dyz        
    23     -0.689905  1 O  dzz               21      0.567652  1 O  dyy        
    19      0.540324  1 O  dxy               20      0.445595  1 O  dxz        
    29      0.372264  1 O  dzz               27     -0.306293  1 O  dyy        
    25     -0.291551  1 O  dxy               26     -0.240437  1 O  dxz        
 
 Vector   38  Occ=0.000000D+00  E= 1.430532D+01
              MO Center= -1.2D-16,  4.4D-17,  2.7D-17, r^2= 1.7D-01
   Bfn.  Coefficient  Atom+Function         Bfn.  Coefficient  Atom+Function  
  ----- ------------  ---------------      ----- ------------  ---------------
    20      1.736243  1 O  dxz               26     -0.942547  1 O  dxz        
    22     -0.729516  1 O  dyz               28      0.396028  1 O  dyz        
    19      0.330871  1 O  dxy               18      0.293272  1 O  dxx        
    32      0.284687  1 O  dxz               21     -0.178771  1 O  dyy        
    25     -0.179618  1 O  dxy               24     -0.159227  1 O  dxx        
 
 Vector   39  Occ=0.000000D+00  E= 1.430533D+01
              MO Center= -2.6D-16,  4.9D-16, -6.4D-17, r^2= 1.7D-01
   Bfn.  Coefficient  Atom+Function         Bfn.  Coefficient  Atom+Function  
  ----- ------------  ---------------      ----- ------------  ---------------
    19      1.397804  1 O  dxy               25     -0.758819  1 O  dxy        
    21     -0.655871  1 O  dyy               18      0.621712  1 O  dxx        
    20     -0.564389  1 O  dxz               27      0.356071  1 O  dyy        
    24     -0.337483  1 O  dxx               26      0.306387  1 O  dxz        
    31      0.229193  1 O  dxy               33     -0.107537  1 O  dyy        
 
 Vector   40  Occ=0.000000D+00  E= 1.434133D+01
              MO Center=  5.5D-17, -1.1D-17, -2.8D-17, r^2= 1.7D-01
   Bfn.  Coefficient  Atom+Function         Bfn.  Coefficient  Atom+Function  
  ----- ------------  ---------------      ----- ------------  ---------------
    19      1.174754  1 O  dxy               18     -0.840781  1 O  dxx        
    25     -0.640315  1 O  dxy               23      0.626445  1 O  dzz        
    24      0.614463  1 O  dxx               21      0.398683  1 O  dyy        
     6     -0.296239  1 O  s                 20      0.192592  1 O  dxz        
    31      0.193256  1 O  dxy               29     -0.185266  1 O  dzz        
 
 Vector   41  Occ=0.000000D+00  E= 1.631349D+01
              MO Center=  2.3D-15,  5.5D-15, -2.2D-15, r^2= 3.2D-01
   Bfn.  Coefficient  Atom+Function         Bfn.  Coefficient  Atom+Function  
  ----- ------------  ---------------      ----- ------------  ---------------
     8     11.249764  1 O  py                37     -6.080869  1 O  fxxy       
    42     -6.081332  1 O  fyyy              44     -6.081481  1 O  fyzz       
     9     -4.516432  1 O  pz                 7      4.189355  1 O  px         
     4     -3.025564  1 O  py                38      2.441138  1 O  fxxz       
    43      2.441511  1 O  fyyz              45      2.441520  1 O  fzzz       
 
 Vector   42  Occ=0.000000D+00  E= 1.631350D+01
              MO Center=  9.3D-17, -2.4D-16, -5.6D-16, r^2= 3.2D-01
   Bfn.  Coefficient  Atom+Function         Bfn.  Coefficient  Atom+Function  
  ----- ------------  ---------------      ----- ------------  ---------------
     9     11.979312  1 O  pz                38     -6.474968  1 O  fxxz       
    43     -6.475692  1 O  fyyz              45     -6.475848  1 O  fzzz       
     8      3.933817  1 O  py                 5     -3.221770  1 O  pz         
     7      2.351015  1 O  px                37     -2.126411  1 O  fxxy       
    42     -2.126520  1 O  fyyy              44     -2.126518  1 O  fyzz       
 
 Vector   43  Occ=0.000000D+00  E= 1.635786D+01
              MO Center=  4.5D-15, -2.3D-15, -2.8D-16, r^2= 3.2D-01
   Bfn.  Coefficient  Atom+Function         Bfn.  Coefficient  Atom+Function  
  ----- ------------  ---------------      ----- ------------  ---------------
     7     11.892600  1 O  px                36     -6.430708  1 O  fxxx       
    39     -6.430202  1 O  fxyy              41     -6.429754  1 O  fxzz       
     8     -4.740767  1 O  py                 3     -3.197500  1 O  px         
    37      2.564254  1 O  fxxy              42      2.563160  1 O  fyyy       
    44      2.563104  1 O  fyzz               4      1.274625  1 O  py         
 
 Vector   44  Occ=0.000000D+00  E= 1.868854D+01
              MO Center= -6.8D-15, -3.8D-15,  3.3D-15, r^2= 4.6D-01
   Bfn.  Coefficient  Atom+Function         Bfn.  Coefficient  Atom+Function  
  ----- ------------  ---------------      ----- ------------  ---------------
     6     16.412564  1 O  s                 24     -6.238472  1 O  dxx        
    27     -6.253268  1 O  dyy               29     -6.255992  1 O  dzz        
    10      5.475732  1 O  s                  2     -3.618867  1 O  s          
    18     -3.346118  1 O  dxx               21     -3.325097  1 O  dyy        
    23     -3.321226  1 O  dzz               30     -1.601190  1 O  dxx        
 
 Vector   45  Occ=0.000000D+00  E= 6.114161D+01
              MO Center=  2.2D-17,  2.7D-18, -1.2D-17, r^2= 4.4D-02
   Bfn.  Coefficient  Atom+Function         Bfn.  Coefficient  Atom+Function  
  ----- ------------  ---------------      ----- ------------  ---------------
     6      5.316173  1 O  s                  1     -2.201994  1 O  s          
     2      1.602335  1 O  s                 24     -1.562429  1 O  dxx        
    27     -1.564044  1 O  dyy               29     -1.564341  1 O  dzz        
    18     -1.212092  1 O  dxx               21     -1.210388  1 O  dyy        
    23     -1.210076  1 O  dzz               10      0.189571  1 O  s          
 

   alpha - beta orbital overlaps 
   ----------------------------- 


   alpha      1      2      3      4      5      6      7      8      9     10
    beta      1      2      4      5      3      6      9      8      7     15
 overlap   1.000  0.999  0.963  0.963  1.000  0.999  0.986  0.986  1.000  0.957


   alpha     11     12     13     14     15     16     17     18     19     20
    beta     14     10     11     12     13     17     18     16     19     24
 overlap   0.957  0.787  0.862  0.862  0.788  0.993  0.993  1.000  0.999  0.990


   alpha     21     22     23     24     25     26     27     28     29     30
    beta     23     20     21     22     25     26     27     29     28     31
 overlap   0.990  0.994  0.994  0.999  0.942  0.942  1.000  0.953  0.953  0.986


   alpha     31     32     33     34     35     36     37     38     39     40
    beta     30     33     32     34     35     37     36     38     39     40
 overlap   0.986  1.000  1.000  1.000  1.000  0.940  0.940  0.998  0.998  1.000


   alpha     41     42     43     44     45
    beta     42     41     43     44     45
 overlap   0.997  0.997  1.000  1.000  1.000

     --------------------------
     Expectation value of S2:  
     --------------------------
      <S2> =      2.0035 (Exact =     2.0000)
 

 Parallel integral file used      16 records with       0 large values


 Task  times  cpu:        1.0s     wall:        1.5s
 
 
                                NWChem Input Module
                                -------------------
 
 
 Summary of allocated global arrays
-----------------------------------
  No active global arrays



                         GA Statistics for process    0
                         ------------------------------

       create   destroy   get      put      acc     scatter   gather  read&inc
calls:  221      221      813      501      154        0        0       30     
number of processes/call 1.62e+00 1.45e+00 3.84e+00 0.00e+00 0.00e+00
bytes total:             7.38e+06 2.80e+06 2.49e+06 0.00e+00 0.00e+00 2.40e+02
bytes remote:            5.01e+05 8.93e+04 5.71e+05 0.00e+00 0.00e+00 0.00e+00
Max memory consumed for GA by this process: 1053000 bytes
 
MA_summarize_allocated_blocks: starting scan ...
MA_summarize_allocated_blocks: scan completed: 0 heap blocks, 0 stack blocks
MA usage statistics:

	allocation statistics:
					      heap	     stack
					      ----	     -----
	current number of blocks	         0	         0
	maximum number of blocks	        21	        53
	current total bytes		         0	         0
	maximum total bytes		   1787128	  22512520
	maximum total K-bytes		      1788	     22513
	maximum total M-bytes		         2	        23
 
 
                                     CITATION
                                     --------
                Please cite the following reference when publishing
                           results obtained with NWChem:
 
                 M. Valiev, E.J. Bylaska, N. Govind, K. Kowalski,
              T.P. Straatsma, H.J.J. van Dam, D. Wang, J. Nieplocha,
                        E. Apra, T.L. Windus, W.A. de Jong
                 "NWChem: a comprehensive and scalable open-source
                  solution for large scale molecular simulations"
                      Comput. Phys. Commun. 181, 1477 (2010)
                           doi:10.1016/j.cpc.2010.04.018
 
                                      AUTHORS
                                      -------
          E. Apra, E. J. Bylaska, W. A. de Jong, N. Govind, K. Kowalski,
       T. P. Straatsma, M. Valiev, H. J. J. van Dam, D. Wang, T. L. Windus,
        J. Hammond, J. Autschbach, K. Bhaskaran-Nair, J. Brabec, K. Lopata,
    S. A. Fischer, S. Krishnamoorthy, M. Jacquelin, W. Ma, M. Klemm, O. Villa,
      Y. Chen, V. Anisimov, F. Aquino, S. Hirata, M. T. Hackler, V. Konjkov,
            D. Mejia-Rodriguez, T. Risthaus, M. Malagoli, A. Marenich,
   A. Otero-de-la-Roza, J. Mullin, P. Nichols, R. Peverati, J. Pittner, Y. Zhao,
        P.-D. Fan, A. Fonari, M. J. Williamson, R. J. Harrison, J. R. Rehr,
      M. Dupuis, D. Silverstein, D. M. A. Smith, J. Nieplocha, V. Tipparaju,
    M. Krishnan, B. E. Van Kuiken, A. Vazquez-Mayagoitia, L. Jensen, M. Swart,
      Q. Wu, T. Van Voorhis, A. A. Auer, M. Nooijen, L. D. Crosby, E. Brown,
      G. Cisneros, G. I. Fann, H. Fruchtl, J. Garza, K. Hirao, R. A. Kendall,
      J. A. Nichols, K. Tsemekhman, K. Wolinski, J. Anchell, D. E. Bernholdt,
      P. Borowski, T. Clark, D. Clerc, H. Dachsel, M. J. O. Deegan, K. Dyall,
    D. Elwood, E. Glendening, M. Gutowski, A. C. Hess, J. Jaffe, B. G. Johnson,
     J. Ju, R. Kobayashi, R. Kutteh, Z. Lin, R. Littlefield, X. Long, B. Meng,
      T. Nakajima, S. Niu, L. Pollack, M. Rosing, K. Glaesemann, G. Sandrone,
      M. Stave, H. Taylor, G. Thomas, J. H. van Lenthe, A. T. Wong, Z. Zhang.

 Total times  cpu:        1.0s     wall:        1.7s
