  NWChem w/ OpenMP: maximum threads =  1
                                         
                                         
 
 
              Northwest Computational Chemistry Package (NWChem) 6.8
              ------------------------------------------------------
 
 
                    Environmental Molecular Sciences Laboratory
                       Pacific Northwest National Laboratory
                                Richland, WA 99352
 
                              Copyright (c) 1994-2018
                       Pacific Northwest National Laboratory
                            Battelle Memorial Institute
 
             NWChem is an open-source computational chemistry package
                        distributed under the terms of the
                      Educational Community License (ECL) 2.0
             A copy of the license is included with this distribution
                              in the LICENSE.TXT file
 
                                  ACKNOWLEDGMENT
                                  --------------

            This software and its documentation were developed at the
            EMSL at Pacific Northwest National Laboratory, a multiprogram
            national laboratory, operated for the U.S. Department of Energy
            by Battelle under Contract Number DE-AC05-76RL01830. Support
            for this work was provided by the Department of Energy Office
            of Biological and Environmental Research, Office of Basic
            Energy Sciences, and the Office of Advanced Scientific Computing.


           Job information
           ---------------

    hostname        = r8n4.niserhpc.org
    program         = /home/rabeet/nwchem-6.8/bin/LINUX64/nwchem
    date            = Mon Jul  1 11:14:21 2019

    compiled        = Fri_Jun_28_18:24:12_2019
    source          = /home/rabeet/nwchem-6.8
    nwchem branch   = Development
    nwchem revision = N/A
    ga revision     = 5.6.5
    use scalapack   = T
    input           = nwchem.nw
    prefix          = S.
    data base       = ./S.db
    status          = startup
    nproc           =       16
    time left       =     -1s



           Memory information
           ------------------

    heap     =   13107196 doubles =    100.0 Mbytes
    stack    =   13107201 doubles =    100.0 Mbytes
    global   =   26214400 doubles =    200.0 Mbytes (distinct from heap & stack)
    total    =   52428797 doubles =    400.0 Mbytes
    verify   = yes
    hardfail = no 


           Directory information
           ---------------------
 
  0 permanent = .
  0 scratch   = .
 
 
 
 
                                NWChem Input Module
                                -------------------
 
 

 Scaling coordinates for geometry "geometry" by  1.889725989
 (inverse scale =  0.529177249)

 
 
                             Geometry "geometry" -> ""
                             -------------------------
 
 Output coordinates in angstroms (scale by  1.889725989 to convert to a.u.)
 
  No.       Tag          Charge          X              Y              Z
 ---- ---------------- ---------- -------------- -------------- --------------
    1 S                   16.0000     0.00000000     0.00000000     0.00000000
 
      Atomic Mass 
      ----------- 
 
      S                 31.972070
 

 Effective nuclear repulsion energy (a.u.)       0.0000000000

            Nuclear Dipole moment (a.u.) 
            ----------------------------
        X                 Y               Z
 ---------------- ---------------- ----------------
     0.0000000000     0.0000000000     0.0000000000
 
 
            XYZ format geometry
            -------------------
     1
 geometry
 S                     0.00000000     0.00000000     0.00000000
 


 Summary of "ao basis" -> "" (cartesian)
 ------------------------------------------------------------------------------
       Tag                 Description            Shells   Functions and Types
 ---------------- ------------------------------  ------  ---------------------
 *                     6-311++G(3df,3pd)              on all atoms 


 
                                 NWChem DFT Module
                                 -----------------
 
 
                      Basis "ao basis" -> "ao basis" (cartesian)
                      -----
  S (Sulphur)
  -----------
            Exponent  Coefficients 
       -------------- ---------------------------------------------------------
  1 S  9.34134000E+04  0.000743
  1 S  1.39617000E+04  0.005793
  1 S  3.16991000E+03  0.029954
  1 S  9.02456000E+02  0.119028
  1 S  2.97158000E+02  0.368432
  1 S  1.08702000E+02  0.577299
 
  2 S  1.08702000E+02  0.143186
  2 S  4.31553000E+01  0.624465
  2 S  1.81079000E+01  0.283366
 
  3 S  5.56009000E+00  1.000000
 
  4 S  2.13183000E+00  1.000000
 
  5 S  4.20403000E-01  1.000000
 
  6 S  1.36045000E-01  1.000000
 
  7 P  4.95040000E+02  0.008309
  7 P  1.17221000E+02  0.064024
  7 P  3.77749000E+01  0.277614
  7 P  1.40584000E+01  0.745076
 
  8 P  5.56574000E+00  0.613712
  8 P  2.26297000E+00  0.443818
 
  9 P  8.07994000E-01  1.000000
 
 10 P  2.77460000E-01  1.000000
 
 11 P  7.71410000E-02  1.000000
 
 12 S  4.05000000E-02  1.000000
 
 13 P  4.05000000E-02  1.000000
 
 14 D  2.60000000E+00  1.000000
 
 15 D  6.50000000E-01  1.000000
 
 16 D  1.62500000E-01  1.000000
 
 17 F  5.50000000E-01  1.000000
 


 Summary of "ao basis" -> "ao basis" (cartesian)
 ------------------------------------------------------------------------------
       Tag                 Description            Shells   Functions and Types
 ---------------- ------------------------------  ------  ---------------------
 S                     6-311++G(3df,3pd)            17       53   7s6p3d1f




 Summary of "ao basis" -> "ao basis" (cartesian)
 ------------------------------------------------------------------------------
       Tag                 Description            Shells   Functions and Types
 ---------------- ------------------------------  ------  ---------------------
 S                     6-311++G(3df,3pd)            17       53   7s6p3d1f


  Caching 1-el integrals 
 
            General Information
            -------------------
          SCF calculation type: DFT
          Wavefunction type:  spin polarized.
          No. of atoms     :     1
          No. of electrons :    16
           Alpha electrons :     9
            Beta electrons :     7
          Charge           :     0
          Spin multiplicity:     3
          Use of symmetry is: off; symmetry adaption is: off
          Maximum number of iterations: ***
          AO basis - number of functions:    53
                     number of shells:    17
          Convergence on energy requested:  1.00D-06
          Convergence on density requested:  1.00D-05
          Convergence on gradient requested:  5.00D-04
 
              XC Information
              --------------
                  TPSS metaGGA Exchange Functional  1.000          
             TPSS03 metaGGA Correlation Functional  1.000          
 
             Grid Information
             ----------------
          Grid used for XC integration:  medium    
          Radial quadrature: Mura-Knowles        
          Angular quadrature: Lebedev. 
          Tag              B.-S. Rad. Rad. Pts. Rad. Cut. Ang. Pts.
          ---              ---------- --------- --------- ---------
          S                   1.00       88           8.0       590
          Grid pruning is: on 
          Number of quadrature shells:    88
          Spatial weights used:  Erf1
 
          Convergence Information
          -----------------------
          Convergence aids based upon iterative change in 
          total energy or number of iterations. 
          Levelshifting, if invoked, occurs when the 
          HOMO/LUMO gap drops below (HL_TOL):  1.00D-02
          DIIS, if invoked, will attempt to extrapolate 
          using up to (NFOCK): 10 stored Fock matrices.

                    Damping( 0%)  Levelshifting(0.5)       DIIS
                  --------------- ------------------- ---------------
          dE  on:    start            ASAP                start   
          dE off:    2 iters        *** iters           *** iters 

 
      Screening Tolerance Information
      -------------------------------
          Density screening/tol_rho:  1.00D-10
          AO Gaussian exp screening on grid/accAOfunc:  14
          CD Gaussian exp screening on grid/accCDfunc:  20
          XC Gaussian exp screening on grid/accXCfunc:  20
          Schwarz screening/accCoul:  1.00D-08

 
      Superposition of Atomic Density Guess
      -------------------------------------
 
 Sum of atomic energies:        -397.48025101
 
      Non-variational initial energy
      ------------------------------

 Total energy =    -397.187110
 1-e energy   =    -549.324099
 2-e energy   =     152.136989
 HOMO         =      -0.286162
 LUMO         =      -0.286162
 
   Time after variat. SCF:      0.4
   Time prior to 1st pass:      0.4

 #quartets = 1.178D+04 #integrals = 1.645D+05 #direct =  0.0% #cached =100.0%


 Integral file          = ./S.aoints.00
 Record size in doubles =    65536    No. of integs per rec  =    43688
 Max. records in memory =        4    Max. records in file   = 11055339
 No. of bits per label  =        8    No. of bits per value  =       64


File balance: exchanges=     0  moved=     0  time=   0.0


 Grid_pts file          = ./S.gridpts.00
 Record size in doubles =  12289        No. of grid_pts per rec  =   3070
 Max. records in memory =      3        Max. recs in file   =  58957015


           Memory utilization after 1st SCF pass: 
           Heap Space remaining (MW):       12.81            12805260
          Stack Space remaining (MW):       13.11            13106660

   convergence    iter        energy       DeltaE   RMS-Dens  Diis-err    time
 ---------------- ----- ----------------- --------- --------- ---------  ------
 d= 0,ls=0.0,diis     1   -398.1199072902 -3.98D+02  5.67D-03  1.69D-01     1.2
                                                     2.30D-03  1.28D-01
 d= 0,ls=0.0,diis     2   -398.1350994440 -1.52D-02  2.62D-03  8.43D-03     1.3
                                                     2.47D-03  6.73D-03
 d= 0,ls=0.0,diis     3   -398.1376403639 -2.54D-03  8.92D-04  4.23D-03     1.4
                                                     7.06D-04  3.19D-03
 d= 0,ls=0.0,diis     4   -398.1389208314 -1.28D-03  9.90D-05  1.63D-05     1.5
                                                     5.52D-05  7.56D-06
 d= 0,ls=0.0,diis     5   -398.1389285026 -7.67D-06  1.35D-05  3.70D-07     1.6
                                                     2.05D-05  3.59D-07
 d= 0,ls=0.0,diis     6   -398.1389287376 -2.35D-07  6.41D-07  4.61D-10     1.7
                                                     1.07D-06  1.44D-09


         Total DFT energy =     -398.138928737595
      One electron energy =     -549.500897750773
           Coulomb energy =      177.012026355250
          Exchange energy =      -25.062063758864
       Correlation energy =       -0.587993583209
 Nuclear repulsion energy =        0.000000000000

 Numeric. integr. density =       15.999999999337

     Total iterative time =      1.3s


 
                    DFT Final Alpha Molecular Orbital Analysis
                    ------------------------------------------
 
 Vector    1  Occ=1.000000D+00  E=-8.840907D+01
              MO Center=  1.2D-17,  1.2D-17,  1.2D-17, r^2= 3.6D-03
   Bfn.  Coefficient  Atom+Function         Bfn.  Coefficient  Atom+Function  
  ----- ------------  ---------------      ----- ------------  ---------------
     2      0.653575  1 S  s                  1      0.411413  1 S  s          
 
 Vector    2  Occ=1.000000D+00  E=-7.791776D+00
              MO Center=  3.3D-15, -1.8D-16,  2.0D-15, r^2= 7.7D-02
   Bfn.  Coefficient  Atom+Function         Bfn.  Coefficient  Atom+Function  
  ----- ------------  ---------------      ----- ------------  ---------------
     4      0.586536  1 S  s                  3      0.513429  1 S  s          
     2     -0.320577  1 S  s                  5      0.127390  1 S  s          
     1     -0.119458  1 S  s                  6     -0.048351  1 S  s          
 
 Vector    3  Occ=1.000000D+00  E=-5.777171D+00
              MO Center= -1.1D-15, -1.3D-15, -1.9D-15, r^2= 6.9D-02
   Bfn.  Coefficient  Atom+Function         Bfn.  Coefficient  Atom+Function  
  ----- ------------  ---------------      ----- ------------  ---------------
    12      0.521651  1 S  pz                11      0.364795  1 S  py         
    10      0.306303  1 S  px                 9      0.279019  1 S  pz         
     8      0.195120  1 S  py                 7      0.163834  1 S  px         
    15      0.042865  1 S  pz                14      0.029976  1 S  py         
    13      0.025169  1 S  px         
 
 Vector    4  Occ=1.000000D+00  E=-5.777171D+00
              MO Center= -2.0D-15,  1.8D-15,  7.4D-17, r^2= 6.9D-02
   Bfn.  Coefficient  Atom+Function         Bfn.  Coefficient  Atom+Function  
  ----- ------------  ---------------      ----- ------------  ---------------
    10      0.545608  1 S  px                11     -0.448648  1 S  py         
     7      0.291833  1 S  px                 8     -0.239971  1 S  py         
    13      0.044834  1 S  px                14     -0.036866  1 S  py         
 
 Vector    5  Occ=1.000000D+00  E=-5.757787D+00
              MO Center=  8.2D-16, -1.7D-16,  3.3D-16, r^2= 6.9D-02
   Bfn.  Coefficient  Atom+Function         Bfn.  Coefficient  Atom+Function  
  ----- ------------  ---------------      ----- ------------  ---------------
    12      0.476647  1 S  pz                11     -0.406083  1 S  py         
    10     -0.328128  1 S  px                 9      0.254961  1 S  pz         
     8     -0.217216  1 S  py                 7     -0.175518  1 S  px         
    15      0.038166  1 S  pz                14     -0.032516  1 S  py         
    13     -0.026274  1 S  px         
 
 Vector    6  Occ=1.000000D+00  E=-6.737477D-01
              MO Center= -8.3D-15, -6.7D-15, -1.3D-14, r^2= 9.3D-01
   Bfn.  Coefficient  Atom+Function         Bfn.  Coefficient  Atom+Function  
  ----- ------------  ---------------      ----- ------------  ---------------
     5      0.684936  1 S  s                  6      0.676979  1 S  s          
     4     -0.393060  1 S  s                  3     -0.232444  1 S  s          
     2      0.104987  1 S  s                 43     -0.072994  1 S  dzz        
    41     -0.070385  1 S  dyy               38     -0.067987  1 S  dxx        
     1      0.036815  1 S  s                 36      0.033702  1 S  dyz        
 
 Vector    7  Occ=1.000000D+00  E=-3.046506D-01
              MO Center=  3.0D-15, -7.0D-16, -4.1D-15, r^2= 1.4D+00
   Bfn.  Coefficient  Atom+Function         Bfn.  Coefficient  Atom+Function  
  ----- ------------  ---------------      ----- ------------  ---------------
    16      0.533875  1 S  px                17     -0.357031  1 S  py         
    13      0.245030  1 S  px                19      0.226845  1 S  px         
    10     -0.171758  1 S  px                14     -0.163865  1 S  py         
    20     -0.151703  1 S  py                11      0.114864  1 S  py         
     7     -0.090030  1 S  px                18      0.063349  1 S  pz         
 
 Vector    8  Occ=1.000000D+00  E=-3.046506D-01
              MO Center=  5.0D-15,  9.2D-15,  9.4D-15, r^2= 1.4D+00
   Bfn.  Coefficient  Atom+Function         Bfn.  Coefficient  Atom+Function  
  ----- ------------  ---------------      ----- ------------  ---------------
    18      0.472387  1 S  pz                17      0.389363  1 S  py         
    15      0.216810  1 S  pz                16      0.204335  1 S  px         
    21      0.200718  1 S  pz                14      0.178704  1 S  py         
    20      0.165441  1 S  py                12     -0.151976  1 S  pz         
    11     -0.125266  1 S  py                13      0.093783  1 S  px         
 
 Vector    9  Occ=1.000000D+00  E=-2.541096D-01
              MO Center= -5.5D-15, -6.4D-15, -5.9D-15, r^2= 1.5D+00
   Bfn.  Coefficient  Atom+Function         Bfn.  Coefficient  Atom+Function  
  ----- ------------  ---------------      ----- ------------  ---------------
    18      0.441161  1 S  pz                17     -0.375850  1 S  py         
    16     -0.303699  1 S  px                21      0.203985  1 S  pz         
    15      0.189970  1 S  pz                20     -0.173787  1 S  py         
    14     -0.161846  1 S  py                19     -0.140425  1 S  px         
    12     -0.136266  1 S  pz                13     -0.130777  1 S  px         
 
 Vector   10  Occ=0.000000D+00  E= 4.546028D-03
              MO Center= -1.2D-14, -3.2D-14, -1.1D-13, r^2= 8.4D+00
   Bfn.  Coefficient  Atom+Function         Bfn.  Coefficient  Atom+Function  
  ----- ------------  ---------------      ----- ------------  ---------------
    22      1.622332  1 S  s                  5     -0.380562  1 S  s          
    43     -0.236022  1 S  dzz               41     -0.233466  1 S  dyy        
    38     -0.231118  1 S  dxx                6     -0.220437  1 S  s          
     4      0.115055  1 S  s                 32     -0.062163  1 S  dxx        
    35     -0.060500  1 S  dyy               37     -0.058689  1 S  dzz        
 
 Vector   11  Occ=0.000000D+00  E= 4.341979D-02
              MO Center= -1.3D-14,  5.9D-14,  4.2D-14, r^2= 1.2D+01
   Bfn.  Coefficient  Atom+Function         Bfn.  Coefficient  Atom+Function  
  ----- ------------  ---------------      ----- ------------  ---------------
    24      1.327766  1 S  py                25      0.840185  1 S  pz         
    20     -0.678009  1 S  py                21     -0.429032  1 S  pz         
    23     -0.422772  1 S  px                19      0.215884  1 S  px         
    14     -0.129295  1 S  py                15     -0.081815  1 S  pz         
    52     -0.081035  1 S  fyzz              45     -0.080339  1 S  fxxy       
 
 Vector   12  Occ=0.000000D+00  E= 4.342045D-02
              MO Center=  5.6D-14,  2.3D-15,  4.6D-14, r^2= 1.2D+01
   Bfn.  Coefficient  Atom+Function         Bfn.  Coefficient  Atom+Function  
  ----- ------------  ---------------      ----- ------------  ---------------
    23      1.377870  1 S  px                25      0.859105  1 S  pz         
    19     -0.703591  1 S  px                21     -0.438688  1 S  pz         
    13     -0.134173  1 S  px                24     -0.104900  1 S  py         
    15     -0.083657  1 S  pz                49     -0.083203  1 S  fxzz       
    44     -0.081858  1 S  fxxx              47     -0.081201  1 S  fxyy       
 
 Vector   13  Occ=0.000000D+00  E= 5.005851D-02
              MO Center= -4.4D-15, -5.9D-14,  4.8D-14, r^2= 1.2D+01
   Bfn.  Coefficient  Atom+Function         Bfn.  Coefficient  Atom+Function  
  ----- ------------  ---------------      ----- ------------  ---------------
    25      1.134258  1 S  pz                24     -0.966344  1 S  py         
    23     -0.780788  1 S  px                21     -0.620818  1 S  pz         
    20      0.528913  1 S  py                19      0.427355  1 S  px         
    15     -0.109402  1 S  pz                14      0.093207  1 S  py         
    13      0.075309  1 S  px                53     -0.069266  1 S  fzzz       
 
 Vector   14  Occ=0.000000D+00  E= 1.615751D-01
              MO Center=  5.5D-15, -2.9D-16,  2.9D-15, r^2= 2.4D+00
   Bfn.  Coefficient  Atom+Function         Bfn.  Coefficient  Atom+Function  
  ----- ------------  ---------------      ----- ------------  ---------------
    42      0.873651  1 S  dyz               39      0.606054  1 S  dxy        
    38     -0.554823  1 S  dxx               43      0.286947  1 S  dzz        
    36      0.268206  1 S  dyz               41      0.267877  1 S  dyy        
    40     -0.247557  1 S  dxz               33      0.186055  1 S  dxy        
    32     -0.170328  1 S  dxx               37      0.088091  1 S  dzz        
 
 Vector   15  Occ=0.000000D+00  E= 1.615751D-01
              MO Center= -9.6D-15,  1.5D-15, -5.8D-15, r^2= 2.4D+00
   Bfn.  Coefficient  Atom+Function         Bfn.  Coefficient  Atom+Function  
  ----- ------------  ---------------      ----- ------------  ---------------
    40      0.918709  1 S  dxz               39      0.863072  1 S  dxy        
    41     -0.407067  1 S  dyy               34      0.282039  1 S  dxz        
    43      0.273855  1 S  dzz               33      0.264959  1 S  dxy        
    38      0.133212  1 S  dxx               35     -0.124967  1 S  dyy        
    42     -0.099461  1 S  dyz               37      0.084072  1 S  dzz        
 
 Vector   16  Occ=0.000000D+00  E= 1.853906D-01
              MO Center=  3.6D-15,  3.9D-15,  2.9D-15, r^2= 2.5D+00
   Bfn.  Coefficient  Atom+Function         Bfn.  Coefficient  Atom+Function  
  ----- ------------  ---------------      ----- ------------  ---------------
    43     -0.735443  1 S  dzz               39      0.731335  1 S  dxy        
    41      0.416330  1 S  dyy               38      0.319114  1 S  dxx        
    37     -0.204759  1 S  dzz               33      0.203615  1 S  dxy        
    42      0.137893  1 S  dyz               35      0.115913  1 S  dyy        
    32      0.088846  1 S  dxx               31     -0.059500  1 S  dzz        
 
 Vector   17  Occ=0.000000D+00  E= 1.853906D-01
              MO Center= -2.8D-14,  1.8D-14,  3.9D-15, r^2= 2.5D+00
   Bfn.  Coefficient  Atom+Function         Bfn.  Coefficient  Atom+Function  
  ----- ------------  ---------------      ----- ------------  ---------------
    40      0.779102  1 S  dxz               42     -0.620288  1 S  dyz        
    41      0.557098  1 S  dyy               38     -0.517642  1 S  dxx        
    34      0.216914  1 S  dxz               39     -0.190468  1 S  dxy        
    36     -0.172698  1 S  dyz               35      0.155105  1 S  dyy        
    32     -0.144120  1 S  dxx               28      0.063032  1 S  dxz        
 
 Vector   18  Occ=0.000000D+00  E= 1.952315D-01
              MO Center=  6.9D-15,  8.9D-15, -1.7D-14, r^2= 2.5D+00
   Bfn.  Coefficient  Atom+Function         Bfn.  Coefficient  Atom+Function  
  ----- ------------  ---------------      ----- ------------  ---------------
    42      0.998126  1 S  dyz               40      0.806517  1 S  dxz        
    39     -0.687118  1 S  dxy               36      0.266365  1 S  dyz        
    34      0.215231  1 S  dxz               33     -0.183368  1 S  dxy        
    38      0.180838  1 S  dxx               43     -0.127339  1 S  dzz        
    30      0.079561  1 S  dyz               28      0.064288  1 S  dxz        
 
 Vector   19  Occ=0.000000D+00  E= 2.834679D-01
              MO Center=  1.2D-14, -3.5D-14, -2.8D-14, r^2= 8.6D+00
   Bfn.  Coefficient  Atom+Function         Bfn.  Coefficient  Atom+Function  
  ----- ------------  ---------------      ----- ------------  ---------------
    20      2.464543  1 S  py                24     -1.601196  1 S  py         
    17     -1.575578  1 S  py                21      1.515637  1 S  pz         
    25     -0.984698  1 S  pz                18     -0.968945  1 S  pz         
    19     -0.848429  1 S  px                23      0.551218  1 S  px         
    16      0.542399  1 S  px                50      0.365158  1 S  fyyy       
 
 Vector   20  Occ=0.000000D+00  E= 2.834685D-01
              MO Center= -5.8D-14,  1.3D-15, -3.5D-14, r^2= 8.6D+00
   Bfn.  Coefficient  Atom+Function         Bfn.  Coefficient  Atom+Function  
  ----- ------------  ---------------      ----- ------------  ---------------
    19      2.532324  1 S  px                23     -1.645235  1 S  px         
    21      1.631267  1 S  pz                16     -1.618909  1 S  px         
    25     -1.059824  1 S  pz                18     -1.042864  1 S  pz         
    44      0.373487  1 S  fxxx              47      0.374787  1 S  fxyy       
    49      0.371034  1 S  fxzz              51      0.242297  1 S  fyyz       
 
 Vector   21  Occ=0.000000D+00  E= 2.989357D-01
              MO Center=  5.9D-15,  6.8D-15, -1.7D-14, r^2= 8.4D+00
   Bfn.  Coefficient  Atom+Function         Bfn.  Coefficient  Atom+Function  
  ----- ------------  ---------------      ----- ------------  ---------------
    21      2.031206  1 S  pz                20     -1.730506  1 S  py         
    19     -1.398271  1 S  px                18     -1.363005  1 S  pz         
    25     -1.296654  1 S  pz                17      1.161225  1 S  py         
    24      1.104697  1 S  py                16      0.938287  1 S  px         
    23      0.892608  1 S  px                51      0.325054  1 S  fyyz       
 
 Vector   22  Occ=0.000000D+00  E= 3.184902D-01
              MO Center=  2.7D-14,  2.3D-14,  7.3D-14, r^2= 6.6D+00
   Bfn.  Coefficient  Atom+Function         Bfn.  Coefficient  Atom+Function  
  ----- ------------  ---------------      ----- ------------  ---------------
     6      2.460834  1 S  s                 22      1.762988  1 S  s          
    38     -1.682199  1 S  dxx               41     -1.682471  1 S  dyy        
    43     -1.682768  1 S  dzz               37     -0.356626  1 S  dzz        
    35     -0.351247  1 S  dyy               32     -0.346304  1 S  dxx        
     4     -0.307004  1 S  s                  3     -0.191301  1 S  s          
 
 Vector   23  Occ=0.000000D+00  E= 8.810007D-01
              MO Center=  3.2D-15, -5.3D-15, -3.7D-15, r^2= 1.6D+00
   Bfn.  Coefficient  Atom+Function         Bfn.  Coefficient  Atom+Function  
  ----- ------------  ---------------      ----- ------------  ---------------
    36      0.932531  1 S  dyz               34     -0.809270  1 S  dxz        
    42     -0.693518  1 S  dyz               32     -0.635087  1 S  dxx        
    40      0.601850  1 S  dxz               35      0.516402  1 S  dyy        
    38      0.472311  1 S  dxx               41     -0.384046  1 S  dyy        
    30      0.155711  1 S  dyz               28     -0.135130  1 S  dxz        
 
 Vector   24  Occ=0.000000D+00  E= 8.810007D-01
              MO Center=  4.9D-16, -6.9D-16, -9.3D-16, r^2= 1.6D+00
   Bfn.  Coefficient  Atom+Function         Bfn.  Coefficient  Atom+Function  
  ----- ------------  ---------------      ----- ------------  ---------------
    33      1.232027  1 S  dxy               39     -0.916252  1 S  dxy        
    34      0.765100  1 S  dxz               40     -0.569001  1 S  dxz        
    37      0.448850  1 S  dzz               36      0.435467  1 S  dyz        
    43     -0.333808  1 S  dzz               42     -0.323855  1 S  dyz        
    35     -0.242189  1 S  dyy               27      0.205720  1 S  dxy        
 
 Vector   25  Occ=0.000000D+00  E= 9.129103D-01
              MO Center= -2.2D-15, -1.3D-15,  6.2D-15, r^2= 1.5D+00
   Bfn.  Coefficient  Atom+Function         Bfn.  Coefficient  Atom+Function  
  ----- ------------  ---------------      ----- ------------  ---------------
    37     -0.849629  1 S  dzz               33      0.844484  1 S  dxy        
    43      0.615391  1 S  dzz               39     -0.611664  1 S  dxy        
    35      0.481897  1 S  dyy               32      0.367731  1 S  dxx        
    41     -0.349041  1 S  dyy               38     -0.266350  1 S  dxx        
    36      0.158213  1 S  dyz               31     -0.143980  1 S  dzz        
 
 Vector   26  Occ=0.000000D+00  E= 9.129103D-01
              MO Center= -1.0D-15,  5.0D-16, -2.8D-15, r^2= 1.5D+00
   Bfn.  Coefficient  Atom+Function         Bfn.  Coefficient  Atom+Function  
  ----- ------------  ---------------      ----- ------------  ---------------
    34      0.899920  1 S  dxz               36     -0.716776  1 S  dyz        
    40     -0.651817  1 S  dxz               35      0.642819  1 S  dyy        
    32     -0.598517  1 S  dxx               42      0.519165  1 S  dyz        
    41     -0.465598  1 S  dyy               38      0.433509  1 S  dxx        
    33     -0.221292  1 S  dxy               39      0.160283  1 S  dxy        
 
 Vector   27  Occ=0.000000D+00  E= 9.252134D-01
              MO Center=  3.1D-15,  1.0D-14,  4.1D-15, r^2= 1.5D+00
   Bfn.  Coefficient  Atom+Function         Bfn.  Coefficient  Atom+Function  
  ----- ------------  ---------------      ----- ------------  ---------------
    36      1.146297  1 S  dyz               34      0.926243  1 S  dxz        
    42     -0.822290  1 S  dyz               33     -0.789120  1 S  dxy        
    40     -0.664435  1 S  dxz               39      0.566071  1 S  dxy        
     6     -0.402101  1 S  s                 43      0.266022  1 S  dzz        
    32      0.223714  1 S  dxx               30      0.195563  1 S  dyz        
 
 Vector   28  Occ=0.000000D+00  E= 1.046112D+00
              MO Center=  1.3D-14, -3.5D-14, -1.8D-14, r^2= 3.8D+00
   Bfn.  Coefficient  Atom+Function         Bfn.  Coefficient  Atom+Function  
  ----- ------------  ---------------      ----- ------------  ---------------
    17      4.879809  1 S  py                18      3.006834  1 S  pz         
    45     -1.879848  1 S  fxxy              50     -1.877179  1 S  fyyy       
    52     -1.880347  1 S  fyzz              20     -1.867195  1 S  py         
    16     -1.671335  1 S  px                14     -1.647419  1 S  py         
    51     -1.163636  1 S  fyyz              21     -1.150525  1 S  pz         
 
 Vector   29  Occ=0.000000D+00  E= 1.046112D+00
              MO Center= -6.8D-14,  7.2D-15, -4.6D-14, r^2= 3.8D+00
   Bfn.  Coefficient  Atom+Function         Bfn.  Coefficient  Atom+Function  
  ----- ------------  ---------------      ----- ------------  ---------------
    16      5.017363  1 S  px                18      3.225027  1 S  pz         
    44     -1.931151  1 S  fxxx              47     -1.930357  1 S  fxyy       
    49     -1.932658  1 S  fxzz              19     -1.919829  1 S  px         
    13     -1.693857  1 S  px                46     -1.247073  1 S  fxxz       
    51     -1.240229  1 S  fyyz              21     -1.234015  1 S  pz         
 
 Vector   30  Occ=0.000000D+00  E= 1.075049D+00
              MO Center= -5.9D-15, -2.7D-15,  5.4D-15, r^2= 3.7D+00
   Bfn.  Coefficient  Atom+Function         Bfn.  Coefficient  Atom+Function  
  ----- ------------  ---------------      ----- ------------  ---------------
    18      4.020224  1 S  pz                17     -3.425062  1 S  py         
    16     -2.767549  1 S  px                46     -1.554086  1 S  fxxz       
    51     -1.551596  1 S  fyyz              53     -1.555476  1 S  fzzz       
    21     -1.520353  1 S  pz                15     -1.359456  1 S  pz         
    45      1.324016  1 S  fxxy              50      1.325970  1 S  fyyy       
 
 Vector   31  Occ=0.000000D+00  E= 1.208438D+00
              MO Center=  6.2D-14,  3.2D-14,  5.9D-14, r^2= 3.5D+00
   Bfn.  Coefficient  Atom+Function         Bfn.  Coefficient  Atom+Function  
  ----- ------------  ---------------      ----- ------------  ---------------
     6     10.670657  1 S  s                  5     -3.930003  1 S  s          
    38     -3.222139  1 S  dxx               41     -3.217854  1 S  dyy        
    43     -3.213191  1 S  dzz               37     -1.107009  1 S  dzz        
    32     -1.096483  1 S  dxx               35     -1.101524  1 S  dyy        
    22      1.060087  1 S  s                  4      0.250030  1 S  s          
 
 Vector   32  Occ=0.000000D+00  E= 1.522846D+00
              MO Center=  7.4D-16,  9.8D-16,  1.3D-15, r^2= 1.1D+00
   Bfn.  Coefficient  Atom+Function         Bfn.  Coefficient  Atom+Function  
  ----- ------------  ---------------      ----- ------------  ---------------
    45      1.511273  1 S  fxxy              51     -1.173590  1 S  fyyz       
    49      1.087078  1 S  fxzz              46      1.004977  1 S  fxxz       
    48      0.927848  1 S  fxyz              52     -0.680480  1 S  fyzz       
    47     -0.676617  1 S  fxyy              50     -0.276931  1 S  fyyy       
    44     -0.136820  1 S  fxxx              53      0.056204  1 S  fzzz       
 
 Vector   33  Occ=0.000000D+00  E= 1.522846D+00
              MO Center=  7.1D-16,  5.8D-16,  9.8D-16, r^2= 1.1D+00
   Bfn.  Coefficient  Atom+Function         Bfn.  Coefficient  Atom+Function  
  ----- ------------  ---------------      ----- ------------  ---------------
    48      2.364330  1 S  fxyz              47      1.234292  1 S  fxyy       
    46     -0.937240  1 S  fxxz              52      0.811214  1 S  fyzz       
    44     -0.532081  1 S  fxxx              49      0.361951  1 S  fxzz       
    50     -0.333642  1 S  fyyy              53      0.313430  1 S  fzzz       
    45      0.189713  1 S  fxxy       
 
 Vector   34  Occ=0.000000D+00  E= 1.552462D+00
              MO Center=  1.6D-15,  8.4D-16,  3.0D-15, r^2= 1.1D+00
   Bfn.  Coefficient  Atom+Function         Bfn.  Coefficient  Atom+Function  
  ----- ------------  ---------------      ----- ------------  ---------------
    49      1.509094  1 S  fxzz              52     -1.199436  1 S  fyzz       
    45     -1.011374  1 S  fxxy              50      0.736937  1 S  fyyy       
    44     -0.580840  1 S  fxxx              47      0.233427  1 S  fxyy       
    46     -0.205199  1 S  fxxz              51      0.141454  1 S  fyyz       
    48     -0.059955  1 S  fxyz       
 
 Vector   35  Occ=0.000000D+00  E= 1.552462D+00
              MO Center=  1.3D-15,  1.1D-16,  2.1D-15, r^2= 1.1D+00
   Bfn.  Coefficient  Atom+Function         Bfn.  Coefficient  Atom+Function  
  ----- ------------  ---------------      ----- ------------  ---------------
    47      1.481759  1 S  fxyy              46      1.112405  1 S  fxxz       
    51      1.022967  1 S  fyyz              45      0.775226  1 S  fxxy       
    53     -0.711791  1 S  fzzz              48     -0.466404  1 S  fxyz       
    52     -0.440664  1 S  fyzz              44     -0.399890  1 S  fxxx       
    49     -0.282089  1 S  fxzz              50     -0.111521  1 S  fyyy       
 
 Vector   36  Occ=0.000000D+00  E= 1.571678D+00
              MO Center=  4.7D-16, -3.1D-16, -4.3D-16, r^2= 1.1D+00
   Bfn.  Coefficient  Atom+Function         Bfn.  Coefficient  Atom+Function  
  ----- ------------  ---------------      ----- ------------  ---------------
    51     -1.533116  1 S  fyyz              46      1.452420  1 S  fxxz       
    45     -1.219770  1 S  fxxy              47      0.778976  1 S  fxyy       
    49     -0.639206  1 S  fxzz              48      0.602604  1 S  fxyz       
    52      0.413812  1 S  fyzz              50      0.245442  1 S  fyyy       
    16     -0.032805  1 S  px                17      0.028230  1 S  py         
 
 Vector   37  Occ=0.000000D+00  E= 1.571678D+00
              MO Center=  1.1D-15,  1.3D-15,  9.3D-16, r^2= 1.1D+00
   Bfn.  Coefficient  Atom+Function         Bfn.  Coefficient  Atom+Function  
  ----- ------------  ---------------      ----- ------------  ---------------
    52      1.374146  1 S  fyzz              49      1.065626  1 S  fxzz       
    47     -0.980937  1 S  fxyy              51      0.896139  1 S  fyyz       
    46      0.860402  1 S  fxxz              48      0.832692  1 S  fxyz       
    45     -0.762123  1 S  fxxy              53     -0.559247  1 S  fzzz       
    50     -0.186382  1 S  fyyy              18     -0.031947  1 S  pz         
 
 Vector   38  Occ=0.000000D+00  E= 1.578194D+00
              MO Center= -8.4D-17, -1.9D-16,  1.1D-15, r^2= 1.1D+00
   Bfn.  Coefficient  Atom+Function         Bfn.  Coefficient  Atom+Function  
  ----- ------------  ---------------      ----- ------------  ---------------
    48      2.695776  1 S  fxyz              52     -1.080715  1 S  fyzz       
    49     -0.873252  1 S  fxzz              51      0.638412  1 S  fyyz       
    44      0.458932  1 S  fxxx              47     -0.439488  1 S  fxyy       
    50      0.403541  1 S  fyyy              53     -0.263632  1 S  fzzz       
    46      0.059434  1 S  fxxz              45     -0.050635  1 S  fxxy       
 
 Vector   39  Occ=0.000000D+00  E= 2.932268D+00
              MO Center=  3.0D-15, -6.2D-15, -1.4D-15, r^2= 1.7D+00
   Bfn.  Coefficient  Atom+Function         Bfn.  Coefficient  Atom+Function  
  ----- ------------  ---------------      ----- ------------  ---------------
    17      4.894908  1 S  py                18      2.997552  1 S  pz         
    45     -3.006245  1 S  fxxy              50     -3.011846  1 S  fyyy       
    52     -3.005319  1 S  fyzz              46     -1.847156  1 S  fxxz       
    53     -1.845824  1 S  fzzz              51     -1.829941  1 S  fyyz       
    16     -1.703500  1 S  px                20     -1.071497  1 S  py         
 
 Vector   40  Occ=0.000000D+00  E= 2.932268D+00
              MO Center=  4.3D-15, -3.3D-15,  3.2D-15, r^2= 1.7D+00
   Bfn.  Coefficient  Atom+Function         Bfn.  Coefficient  Atom+Function  
  ----- ------------  ---------------      ----- ------------  ---------------
    16      5.022209  1 S  px                18      3.250514  1 S  pz         
    44     -3.087982  1 S  fxxx              47     -3.089681  1 S  fxyy       
    49     -3.084804  1 S  fxzz              51     -2.000765  1 S  fyyz       
    53     -2.001593  1 S  fzzz              46     -1.986641  1 S  fxxz       
    19     -1.099363  1 S  px                21     -0.711539  1 S  pz         
 
 Vector   41  Occ=0.000000D+00  E= 2.969570D+00
              MO Center=  2.9D-15,  4.7D-15, -4.3D-15, r^2= 1.7D+00
   Bfn.  Coefficient  Atom+Function         Bfn.  Coefficient  Atom+Function  
  ----- ------------  ---------------      ----- ------------  ---------------
    18      4.020389  1 S  pz                17     -3.425202  1 S  py         
    16     -2.767668  1 S  px                46     -2.476860  1 S  fxxz       
    51     -2.482222  1 S  fyyz              53     -2.473868  1 S  fzzz       
    45      2.110180  1 S  fxxy              52      2.119720  1 S  fyzz       
    50      2.105974  1 S  fyyy              49      1.712799  1 S  fxzz       
 
 Vector   42  Occ=0.000000D+00  E= 3.714132D+00
              MO Center= -9.6D-15,  2.3D-15,  3.7D-15, r^2= 1.4D+00
   Bfn.  Coefficient  Atom+Function         Bfn.  Coefficient  Atom+Function  
  ----- ------------  ---------------      ----- ------------  ---------------
     5      8.538192  1 S  s                  6      6.756224  1 S  s          
    32     -4.656596  1 S  dxx               35     -4.653675  1 S  dyy        
    37     -4.650495  1 S  dzz                4     -2.169085  1 S  s          
    38     -1.898049  1 S  dxx               41     -1.899082  1 S  dyy        
    43     -1.900207  1 S  dzz                3     -1.113367  1 S  s          
 
 Vector   43  Occ=0.000000D+00  E= 4.488336D+00
              MO Center= -1.6D-15, -9.2D-16,  7.0D-16, r^2= 4.5D-01
   Bfn.  Coefficient  Atom+Function         Bfn.  Coefficient  Atom+Function  
  ----- ------------  ---------------      ----- ------------  ---------------
    28      1.035745  1 S  dxz               30     -0.996181  1 S  dyz        
    34     -0.717203  1 S  dxz               26      0.691904  1 S  dxx        
    36      0.689807  1 S  dyz               29     -0.624060  1 S  dyy        
    32     -0.479110  1 S  dxx               35      0.432131  1 S  dyy        
    40      0.235232  1 S  dxz               42     -0.226246  1 S  dyz        
 
 Vector   44  Occ=0.000000D+00  E= 4.488336D+00
              MO Center= -3.4D-15,  2.2D-15,  3.3D-17, r^2= 4.5D-01
   Bfn.  Coefficient  Atom+Function         Bfn.  Coefficient  Atom+Function  
  ----- ------------  ---------------      ----- ------------  ---------------
    27      1.413762  1 S  dxy               33     -0.978962  1 S  dxy        
    28      0.749608  1 S  dxz               30      0.635360  1 S  dyz        
    31      0.528668  1 S  dzz               34     -0.519068  1 S  dxz        
    36     -0.439956  1 S  dyz               37     -0.366077  1 S  dzz        
    26     -0.330369  1 S  dxx               39      0.321084  1 S  dxy        
 
 Vector   45  Occ=0.000000D+00  E= 4.513990D+00
              MO Center=  3.4D-16, -5.5D-16, -1.6D-15, r^2= 4.5D-01
   Bfn.  Coefficient  Atom+Function         Bfn.  Coefficient  Atom+Function  
  ----- ------------  ---------------      ----- ------------  ---------------
    27      0.973661  1 S  dxy               31     -0.969348  1 S  dzz        
    33     -0.676084  1 S  dxy               37      0.673089  1 S  dzz        
    29      0.526093  1 S  dyy               26      0.443255  1 S  dxx        
    35     -0.365305  1 S  dyy               32     -0.307784  1 S  dxx        
    39      0.220925  1 S  dxy               43     -0.219946  1 S  dzz        
 
 Vector   46  Occ=0.000000D+00  E= 4.513990D+00
              MO Center=  5.6D-15,  1.2D-15, -1.8D-15, r^2= 4.5D-01
   Bfn.  Coefficient  Atom+Function         Bfn.  Coefficient  Atom+Function  
  ----- ------------  ---------------      ----- ------------  ---------------
    28      1.030473  1 S  dxz               30     -0.813138  1 S  dyz        
    29      0.753180  1 S  dyy               34     -0.715532  1 S  dxz        
    26     -0.669936  1 S  dxx               36      0.564621  1 S  dyz        
    35     -0.522987  1 S  dyy               32      0.465186  1 S  dxx        
    40      0.233815  1 S  dxz               27     -0.220505  1 S  dxy        
 
 Vector   47  Occ=0.000000D+00  E= 4.523364D+00
              MO Center= -7.1D-16, -1.6D-15,  5.1D-16, r^2= 4.5D-01
   Bfn.  Coefficient  Atom+Function         Bfn.  Coefficient  Atom+Function  
  ----- ------------  ---------------      ----- ------------  ---------------
    30      1.310093  1 S  dyz               28      1.058596  1 S  dxz        
    36     -0.910771  1 S  dyz               27     -0.901879  1 S  dxy        
    34     -0.735931  1 S  dxz               33      0.626982  1 S  dxy        
    42      0.297223  1 S  dyz               37      0.271701  1 S  dzz        
     5     -0.263623  1 S  s                 40      0.240165  1 S  dxz        
 
 Vector   48  Occ=0.000000D+00  E= 1.001314D+01
              MO Center=  1.4D-15, -1.1D-15, -1.3D-15, r^2= 6.1D-01
   Bfn.  Coefficient  Atom+Function         Bfn.  Coefficient  Atom+Function  
  ----- ------------  ---------------      ----- ------------  ---------------
     5     19.112132  1 S  s                 32     -6.273205  1 S  dxx        
    35     -6.272860  1 S  dyy               37     -6.272484  1 S  dzz        
    26     -3.380972  1 S  dxx               29     -3.381286  1 S  dyy        
    31     -3.381628  1 S  dzz                3     -1.957277  1 S  s          
     6      1.027412  1 S  s                  4     -0.574004  1 S  s          
 
 Vector   49  Occ=0.000000D+00  E= 1.839757D+01
              MO Center= -1.2D-15,  3.5D-15,  2.4D-15, r^2= 2.2D-01
   Bfn.  Coefficient  Atom+Function         Bfn.  Coefficient  Atom+Function  
  ----- ------------  ---------------      ----- ------------  ---------------
    17      1.532718  1 S  py                11     -1.246425  1 S  py         
    45     -1.062721  1 S  fxxy              50     -1.062648  1 S  fyyy       
    52     -1.062734  1 S  fyzz               8      1.004344  1 S  py         
    18      0.940910  1 S  pz                12     -0.765159  1 S  pz         
    46     -0.652305  1 S  fxxz              51     -0.652533  1 S  fyyz       
 
 Vector   50  Occ=0.000000D+00  E= 1.839757D+01
              MO Center= -3.9D-15, -5.4D-17, -2.5D-15, r^2= 2.2D-01
   Bfn.  Coefficient  Atom+Function         Bfn.  Coefficient  Atom+Function  
  ----- ------------  ---------------      ----- ------------  ---------------
    16      1.573901  1 S  px                10     -1.279915  1 S  px         
    44     -1.091229  1 S  fxxx              47     -1.091207  1 S  fxyy       
    49     -1.091271  1 S  fxzz               7      1.031330  1 S  px         
    18      1.015897  1 S  pz                12     -0.826139  1 S  pz         
    46     -0.704508  1 S  fxxz              51     -0.704321  1 S  fyyz       
 
 Vector   51  Occ=0.000000D+00  E= 1.841868D+01
              MO Center= -2.2D-15, -2.1D-15,  2.6D-15, r^2= 2.2D-01
   Bfn.  Coefficient  Atom+Function         Bfn.  Coefficient  Atom+Function  
  ----- ------------  ---------------      ----- ------------  ---------------
    18      1.263973  1 S  pz                17     -1.076852  1 S  py         
    12     -1.028232  1 S  pz                11      0.876011  1 S  py         
    46     -0.876562  1 S  fxxz              51     -0.876494  1 S  fyyz       
    53     -0.876599  1 S  fzzz              16     -0.870130  1 S  px         
     9      0.828284  1 S  pz                45      0.746793  1 S  fxxy       
 
 Vector   52  Occ=0.000000D+00  E= 2.479225D+01
              MO Center=  2.9D-15, -7.9D-16, -6.5D-16, r^2= 2.6D-01
   Bfn.  Coefficient  Atom+Function         Bfn.  Coefficient  Atom+Function  
  ----- ------------  ---------------      ----- ------------  ---------------
     5     16.163634  1 S  s                  4     15.756467  1 S  s          
     3    -12.053216  1 S  s                 26     -6.811740  1 S  dxx        
    29     -6.811779  1 S  dyy               31     -6.811821  1 S  dzz        
    32     -4.812973  1 S  dxx               35     -4.812936  1 S  dyy        
    37     -4.812896  1 S  dzz                2      0.664409  1 S  s          
 
 Vector   53  Occ=0.000000D+00  E= 2.190975D+02
              MO Center= -7.1D-17,  1.9D-17,  2.0D-17, r^2= 3.2D-02
   Bfn.  Coefficient  Atom+Function         Bfn.  Coefficient  Atom+Function  
  ----- ------------  ---------------      ----- ------------  ---------------
     4      7.654692  1 S  s                  3     -6.329248  1 S  s          
     5      5.373165  1 S  s                 26     -2.766741  1 S  dxx        
    29     -2.766742  1 S  dyy               31     -2.766742  1 S  dzz        
     2      2.291562  1 S  s                  1     -1.625391  1 S  s          
    32     -1.613117  1 S  dxx               35     -1.613116  1 S  dyy        
 
 
                     DFT Final Beta Molecular Orbital Analysis
                     -----------------------------------------
 
 Vector    1  Occ=1.000000D+00  E=-8.839850D+01
              MO Center=  1.5D-17,  1.3D-17,  1.4D-17, r^2= 3.6D-03
   Bfn.  Coefficient  Atom+Function         Bfn.  Coefficient  Atom+Function  
  ----- ------------  ---------------      ----- ------------  ---------------
     2      0.653597  1 S  s                  1      0.411447  1 S  s          
 
 Vector    2  Occ=1.000000D+00  E=-7.782817D+00
              MO Center= -7.6D-16,  6.2D-17, -1.3D-15, r^2= 7.7D-02
   Bfn.  Coefficient  Atom+Function         Bfn.  Coefficient  Atom+Function  
  ----- ------------  ---------------      ----- ------------  ---------------
     4      0.593327  1 S  s                  3      0.510850  1 S  s          
     2     -0.320334  1 S  s                  1     -0.119412  1 S  s          
     5      0.117633  1 S  s                  6     -0.048126  1 S  s          
 
 Vector    3  Occ=1.000000D+00  E=-5.759847D+00
              MO Center=  4.2D-16,  5.7D-16,  7.3D-16, r^2= 6.9D-02
   Bfn.  Coefficient  Atom+Function         Bfn.  Coefficient  Atom+Function  
  ----- ------------  ---------------      ----- ------------  ---------------
    12      0.522926  1 S  pz                11      0.373430  1 S  py         
    10      0.297467  1 S  px                 9      0.278561  1 S  pz         
     8      0.198926  1 S  py                 7      0.158460  1 S  px         
    15      0.041140  1 S  pz                14      0.029378  1 S  py         
 
 Vector    4  Occ=1.000000D+00  E=-5.759847D+00
              MO Center=  3.1D-16, -5.1D-16,  1.4D-16, r^2= 6.9D-02
   Bfn.  Coefficient  Atom+Function         Bfn.  Coefficient  Atom+Function  
  ----- ------------  ---------------      ----- ------------  ---------------
    10      0.552163  1 S  px                11     -0.443282  1 S  py         
     7      0.294136  1 S  px                 8     -0.236135  1 S  py         
    13      0.043440  1 S  px                14     -0.034874  1 S  py         
 
 Vector    5  Occ=1.000000D+00  E=-5.752249D+00
              MO Center=  1.2D-16, -5.4D-16,  3.7D-16, r^2= 6.9D-02
   Bfn.  Coefficient  Atom+Function         Bfn.  Coefficient  Atom+Function  
  ----- ------------  ---------------      ----- ------------  ---------------
    12      0.477186  1 S  pz                11     -0.406542  1 S  py         
    10     -0.328499  1 S  px                 9      0.254821  1 S  pz         
     8     -0.217097  1 S  py                 7     -0.175421  1 S  px         
    15      0.037572  1 S  pz                14     -0.032010  1 S  py         
    13     -0.025865  1 S  px         
 
 Vector    6  Occ=1.000000D+00  E=-5.857480D-01
              MO Center=  9.7D-15,  1.1D-14,  1.6D-14, r^2= 9.7D-01
   Bfn.  Coefficient  Atom+Function         Bfn.  Coefficient  Atom+Function  
  ----- ------------  ---------------      ----- ------------  ---------------
     6      0.663917  1 S  s                  5      0.629811  1 S  s          
     4     -0.399516  1 S  s                  3     -0.218904  1 S  s          
     2      0.104288  1 S  s                 38     -0.060478  1 S  dxx        
    41     -0.058512  1 S  dyy               43     -0.056372  1 S  dzz        
     1      0.036671  1 S  s          
 
 Vector    7  Occ=1.000000D+00  E=-2.319085D-01
              MO Center=  7.5D-15,  6.6D-15,  5.3D-15, r^2= 1.5D+00
   Bfn.  Coefficient  Atom+Function         Bfn.  Coefficient  Atom+Function  
  ----- ------------  ---------------      ----- ------------  ---------------
    18      0.439799  1 S  pz                17     -0.374690  1 S  py         
    16     -0.302761  1 S  px                21      0.212009  1 S  pz         
    15      0.184292  1 S  pz                20     -0.180623  1 S  py         
    14     -0.157009  1 S  py                19     -0.145949  1 S  px         
    12     -0.133858  1 S  pz                13     -0.126868  1 S  px         
 
 Vector    8  Occ=0.000000D+00  E=-2.004771D-01
              MO Center=  6.1D-15,  9.0D-15,  5.1D-15, r^2= 1.6D+00
   Bfn.  Coefficient  Atom+Function         Bfn.  Coefficient  Atom+Function  
  ----- ------------  ---------------      ----- ------------  ---------------
    16      0.474612  1 S  px                17     -0.419907  1 S  py         
    19      0.256371  1 S  px                20     -0.226821  1 S  py         
    13      0.200288  1 S  px                14     -0.177202  1 S  py         
    10     -0.145270  1 S  px                11      0.128526  1 S  py         
     7     -0.077357  1 S  px                 8      0.068440  1 S  py         
 
 Vector    9  Occ=0.000000D+00  E=-2.004771D-01
              MO Center= -6.3D-15, -6.2D-15, -8.3D-15, r^2= 1.6D+00
   Bfn.  Coefficient  Atom+Function         Bfn.  Coefficient  Atom+Function  
  ----- ------------  ---------------      ----- ------------  ---------------
    18      0.467530  1 S  pz                17      0.305606  1 S  py         
    16      0.300935  1 S  px                21      0.252545  1 S  pz         
    15      0.197299  1 S  pz                20      0.165079  1 S  py         
    19      0.162556  1 S  px                12     -0.143102  1 S  pz         
    14      0.128967  1 S  py                13      0.126995  1 S  px         
 
 Vector   10  Occ=0.000000D+00  E= 2.026705D-02
              MO Center=  1.5D-13, -2.4D-14,  7.2D-15, r^2= 8.5D+00
   Bfn.  Coefficient  Atom+Function         Bfn.  Coefficient  Atom+Function  
  ----- ------------  ---------------      ----- ------------  ---------------
    22      1.656933  1 S  s                  5     -0.349812  1 S  s          
    38     -0.254049  1 S  dxx               41     -0.254001  1 S  dyy        
    43     -0.253948  1 S  dzz                6     -0.232645  1 S  s          
     4      0.113842  1 S  s                 37     -0.069648  1 S  dzz        
    35     -0.068940  1 S  dyy               32     -0.068289  1 S  dxx        
 
 Vector   11  Occ=0.000000D+00  E= 5.360729D-02
              MO Center= -2.3D-14, -3.2D-14,  3.1D-14, r^2= 1.2D+01
   Bfn.  Coefficient  Atom+Function         Bfn.  Coefficient  Atom+Function  
  ----- ------------  ---------------      ----- ------------  ---------------
    25      1.150583  1 S  pz                24     -0.980139  1 S  py         
    23     -0.791987  1 S  px                21     -0.648204  1 S  pz         
    20      0.552176  1 S  py                19      0.446178  1 S  px         
    15     -0.109744  1 S  pz                14      0.093486  1 S  py         
    13      0.075540  1 S  px                18      0.071719  1 S  pz         
 
 Vector   12  Occ=0.000000D+00  E= 6.139225D-02
              MO Center= -1.2D-13,  5.3D-14, -4.9D-14, r^2= 1.2D+01
   Bfn.  Coefficient  Atom+Function         Bfn.  Coefficient  Atom+Function  
  ----- ------------  ---------------      ----- ------------  ---------------
    23      1.523456  1 S  px                19     -0.879631  1 S  px         
    24     -0.605562  1 S  py                25      0.532798  1 S  pz         
    20      0.349646  1 S  py                21     -0.307636  1 S  pz         
    13     -0.149858  1 S  px                16      0.097699  1 S  px         
    44     -0.096167  1 S  fxxx              49     -0.096252  1 S  fxzz       
 
 Vector   13  Occ=0.000000D+00  E= 6.139400D-02
              MO Center= -4.3D-15, -7.5D-15,  5.4D-15, r^2= 1.2D+01
   Bfn.  Coefficient  Atom+Function         Bfn.  Coefficient  Atom+Function  
  ----- ------------  ---------------      ----- ------------  ---------------
    24      1.274511  1 S  py                25      1.156123  1 S  pz         
    20     -0.735881  1 S  py                21     -0.667532  1 S  pz         
    14     -0.125369  1 S  py                15     -0.113724  1 S  pz         
    23      0.102281  1 S  px                17      0.081720  1 S  py         
    45     -0.080600  1 S  fxxy              50     -0.080854  1 S  fyyy       
 
 Vector   14  Occ=0.000000D+00  E= 2.209708D-01
              MO Center= -1.8D-15,  3.1D-15,  9.1D-16, r^2= 2.6D+00
   Bfn.  Coefficient  Atom+Function         Bfn.  Coefficient  Atom+Function  
  ----- ------------  ---------------      ----- ------------  ---------------
    40      0.798340  1 S  dxz               42     -0.639875  1 S  dyz        
    41      0.561297  1 S  dyy               38     -0.539034  1 S  dxx        
    39     -0.213544  1 S  dxy               34      0.186176  1 S  dxz        
    36     -0.149222  1 S  dyz               35      0.130897  1 S  dyy        
    32     -0.125705  1 S  dxx               28      0.062070  1 S  dxz        
 
 Vector   15  Occ=0.000000D+00  E= 2.209708D-01
              MO Center= -6.5D-15, -7.6D-15, -8.4D-15, r^2= 2.6D+00
   Bfn.  Coefficient  Atom+Function         Bfn.  Coefficient  Atom+Function  
  ----- ------------  ---------------      ----- ------------  ---------------
    43     -0.755581  1 S  dzz               39      0.745680  1 S  dxy        
    41      0.440978  1 S  dyy               38      0.314601  1 S  dxx        
    37     -0.176205  1 S  dzz               33      0.173896  1 S  dxy        
    42      0.126106  1 S  dyz               35      0.102838  1 S  dyy        
    32      0.073366  1 S  dxx               40      0.063139  1 S  dxz        
 
 Vector   16  Occ=0.000000D+00  E= 2.221276D-01
              MO Center= -3.3D-15, -3.2D-15, -3.9D-16, r^2= 2.6D+00
   Bfn.  Coefficient  Atom+Function         Bfn.  Coefficient  Atom+Function  
  ----- ------------  ---------------      ----- ------------  ---------------
    42      1.018485  1 S  dyz               40      0.822976  1 S  dxz        
    39     -0.701127  1 S  dxy               36      0.236776  1 S  dyz        
    34      0.191324  1 S  dxz               38      0.182042  1 S  dxx        
    33     -0.162997  1 S  dxy               43     -0.132430  1 S  dzz        
    30      0.079296  1 S  dyz               28      0.064074  1 S  dxz        
 
 Vector   17  Occ=0.000000D+00  E= 2.326332D-01
              MO Center= -7.3D-15, -8.6D-15, -1.2D-14, r^2= 2.6D+00
   Bfn.  Coefficient  Atom+Function         Bfn.  Coefficient  Atom+Function  
  ----- ------------  ---------------      ----- ------------  ---------------
    39      1.045314  1 S  dxy               40      0.859772  1 S  dxz        
    43      0.358498  1 S  dzz               41     -0.336135  1 S  dyy        
    33      0.230780  1 S  dxy               34      0.189816  1 S  dxz        
    42      0.146860  1 S  dyz               27      0.080449  1 S  dxy        
    37      0.079147  1 S  dzz               35     -0.074211  1 S  dyy        
 
 Vector   18  Occ=0.000000D+00  E= 2.326332D-01
              MO Center= -8.9D-15, -8.1D-15, -1.3D-14, r^2= 2.6D+00
   Bfn.  Coefficient  Atom+Function         Bfn.  Coefficient  Atom+Function  
  ----- ------------  ---------------      ----- ------------  ---------------
    42      0.912486  1 S  dyz               38     -0.599335  1 S  dxx        
    40     -0.510876  1 S  dxz               41      0.386480  1 S  dyy        
    39      0.368910  1 S  dxy               43      0.212855  1 S  dzz        
    36      0.201454  1 S  dyz               32     -0.132319  1 S  dxx        
    34     -0.112789  1 S  dxz               35      0.085325  1 S  dyy        
 
 Vector   19  Occ=0.000000D+00  E= 3.058574D-01
              MO Center= -3.8D-15, -4.9D-15,  2.2D-14, r^2= 8.3D+00
   Bfn.  Coefficient  Atom+Function         Bfn.  Coefficient  Atom+Function  
  ----- ------------  ---------------      ----- ------------  ---------------
    21      2.034056  1 S  pz                20     -1.732667  1 S  py         
    18     -1.398579  1 S  pz                19     -1.400055  1 S  px         
    25     -1.287696  1 S  pz                17      1.191344  1 S  py         
    24      1.096899  1 S  py                16      0.962647  1 S  px         
    23      0.886333  1 S  px                46      0.329141  1 S  fxxz       
 
 Vector   20  Occ=0.000000D+00  E= 3.109821D-01
              MO Center=  1.4D-14,  1.1D-15,  1.8D-14, r^2= 8.2D+00
   Bfn.  Coefficient  Atom+Function         Bfn.  Coefficient  Atom+Function  
  ----- ------------  ---------------      ----- ------------  ---------------
    19      2.665908  1 S  px                16     -1.867984  1 S  px         
    23     -1.680939  1 S  px                21      1.084784  1 S  pz         
    20     -0.880666  1 S  py                18     -0.760103  1 S  pz         
    25     -0.683989  1 S  pz                17      0.617079  1 S  py         
    24      0.555287  1 S  py                44      0.441298  1 S  fxxx       
 
 Vector   21  Occ=0.000000D+00  E= 3.109836D-01
              MO Center=  7.1D-15,  9.7D-14,  8.0D-14, r^2= 8.2D+00
   Bfn.  Coefficient  Atom+Function         Bfn.  Coefficient  Atom+Function  
  ----- ------------  ---------------      ----- ------------  ---------------
    20      2.301085  1 S  py                21      1.939991  1 S  pz         
    17     -1.612347  1 S  py                24     -1.450912  1 S  py         
    18     -1.359337  1 S  pz                25     -1.223228  1 S  pz         
    52      0.383120  1 S  fyzz              45      0.380941  1 S  fxxy       
    50      0.380292  1 S  fyyy              51      0.324762  1 S  fyyz       
 
 Vector   22  Occ=0.000000D+00  E= 3.422275D-01
              MO Center= -3.0D-15, -6.1D-14, -8.1D-14, r^2= 6.5D+00
   Bfn.  Coefficient  Atom+Function         Bfn.  Coefficient  Atom+Function  
  ----- ------------  ---------------      ----- ------------  ---------------
     6      2.694550  1 S  s                 22      1.747147  1 S  s          
    38     -1.741979  1 S  dxx               41     -1.743674  1 S  dyy        
    43     -1.745518  1 S  dzz               32     -0.359634  1 S  dxx        
    35     -0.359177  1 S  dyy               37     -0.358679  1 S  dzz        
     4     -0.310231  1 S  s                  5     -0.192550  1 S  s          
 
 Vector   23  Occ=0.000000D+00  E= 9.659680D-01
              MO Center=  2.7D-16, -4.6D-16,  1.7D-15, r^2= 1.5D+00
   Bfn.  Coefficient  Atom+Function         Bfn.  Coefficient  Atom+Function  
  ----- ------------  ---------------      ----- ------------  ---------------
    34      0.901706  1 S  dxz               36     -0.720741  1 S  dyz        
    35      0.638399  1 S  dyy               40     -0.625863  1 S  dxz        
    32     -0.604832  1 S  dxx               42      0.500257  1 S  dyz        
    41     -0.443105  1 S  dyy               38      0.419806  1 S  dxx        
    33     -0.232676  1 S  dxy               39      0.161498  1 S  dxy        
 
 Vector   24  Occ=0.000000D+00  E= 9.659680D-01
              MO Center=  2.4D-15,  2.7D-15,  3.9D-15, r^2= 1.5D+00
   Bfn.  Coefficient  Atom+Function         Bfn.  Coefficient  Atom+Function  
  ----- ------------  ---------------      ----- ------------  ---------------
    37     -0.852491  1 S  dzz               33      0.843945  1 S  dxy        
    43      0.591703  1 S  dzz               39     -0.585771  1 S  dxy        
    35      0.491413  1 S  dyy               32      0.361078  1 S  dxx        
    41     -0.341083  1 S  dyy               38     -0.250620  1 S  dxx        
    31     -0.150880  1 S  dzz               27      0.149367  1 S  dxy        
 
 Vector   25  Occ=0.000000D+00  E= 9.677905D-01
              MO Center=  5.3D-16,  9.5D-16,  2.1D-15, r^2= 1.5D+00
   Bfn.  Coefficient  Atom+Function         Bfn.  Coefficient  Atom+Function  
  ----- ------------  ---------------      ----- ------------  ---------------
    36      1.149750  1 S  dyz               34      0.929035  1 S  dxz        
    42     -0.797612  1 S  dyz               33     -0.791495  1 S  dxy        
    40     -0.644496  1 S  dxz               39      0.549081  1 S  dxy        
    30      0.202853  1 S  dyz               37     -0.181122  1 S  dzz        
    32      0.173874  1 S  dxx               28      0.163912  1 S  dxz        
 
 Vector   26  Occ=0.000000D+00  E= 9.714195D-01
              MO Center=  5.3D-16,  2.0D-15,  2.4D-15, r^2= 1.4D+00
   Bfn.  Coefficient  Atom+Function         Bfn.  Coefficient  Atom+Function  
  ----- ------------  ---------------      ----- ------------  ---------------
    33      1.242741  1 S  dxy               39     -0.852092  1 S  dxy        
    34      0.713483  1 S  dxz               36      0.500843  1 S  dyz        
    40     -0.489204  1 S  dxz               37      0.458933  1 S  dzz        
    42     -0.343406  1 S  dyz               43     -0.314670  1 S  dzz        
    32     -0.250781  1 S  dxx               27      0.223016  1 S  dxy        
 
 Vector   27  Occ=0.000000D+00  E= 9.714195D-01
              MO Center=  2.0D-15, -8.6D-16,  1.1D-15, r^2= 1.4D+00
   Bfn.  Coefficient  Atom+Function         Bfn.  Coefficient  Atom+Function  
  ----- ------------  ---------------      ----- ------------  ---------------
    36     -0.907085  1 S  dyz               34      0.864930  1 S  dxz        
    32      0.623876  1 S  dxx               42      0.621948  1 S  dyz        
    40     -0.593044  1 S  dxz               35     -0.535189  1 S  dyy        
    38     -0.427764  1 S  dxx               41      0.366955  1 S  dyy        
    30     -0.162781  1 S  dyz               28      0.155216  1 S  dxz        
 
 Vector   28  Occ=0.000000D+00  E= 1.094093D+00
              MO Center= -2.2D-14, -2.6D-14,  2.1D-14, r^2= 3.7D+00
   Bfn.  Coefficient  Atom+Function         Bfn.  Coefficient  Atom+Function  
  ----- ------------  ---------------      ----- ------------  ---------------
    18      4.040543  1 S  pz                17     -3.442256  1 S  py         
    16     -2.781461  1 S  px                46     -1.573406  1 S  fxxz       
    51     -1.574308  1 S  fyyz              53     -1.572903  1 S  fzzz       
    21     -1.509619  1 S  pz                15     -1.358671  1 S  pz         
    45      1.340431  1 S  fxxy              50      1.339724  1 S  fyyy       
 
 Vector   29  Occ=0.000000D+00  E= 1.100662D+00
              MO Center= -4.1D-14,  1.2D-14, -2.0D-14, r^2= 3.6D+00
   Bfn.  Coefficient  Atom+Function         Bfn.  Coefficient  Atom+Function  
  ----- ------------  ---------------      ----- ------------  ---------------
    16      5.275395  1 S  px                44     -2.049621  1 S  fxxx       
    47     -2.050476  1 S  fxyy              49     -2.049611  1 S  fxzz       
    18      2.008535  1 S  pz                19     -1.969627  1 S  px         
    17     -1.905067  1 S  py                13     -1.785117  1 S  px         
    23      0.931272  1 S  px                46     -0.787223  1 S  fxxz       
 
 Vector   30  Occ=0.000000D+00  E= 1.100663D+00
              MO Center= -7.5D-16,  4.3D-14,  3.3D-14, r^2= 3.6D+00
   Bfn.  Coefficient  Atom+Function         Bfn.  Coefficient  Atom+Function  
  ----- ------------  ---------------      ----- ------------  ---------------
    17      4.489201  1 S  py                18      3.914495  1 S  pz         
    45     -1.744020  1 S  fxxy              50     -1.743097  1 S  fyyy       
    52     -1.748233  1 S  fyzz              20     -1.676095  1 S  py         
    51     -1.527168  1 S  fyyz              14     -1.519081  1 S  py         
    46     -1.521048  1 S  fxxz              53     -1.518933  1 S  fzzz       
 
 Vector   31  Occ=0.000000D+00  E= 1.247243D+00
              MO Center=  6.2D-14, -4.1D-14, -5.0D-14, r^2= 3.4D+00
   Bfn.  Coefficient  Atom+Function         Bfn.  Coefficient  Atom+Function  
  ----- ------------  ---------------      ----- ------------  ---------------
     6     10.667480  1 S  s                  5     -3.818905  1 S  s          
    38     -3.199170  1 S  dxx               41     -3.199185  1 S  dyy        
    43     -3.199202  1 S  dzz               32     -1.142729  1 S  dxx        
    35     -1.143749  1 S  dyy               37     -1.144858  1 S  dzz        
    22      1.037816  1 S  s                 26     -0.244996  1 S  dxx        
 
 Vector   32  Occ=0.000000D+00  E= 1.622028D+00
              MO Center= -3.2D-16, -1.4D-15, -2.6D-15, r^2= 1.1D+00
   Bfn.  Coefficient  Atom+Function         Bfn.  Coefficient  Atom+Function  
  ----- ------------  ---------------      ----- ------------  ---------------
    47      1.441276  1 S  fxyy              46      1.129280  1 S  fxxz       
    51      0.997466  1 S  fyyz              45      0.894875  1 S  fxxy       
    53     -0.708916  1 S  fzzz              49     -0.467397  1 S  fxzz       
    48     -0.455344  1 S  fxyz              44     -0.324626  1 S  fxxx       
    52     -0.288228  1 S  fyzz              50     -0.202215  1 S  fyyy       
 
 Vector   33  Occ=0.000000D+00  E= 1.622028D+00
              MO Center= -1.2D-15, -9.4D-16, -2.0D-15, r^2= 1.1D+00
   Bfn.  Coefficient  Atom+Function         Bfn.  Coefficient  Atom+Function  
  ----- ------------  ---------------      ----- ------------  ---------------
    49      1.462353  1 S  fxzz              52     -1.244891  1 S  fyzz       
    45     -0.907224  1 S  fxxy              50      0.717372  1 S  fyyy       
    44     -0.626023  1 S  fxxx              47      0.415717  1 S  fxyy       
    51      0.267454  1 S  fyyz              48     -0.117437  1 S  fxyz       
    53     -0.067351  1 S  fzzz              46     -0.065401  1 S  fxxz       
 
 Vector   34  Occ=0.000000D+00  E= 1.628803D+00
              MO Center= -1.8D-15, -2.2D-15, -3.1D-15, r^2= 1.1D+00
   Bfn.  Coefficient  Atom+Function         Bfn.  Coefficient  Atom+Function  
  ----- ------------  ---------------      ----- ------------  ---------------
    48      2.539877  1 S  fxyz              47      0.902380  1 S  fxyy       
    49      0.733591  1 S  fxzz              45      0.727983  1 S  fxxy       
    44     -0.545323  1 S  fxxx              46     -0.506005  1 S  fxxz       
    52      0.507047  1 S  fyzz              51     -0.430990  1 S  fyyz       
    50     -0.411677  1 S  fyyy              53      0.312332  1 S  fzzz       
 
 Vector   35  Occ=0.000000D+00  E= 1.628803D+00
              MO Center= -2.2D-15, -2.2D-15, -3.4D-15, r^2= 1.1D+00
   Bfn.  Coefficient  Atom+Function         Bfn.  Coefficient  Atom+Function  
  ----- ------------  ---------------      ----- ------------  ---------------
    45      1.337895  1 S  fxxy              46      1.277642  1 S  fxxz       
    51     -1.091596  1 S  fyyz              47     -1.080276  1 S  fxyy       
    52     -0.929526  1 S  fyzz              49      0.880106  1 S  fxzz       
    50     -0.136123  1 S  fyyy              44      0.066724  1 S  fxxx       
    53     -0.062015  1 S  fzzz       
 
 Vector   36  Occ=0.000000D+00  E= 1.632014D+00
              MO Center= -1.0D-15, -1.2D-15, -1.1D-15, r^2= 1.1D+00
   Bfn.  Coefficient  Atom+Function         Bfn.  Coefficient  Atom+Function  
  ----- ------------  ---------------      ----- ------------  ---------------
    48      2.695472  1 S  fxyz              52     -1.074724  1 S  fyzz       
    49     -0.868606  1 S  fxzz              51      0.628023  1 S  fyyz       
    44      0.465295  1 S  fxxx              47     -0.431949  1 S  fxyy       
    50      0.411662  1 S  fyyy              53     -0.272073  1 S  fzzz       
    46      0.049716  1 S  fxxz              18      0.044494  1 S  pz         
 
 Vector   37  Occ=0.000000D+00  E= 1.632016D+00
              MO Center= -1.8D-15, -1.5D-15, -2.4D-15, r^2= 1.1D+00
   Bfn.  Coefficient  Atom+Function         Bfn.  Coefficient  Atom+Function  
  ----- ------------  ---------------      ----- ------------  ---------------
    52      1.394199  1 S  fyzz              49      0.994926  1 S  fxzz       
    46      0.966394  1 S  fxxz              47     -0.922245  1 S  fxyy       
    48      0.884558  1 S  fxyz              45     -0.873328  1 S  fxxy       
    51      0.746699  1 S  fyyz              53     -0.570910  1 S  fzzz       
    50     -0.173473  1 S  fyyy       
 
 Vector   38  Occ=0.000000D+00  E= 1.632016D+00
              MO Center=  9.1D-18, -6.9D-16,  1.7D-16, r^2= 1.1D+00
   Bfn.  Coefficient  Atom+Function         Bfn.  Coefficient  Atom+Function  
  ----- ------------  ---------------      ----- ------------  ---------------
    51      1.602655  1 S  fyyz              46     -1.375516  1 S  fxxz       
    45      1.135390  1 S  fxxy              47     -0.845286  1 S  fxyy       
    49      0.743182  1 S  fxzz              48     -0.528114  1 S  fxyz       
    52     -0.309584  1 S  fyzz              50     -0.275090  1 S  fyyy       
    53     -0.075706  1 S  fzzz              44      0.033875  1 S  fxxx       
 
 Vector   39  Occ=0.000000D+00  E= 2.977057D+00
              MO Center=  5.2D-15, -6.4D-16,  2.6D-15, r^2= 1.7D+00
   Bfn.  Coefficient  Atom+Function         Bfn.  Coefficient  Atom+Function  
  ----- ------------  ---------------      ----- ------------  ---------------
    16      5.238672  1 S  px                44     -3.230966  1 S  fxxx       
    47     -3.230782  1 S  fxyy              49     -3.230560  1 S  fxzz       
    18      2.446568  1 S  pz                46     -1.504152  1 S  fxxz       
    51     -1.510872  1 S  fyyz              53     -1.509780  1 S  fzzz       
    17     -1.361312  1 S  py                19     -1.142627  1 S  px         
 
 Vector   40  Occ=0.000000D+00  E= 2.977057D+00
              MO Center= -1.9D-16,  2.7D-15,  1.7D-15, r^2= 1.7D+00
   Bfn.  Coefficient  Atom+Function         Bfn.  Coefficient  Atom+Function  
  ----- ------------  ---------------      ----- ------------  ---------------
    17      4.667702  1 S  py                18      3.641078  1 S  pz         
    45     -2.878439  1 S  fxxy              50     -2.879596  1 S  fyyy       
    52     -2.876336  1 S  fyzz              46     -2.246090  1 S  fxxz       
    51     -2.240986  1 S  fyyz              53     -2.246913  1 S  fzzz       
    20     -1.018091  1 S  py                21     -0.794170  1 S  pz         
 
 Vector   41  Occ=0.000000D+00  E= 3.017597D+00
              MO Center= -4.7D-15, -6.0D-15,  6.4D-15, r^2= 1.7D+00
   Bfn.  Coefficient  Atom+Function         Bfn.  Coefficient  Atom+Function  
  ----- ------------  ---------------      ----- ------------  ---------------
    18      3.986831  1 S  pz                17     -3.396617  1 S  py         
    16     -2.744571  1 S  px                46     -2.462833  1 S  fxxz       
    51     -2.468764  1 S  fyyz              53     -2.459523  1 S  fzzz       
    52      2.108785  1 S  fyzz              45      2.098233  1 S  fxxy       
    50      2.093580  1 S  fyyy              47      1.699520  1 S  fxyy       
 
 Vector   42  Occ=0.000000D+00  E= 3.768312D+00
              MO Center= -4.7D-16,  5.7D-15, -1.2D-14, r^2= 1.4D+00
   Bfn.  Coefficient  Atom+Function         Bfn.  Coefficient  Atom+Function  
  ----- ------------  ---------------      ----- ------------  ---------------
     5      8.545134  1 S  s                  6      6.685357  1 S  s          
    32     -4.644797  1 S  dxx               35     -4.640998  1 S  dyy        
    37     -4.636865  1 S  dzz                4     -2.149027  1 S  s          
    38     -1.877050  1 S  dxx               41     -1.878472  1 S  dyy        
    43     -1.880019  1 S  dzz                3     -1.123954  1 S  s          
 
 Vector   43  Occ=0.000000D+00  E= 4.524110D+00
              MO Center= -9.0D-17, -1.0D-15, -1.1D-15, r^2= 4.5D-01
   Bfn.  Coefficient  Atom+Function         Bfn.  Coefficient  Atom+Function  
  ----- ------------  ---------------      ----- ------------  ---------------
    27      1.405520  1 S  dxy               33     -0.987065  1 S  dxy        
    28      0.700667  1 S  dxz               30      0.678764  1 S  dyz        
    31      0.530312  1 S  dzz               34     -0.492063  1 S  dxz        
    36     -0.476681  1 S  dyz               37     -0.372426  1 S  dzz        
    26     -0.360815  1 S  dxx               39      0.319877  1 S  dxy        
 
 Vector   44  Occ=0.000000D+00  E= 4.524110D+00
              MO Center= -2.8D-16,  1.5D-17, -4.9D-16, r^2= 4.5D-01
   Bfn.  Coefficient  Atom+Function         Bfn.  Coefficient  Atom+Function  
  ----- ------------  ---------------      ----- ------------  ---------------
    28      1.066897  1 S  dxz               30     -0.964709  1 S  dyz        
    34     -0.749258  1 S  dxz               26      0.675069  1 S  dxx        
    36      0.677493  1 S  dyz               29     -0.631354  1 S  dyy        
    32     -0.474086  1 S  dxx               35      0.443386  1 S  dyy        
    40      0.242811  1 S  dxz               42     -0.219554  1 S  dyz        
 
 Vector   45  Occ=0.000000D+00  E= 4.542389D+00
              MO Center= -5.8D-16,  5.6D-17,  2.5D-16, r^2= 4.5D-01
   Bfn.  Coefficient  Atom+Function         Bfn.  Coefficient  Atom+Function  
  ----- ------------  ---------------      ----- ------------  ---------------
    28      1.029556  1 S  dxz               30     -0.803557  1 S  dyz        
    29      0.772388  1 S  dyy               34     -0.721036  1 S  dxz        
    26     -0.651435  1 S  dxx               36      0.562761  1 S  dyz        
    35     -0.540932  1 S  dyy               32      0.456224  1 S  dxx        
    40      0.234113  1 S  dxz               27     -0.182087  1 S  dxy        
 
 Vector   46  Occ=0.000000D+00  E= 4.542389D+00
              MO Center= -1.6D-16, -2.8D-16, -5.5D-16, r^2= 4.5D-01
   Bfn.  Coefficient  Atom+Function         Bfn.  Coefficient  Atom+Function  
  ----- ------------  ---------------      ----- ------------  ---------------
    27      0.980543  1 S  dxy               31     -0.964375  1 S  dzz        
    33     -0.686711  1 S  dxy               37      0.675387  1 S  dzz        
    29      0.495743  1 S  dyy               26      0.468632  1 S  dxx        
    35     -0.347187  1 S  dyy               32     -0.328200  1 S  dxx        
    30      0.239719  1 S  dyz               39      0.222968  1 S  dxy        
 
 Vector   47  Occ=0.000000D+00  E= 4.551363D+00
              MO Center= -3.4D-16, -6.6D-16, -2.6D-18, r^2= 4.5D-01
   Bfn.  Coefficient  Atom+Function         Bfn.  Coefficient  Atom+Function  
  ----- ------------  ---------------      ----- ------------  ---------------
    30      1.309045  1 S  dyz               28      1.057749  1 S  dxz        
    36     -0.916152  1 S  dyz               27     -0.901157  1 S  dxy        
    34     -0.740280  1 S  dxz               33      0.630687  1 S  dxy        
    42      0.297089  1 S  dyz               37      0.260234  1 S  dzz        
    40      0.240057  1 S  dxz                5     -0.219551  1 S  s          
 
 Vector   48  Occ=0.000000D+00  E= 1.007462D+01
              MO Center= -8.7D-16,  7.7D-16, -7.8D-16, r^2= 6.1D-01
   Bfn.  Coefficient  Atom+Function         Bfn.  Coefficient  Atom+Function  
  ----- ------------  ---------------      ----- ------------  ---------------
     5     19.128156  1 S  s                 32     -6.274388  1 S  dxx        
    35     -6.274611  1 S  dyy               37     -6.274854  1 S  dzz        
    26     -3.376069  1 S  dxx               29     -3.376019  1 S  dyy        
    31     -3.375964  1 S  dzz                3     -1.949341  1 S  s          
     6      1.015509  1 S  s                  4     -0.594821  1 S  s          
 
 Vector   49  Occ=0.000000D+00  E= 1.842618D+01
              MO Center= -7.5D-17, -3.1D-17, -6.2D-17, r^2= 2.2D-01
   Bfn.  Coefficient  Atom+Function         Bfn.  Coefficient  Atom+Function  
  ----- ------------  ---------------      ----- ------------  ---------------
    16      1.641132  1 S  px                10     -1.335595  1 S  px         
    44     -1.138416  1 S  fxxx              47     -1.138418  1 S  fxyy       
    49     -1.138372  1 S  fxzz               7      1.076014  1 S  px         
    18      0.835839  1 S  pz                12     -0.680227  1 S  pz         
    13      0.634393  1 S  px                46     -0.579452  1 S  fxxz       
 
 Vector   50  Occ=0.000000D+00  E= 1.842618D+01
              MO Center=  1.5D-21, -3.2D-17,  5.4D-17, r^2= 2.2D-01
   Bfn.  Coefficient  Atom+Function         Bfn.  Coefficient  Atom+Function  
  ----- ------------  ---------------      ----- ------------  ---------------
    17      1.494473  1 S  py                11     -1.216240  1 S  py         
    18      1.102841  1 S  pz                45     -1.036638  1 S  fxxy       
    50     -1.036741  1 S  fyyy              52     -1.036513  1 S  fyzz       
     8      0.979856  1 S  py                12     -0.897520  1 S  pz         
    46     -0.765069  1 S  fxxz              51     -0.764664  1 S  fyyz       
 
 Vector   51  Occ=0.000000D+00  E= 1.843819D+01
              MO Center=  8.8D-17,  1.3D-16, -1.5D-16, r^2= 2.2D-01
   Bfn.  Coefficient  Atom+Function         Bfn.  Coefficient  Atom+Function  
  ----- ------------  ---------------      ----- ------------  ---------------
    18      1.266868  1 S  pz                17     -1.079318  1 S  py         
    12     -1.028643  1 S  pz                11      0.876361  1 S  py         
    46     -0.878775  1 S  fxxz              51     -0.879048  1 S  fyyz       
    53     -0.878623  1 S  fzzz              16     -0.872123  1 S  px         
     9      0.828096  1 S  pz                45      0.748679  1 S  fxxy       
 
 Vector   52  Occ=0.000000D+00  E= 2.483741D+01
              MO Center= -4.3D-17,  1.5D-16,  2.4D-17, r^2= 2.6D-01
   Bfn.  Coefficient  Atom+Function         Bfn.  Coefficient  Atom+Function  
  ----- ------------  ---------------      ----- ------------  ---------------
     5     16.170454  1 S  s                  4     15.757699  1 S  s          
     3    -12.053629  1 S  s                 26     -6.813736  1 S  dxx        
    29     -6.813747  1 S  dyy               31     -6.813759  1 S  dzz        
    32     -4.812997  1 S  dxx               35     -4.812952  1 S  dyy        
    37     -4.812904  1 S  dzz                2      0.664040  1 S  s          
 
 Vector   53  Occ=0.000000D+00  E= 2.191120D+02
              MO Center=  2.1D-18,  2.7D-18,  3.3D-18, r^2= 3.2D-02
   Bfn.  Coefficient  Atom+Function         Bfn.  Coefficient  Atom+Function  
  ----- ------------  ---------------      ----- ------------  ---------------
     4      7.655581  1 S  s                  3     -6.329840  1 S  s          
     5      5.373818  1 S  s                 26     -2.767101  1 S  dxx        
    29     -2.767101  1 S  dyy               31     -2.767102  1 S  dzz        
     2      2.291594  1 S  s                  1     -1.625382  1 S  s          
    32     -1.613241  1 S  dxx               35     -1.613238  1 S  dyy        
 

   alpha - beta orbital overlaps 
   ----------------------------- 


   alpha      1      2      3      4      5      6      7      8      9     10
    beta      1      2      3      4      5      6      8      9      7     10
 overlap   1.000  1.000  1.000  1.000  1.000  0.998  0.977  0.977  1.000  0.999


   alpha     11     12     13     14     15     16     17     18     19     20
    beta     13     12     11     18     17     15     14     16     21     20
 overlap   0.931  0.931  1.000  0.961  0.961  0.999  0.999  0.998  0.949  0.949


   alpha     21     22     23     24     25     26     27     28     29     30
    beta     19     22     27     26     24     23     25     30     29     28
 overlap   1.000  0.999  0.996  0.996  0.999  0.999  0.998  0.940  0.940  1.000


   alpha     31     32     33     34     35     36     37     38     39     40
    beta     31     35     34     33     32     38     37     36     40     39
 overlap   0.999  0.931  0.931  0.992  0.992  0.996  0.996  1.000  0.973  0.973


   alpha     41     42     43     44     45     46     47     48     49     50
    beta     41     42     44     43     46     45     47     48     50     49
 overlap   1.000  1.000  0.999  0.999  0.999  0.999  1.000  1.000  0.985  0.985


   alpha     51     52     53
    beta     51     52     53
 overlap   1.000  1.000  1.000

     --------------------------
     Expectation value of S2:  
     --------------------------
      <S2> =      2.0051 (Exact =     2.0000)
 

 Parallel integral file used      16 records with       0 large values


 Task  times  cpu:        1.1s     wall:        1.7s
 
 
                                NWChem Input Module
                                -------------------
 
 
 Summary of allocated global arrays
-----------------------------------
  No active global arrays



                         GA Statistics for process    0
                         ------------------------------

       create   destroy   get      put      acc     scatter   gather  read&inc
calls:  221      221      889      752      162        0        0       63     
number of processes/call 1.54e+00 1.27e+00 3.70e+00 0.00e+00 0.00e+00
bytes total:             1.04e+07 3.88e+06 3.64e+06 0.00e+00 0.00e+00 5.04e+02
bytes remote:            7.72e+05 1.23e+05 8.70e+05 0.00e+00 0.00e+00 0.00e+00
Max memory consumed for GA by this process: 1460680 bytes
 
MA_summarize_allocated_blocks: starting scan ...
MA_summarize_allocated_blocks: scan completed: 0 heap blocks, 0 stack blocks
MA usage statistics:

	allocation statistics:
					      heap	     stack
					      ----	     -----
	current number of blocks	         0	         0
	maximum number of blocks	        21	        53
	current total bytes		         0	         0
	maximum total bytes		   2415136	  22513064
	maximum total K-bytes		      2416	     22514
	maximum total M-bytes		         3	        23
 
 
                                     CITATION
                                     --------
                Please cite the following reference when publishing
                           results obtained with NWChem:
 
                 M. Valiev, E.J. Bylaska, N. Govind, K. Kowalski,
              T.P. Straatsma, H.J.J. van Dam, D. Wang, J. Nieplocha,
                        E. Apra, T.L. Windus, W.A. de Jong
                 "NWChem: a comprehensive and scalable open-source
                  solution for large scale molecular simulations"
                      Comput. Phys. Commun. 181, 1477 (2010)
                           doi:10.1016/j.cpc.2010.04.018
 
                                      AUTHORS
                                      -------
          E. Apra, E. J. Bylaska, W. A. de Jong, N. Govind, K. Kowalski,
       T. P. Straatsma, M. Valiev, H. J. J. van Dam, D. Wang, T. L. Windus,
        J. Hammond, J. Autschbach, K. Bhaskaran-Nair, J. Brabec, K. Lopata,
    S. A. Fischer, S. Krishnamoorthy, M. Jacquelin, W. Ma, M. Klemm, O. Villa,
      Y. Chen, V. Anisimov, F. Aquino, S. Hirata, M. T. Hackler, V. Konjkov,
            D. Mejia-Rodriguez, T. Risthaus, M. Malagoli, A. Marenich,
   A. Otero-de-la-Roza, J. Mullin, P. Nichols, R. Peverati, J. Pittner, Y. Zhao,
        P.-D. Fan, A. Fonari, M. J. Williamson, R. J. Harrison, J. R. Rehr,
      M. Dupuis, D. Silverstein, D. M. A. Smith, J. Nieplocha, V. Tipparaju,
    M. Krishnan, B. E. Van Kuiken, A. Vazquez-Mayagoitia, L. Jensen, M. Swart,
      Q. Wu, T. Van Voorhis, A. A. Auer, M. Nooijen, L. D. Crosby, E. Brown,
      G. Cisneros, G. I. Fann, H. Fruchtl, J. Garza, K. Hirao, R. A. Kendall,
      J. A. Nichols, K. Tsemekhman, K. Wolinski, J. Anchell, D. E. Bernholdt,
      P. Borowski, T. Clark, D. Clerc, H. Dachsel, M. J. O. Deegan, K. Dyall,
    D. Elwood, E. Glendening, M. Gutowski, A. C. Hess, J. Jaffe, B. G. Johnson,
     J. Ju, R. Kobayashi, R. Kutteh, Z. Lin, R. Littlefield, X. Long, B. Meng,
      T. Nakajima, S. Niu, L. Pollack, M. Rosing, K. Glaesemann, G. Sandrone,
      M. Stave, H. Taylor, G. Thomas, J. H. van Lenthe, A. T. Wong, Z. Zhang.

 Total times  cpu:        1.2s     wall:        1.9s
