  NWChem w/ OpenMP: maximum threads =  1
                                         
                                         
 
 
              Northwest Computational Chemistry Package (NWChem) 6.8
              ------------------------------------------------------
 
 
                    Environmental Molecular Sciences Laboratory
                       Pacific Northwest National Laboratory
                                Richland, WA 99352
 
                              Copyright (c) 1994-2018
                       Pacific Northwest National Laboratory
                            Battelle Memorial Institute
 
             NWChem is an open-source computational chemistry package
                        distributed under the terms of the
                      Educational Community License (ECL) 2.0
             A copy of the license is included with this distribution
                              in the LICENSE.TXT file
 
                                  ACKNOWLEDGMENT
                                  --------------

            This software and its documentation were developed at the
            EMSL at Pacific Northwest National Laboratory, a multiprogram
            national laboratory, operated for the U.S. Department of Energy
            by Battelle under Contract Number DE-AC05-76RL01830. Support
            for this work was provided by the Department of Energy Office
            of Biological and Environmental Research, Office of Basic
            Energy Sciences, and the Office of Advanced Scientific Computing.


           Job information
           ---------------

    hostname        = r8n4.niserhpc.org
    program         = /home/rabeet/nwchem-6.8/bin/LINUX64/nwchem
    date            = Mon Jul  1 11:14:18 2019

    compiled        = Fri_Jun_28_18:24:12_2019
    source          = /home/rabeet/nwchem-6.8
    nwchem branch   = Development
    nwchem revision = N/A
    ga revision     = 5.6.5
    use scalapack   = T
    input           = nwchem.nw
    prefix          = Si.
    data base       = ./Si.db
    status          = startup
    nproc           =       16
    time left       =     -1s



           Memory information
           ------------------

    heap     =   13107196 doubles =    100.0 Mbytes
    stack    =   13107201 doubles =    100.0 Mbytes
    global   =   26214400 doubles =    200.0 Mbytes (distinct from heap & stack)
    total    =   52428797 doubles =    400.0 Mbytes
    verify   = yes
    hardfail = no 


           Directory information
           ---------------------
 
  0 permanent = .
  0 scratch   = .
 
 
 
 
                                NWChem Input Module
                                -------------------
 
 

 Scaling coordinates for geometry "geometry" by  1.889725989
 (inverse scale =  0.529177249)

 
 
                             Geometry "geometry" -> ""
                             -------------------------
 
 Output coordinates in angstroms (scale by  1.889725989 to convert to a.u.)
 
  No.       Tag          Charge          X              Y              Z
 ---- ---------------- ---------- -------------- -------------- --------------
    1 Si                  14.0000     0.00000000     0.00000000     0.00000000
 
      Atomic Mass 
      ----------- 
 
      Si                27.976930
 

 Effective nuclear repulsion energy (a.u.)       0.0000000000

            Nuclear Dipole moment (a.u.) 
            ----------------------------
        X                 Y               Z
 ---------------- ---------------- ----------------
     0.0000000000     0.0000000000     0.0000000000
 
 
            XYZ format geometry
            -------------------
     1
 geometry
 Si                    0.00000000     0.00000000     0.00000000
 


 Summary of "ao basis" -> "" (cartesian)
 ------------------------------------------------------------------------------
       Tag                 Description            Shells   Functions and Types
 ---------------- ------------------------------  ------  ---------------------
 *                     6-311++G(3df,3pd)              on all atoms 


 
                                 NWChem DFT Module
                                 -----------------
 
 
                      Basis "ao basis" -> "ao basis" (cartesian)
                      -----
  Si (Silicon)
  ------------
            Exponent  Coefficients 
       -------------- ---------------------------------------------------------
  1 S  6.93792300E+04  0.000757
  1 S  1.03549400E+04  0.005932
  1 S  2.33387960E+03  0.031088
  1 S  6.57142950E+02  0.124967
  1 S  2.14301130E+02  0.386897
  1 S  7.76291680E+01  0.554888
 
  2 S  7.76291680E+01  0.177881
  2 S  3.06308070E+01  0.627765
  2 S  1.28012950E+01  0.247623
 
  3 S  3.92686600E+00  1.000000
 
  4 S  1.45234300E+00  1.000000
 
  5 S  2.56234000E-01  1.000000
 
  6 S  9.42790000E-02  1.000000
 
  7 P  3.35483190E+02  0.008866
  7 P  7.89003660E+01  0.068299
  7 P  2.49881500E+01  0.290958
  7 P  9.21971100E+00  0.732117
 
  8 P  3.62114000E+00  0.619879
  8 P  1.45131000E+00  0.439148
 
  9 P  5.04977000E-01  1.000000
 
 10 P  1.86317000E-01  1.000000
 
 11 P  6.54320000E-02  1.000000
 
 12 S  3.31000000E-02  1.000000
 
 13 P  3.31000000E-02  1.000000
 
 14 D  1.80000000E+00  1.000000
 
 15 D  4.50000000E-01  1.000000
 
 16 D  1.12500000E-01  1.000000
 
 17 F  3.20000000E-01  1.000000
 


 Summary of "ao basis" -> "ao basis" (cartesian)
 ------------------------------------------------------------------------------
       Tag                 Description            Shells   Functions and Types
 ---------------- ------------------------------  ------  ---------------------
 Si                    6-311++G(3df,3pd)            17       53   7s6p3d1f




 Summary of "ao basis" -> "ao basis" (cartesian)
 ------------------------------------------------------------------------------
       Tag                 Description            Shells   Functions and Types
 ---------------- ------------------------------  ------  ---------------------
 Si                    6-311++G(3df,3pd)            17       53   7s6p3d1f


  Caching 1-el integrals 
 
            General Information
            -------------------
          SCF calculation type: DFT
          Wavefunction type:  spin polarized.
          No. of atoms     :     1
          No. of electrons :    14
           Alpha electrons :     8
            Beta electrons :     6
          Charge           :     0
          Spin multiplicity:     3
          Use of symmetry is: off; symmetry adaption is: off
          Maximum number of iterations: ***
          AO basis - number of functions:    53
                     number of shells:    17
          Convergence on energy requested:  1.00D-06
          Convergence on density requested:  1.00D-05
          Convergence on gradient requested:  5.00D-04
 
              XC Information
              --------------
                  TPSS metaGGA Exchange Functional  1.000          
             TPSS03 metaGGA Correlation Functional  1.000          
 
             Grid Information
             ----------------
          Grid used for XC integration:  medium    
          Radial quadrature: Mura-Knowles        
          Angular quadrature: Lebedev. 
          Tag              B.-S. Rad. Rad. Pts. Rad. Cut. Ang. Pts.
          ---              ---------- --------- --------- ---------
          Si                  1.10       88           9.0       590
          Grid pruning is: on 
          Number of quadrature shells:    88
          Spatial weights used:  Erf1
 
          Convergence Information
          -----------------------
          Convergence aids based upon iterative change in 
          total energy or number of iterations. 
          Levelshifting, if invoked, occurs when the 
          HOMO/LUMO gap drops below (HL_TOL):  1.00D-02
          DIIS, if invoked, will attempt to extrapolate 
          using up to (NFOCK): 10 stored Fock matrices.

                    Damping( 0%)  Levelshifting(0.5)       DIIS
                  --------------- ------------------- ---------------
          dE  on:    start            ASAP                start   
          dE off:    2 iters        *** iters           *** iters 

 
      Screening Tolerance Information
      -------------------------------
          Density screening/tol_rho:  1.00D-10
          AO Gaussian exp screening on grid/accAOfunc:  14
          CD Gaussian exp screening on grid/accCDfunc:  20
          XC Gaussian exp screening on grid/accXCfunc:  20
          Schwarz screening/accCoul:  1.00D-08

 
      Superposition of Atomic Density Guess
      -------------------------------------
 
 Sum of atomic energies:        -288.83675415
 
      Non-variational initial energy
      ------------------------------

 Total energy =    -288.618416
 1-e energy   =    -400.505699
 2-e energy   =     111.887283
 HOMO         =      -0.075219
 LUMO         =      -0.075219
 
   Time after variat. SCF:      0.4
   Time prior to 1st pass:      0.4

 #quartets = 1.177D+04 #integrals = 1.640D+05 #direct =  0.0% #cached =100.0%


 Integral file          = ./Si.aoints.00
 Record size in doubles =  65536        No. of integs per rec  =  43688
 Max. records in memory =      4        Max. records in file   = 638549
 No. of bits per label  =      8        No. of bits per value  =     64


File balance: exchanges=     0  moved=     0  time=   0.0


 Grid_pts file          = ./Si.gridpts.00
 Record size in doubles =  12289        No. of grid_pts per rec  =   3070
 Max. records in memory =      3        Max. recs in file   =  58951969


           Memory utilization after 1st SCF pass: 
           Heap Space remaining (MW):       12.81            12805260
          Stack Space remaining (MW):       13.11            13106660

   convergence    iter        energy       DeltaE   RMS-Dens  Diis-err    time
 ---------------- ----- ----------------- --------- --------- ---------  ------
 d= 0,ls=0.0,diis     1   -289.3638252356 -2.89D+02  7.35D-03  1.13D-01     2.0
                                                     2.31D-03  8.87D-02
 d= 0,ls=0.0,diis     2   -289.3891253606 -2.53D-02  3.58D-03  5.73D-03     2.1
                                                     2.97D-03  4.33D-03
 d= 0,ls=0.0,diis     3   -289.3920028802 -2.88D-03  9.56D-04  1.99D-03     2.2
                                                     5.20D-04  1.73D-03
 d= 0,ls=0.0,diis     4   -289.3925143618 -5.11D-04  2.26D-04  1.83D-05     2.3
                                                     8.94D-05  9.77D-06
 d= 0,ls=0.0,diis     5   -289.3925281675 -1.38D-05  3.44D-05  4.52D-07     2.4
                                                     3.96D-05  5.27D-07
 d= 0,ls=0.0,diis     6   -289.3925286359 -4.68D-07  5.45D-06  1.98D-09     2.5
                                                     1.56D-06  2.09D-09


         Total DFT energy =     -289.392528635864
      One electron energy =     -400.664603835153
           Coulomb energy =      132.100137044355
          Exchange energy =      -20.339749990397
       Correlation energy =       -0.488311854668
 Nuclear repulsion energy =        0.000000000000

 Numeric. integr. density =       14.000000000913

     Total iterative time =      2.1s


 
                    DFT Final Alpha Molecular Orbital Analysis
                    ------------------------------------------
 
 Vector    1  Occ=1.000000D+00  E=-6.570866D+01
              MO Center= -1.2D-17, -1.2D-17, -1.3D-17, r^2= 4.7D-03
   Bfn.  Coefficient  Atom+Function         Bfn.  Coefficient  Atom+Function  
  ----- ------------  ---------------      ----- ------------  ---------------
     2      0.645731  1 Si s                  1      0.418145  1 Si s          
     3      0.026896  1 Si s          
 
 Vector    2  Occ=1.000000D+00  E=-5.146637D+00
              MO Center=  2.6D-16, -2.0D-17,  1.5D-15, r^2= 1.1D-01
   Bfn.  Coefficient  Atom+Function         Bfn.  Coefficient  Atom+Function  
  ----- ------------  ---------------      ----- ------------  ---------------
     3      0.549944  1 Si s                  4      0.546538  1 Si s          
     2     -0.305124  1 Si s                  1     -0.116842  1 Si s          
     5      0.104210  1 Si s                  6     -0.081694  1 Si s          
 
 Vector    3  Occ=1.000000D+00  E=-3.526704D+00
              MO Center= -1.0D-15,  1.0D-15, -1.7D-15, r^2= 1.0D-01
   Bfn.  Coefficient  Atom+Function         Bfn.  Coefficient  Atom+Function  
  ----- ------------  ---------------      ----- ------------  ---------------
    12      0.543734  1 Si pz                 9      0.318360  1 Si pz         
    10      0.307926  1 Si px                11     -0.290068  1 Si py         
     7      0.180293  1 Si px                 8     -0.169837  1 Si py         
    15      0.041186  1 Si pz         
 
 Vector    4  Occ=1.000000D+00  E=-3.520533D+00
              MO Center= -5.2D-16, -6.0D-16, -3.4D-16, r^2= 1.0D-01
   Bfn.  Coefficient  Atom+Function         Bfn.  Coefficient  Atom+Function  
  ----- ------------  ---------------      ----- ------------  ---------------
    11      0.559882  1 Si py                10      0.393264  1 Si px         
     8      0.328739  1 Si py                 7      0.230908  1 Si px         
    12      0.075970  1 Si pz                 9      0.044606  1 Si pz         
    14      0.043034  1 Si py                13      0.030227  1 Si px         
 
 Vector    5  Occ=1.000000D+00  E=-3.520533D+00
              MO Center=  2.1D-16,  1.6D-17, -4.5D-16, r^2= 1.0D-01
   Bfn.  Coefficient  Atom+Function         Bfn.  Coefficient  Atom+Function  
  ----- ------------  ---------------      ----- ------------  ---------------
    10      0.473880  1 Si px                12     -0.415836  1 Si pz         
     7      0.278242  1 Si px                11     -0.276431  1 Si py         
     9     -0.244161  1 Si pz                 8     -0.162308  1 Si py         
    13      0.036424  1 Si px                15     -0.031962  1 Si pz         
 
 Vector    6  Occ=1.000000D+00  E=-4.219811D-01
              MO Center= -1.9D-14,  2.6D-14, -2.3D-14, r^2= 1.5D+00
   Bfn.  Coefficient  Atom+Function         Bfn.  Coefficient  Atom+Function  
  ----- ------------  ---------------      ----- ------------  ---------------
     6      0.677682  1 Si s                  5      0.559841  1 Si s          
     4     -0.313258  1 Si s                  3     -0.216041  1 Si s          
     2      0.088637  1 Si s                 43     -0.059523  1 Si dzz        
    38     -0.050952  1 Si dxx               41     -0.050497  1 Si dyy        
     1      0.032080  1 Si s                 22      0.029247  1 Si s          
 
 Vector    7  Occ=1.000000D+00  E=-1.738465D-01
              MO Center= -9.0D-15, -2.2D-15, -1.7D-14, r^2= 2.5D+00
   Bfn.  Coefficient  Atom+Function         Bfn.  Coefficient  Atom+Function  
  ----- ------------  ---------------      ----- ------------  ---------------
    17      0.548768  1 Si py                16      0.324766  1 Si px         
    20      0.265501  1 Si py                14      0.164262  1 Si py         
    19      0.157126  1 Si px                11     -0.144167  1 Si py         
    18      0.108832  1 Si pz                13      0.097212  1 Si px         
    10     -0.085320  1 Si px                 8     -0.083073  1 Si py         
 
 Vector    8  Occ=1.000000D+00  E=-1.738465D-01
              MO Center= -8.2D-15,  5.2D-15, -1.7D-14, r^2= 2.5D+00
   Bfn.  Coefficient  Atom+Function         Bfn.  Coefficient  Atom+Function  
  ----- ------------  ---------------      ----- ------------  ---------------
    16      0.478945  1 Si px                18     -0.382027  1 Si pz         
    19      0.231720  1 Si px                17     -0.207680  1 Si py         
    21     -0.184830  1 Si pz                13      0.143362  1 Si px         
    10     -0.125824  1 Si px                15     -0.114352  1 Si pz         
    12      0.100363  1 Si pz                20     -0.100478  1 Si py         
 
 Vector    9  Occ=0.000000D+00  E=-1.549726D-01
              MO Center=  4.0D-15,  3.1D-15,  1.0D-14, r^2= 2.6D+00
   Bfn.  Coefficient  Atom+Function         Bfn.  Coefficient  Atom+Function  
  ----- ------------  ---------------      ----- ------------  ---------------
    18      0.440025  1 Si pz                21      0.270346  1 Si pz         
    16      0.249194  1 Si px                17     -0.234742  1 Si py         
    15      0.165859  1 Si pz                19      0.153102  1 Si px         
    20     -0.144223  1 Si py                12     -0.131559  1 Si pz         
    13      0.093929  1 Si px                14     -0.088481  1 Si py         
 
 Vector   10  Occ=0.000000D+00  E= 2.132295D-03
              MO Center= -4.4D-14,  8.6D-14, -1.8D-13, r^2= 1.1D+01
   Bfn.  Coefficient  Atom+Function         Bfn.  Coefficient  Atom+Function  
  ----- ------------  ---------------      ----- ------------  ---------------
    22      1.950254  1 Si s                  5     -0.513981  1 Si s          
    38     -0.364334  1 Si dxx               41     -0.364431  1 Si dyy        
    43     -0.362521  1 Si dzz                6     -0.220476  1 Si s          
     4      0.102345  1 Si s                 32     -0.072373  1 Si dxx        
    35     -0.072438  1 Si dyy               37     -0.071151  1 Si dzz        
 
 Vector   11  Occ=0.000000D+00  E= 3.447062D-02
              MO Center= -1.9D-14, -3.0D-14, -6.7D-15, r^2= 1.6D+01
   Bfn.  Coefficient  Atom+Function         Bfn.  Coefficient  Atom+Function  
  ----- ------------  ---------------      ----- ------------  ---------------
    24      1.415175  1 Si py                23      1.217283  1 Si px         
    20     -1.039627  1 Si py                19     -0.894249  1 Si px         
    17      0.740341  1 Si py                16      0.636814  1 Si px         
    45     -0.340108  1 Si fxxy              50     -0.339894  1 Si fyyy       
    52     -0.339599  1 Si fyzz              14     -0.315136  1 Si py         
 
 Vector   12  Occ=0.000000D+00  E= 3.447065D-02
              MO Center= -2.7D-14,  2.5D-14,  2.8D-14, r^2= 1.6D+01
   Bfn.  Coefficient  Atom+Function         Bfn.  Coefficient  Atom+Function  
  ----- ------------  ---------------      ----- ------------  ---------------
    23      1.144592  1 Si px                25     -1.145051  1 Si pz         
    24     -0.931436  1 Si py                19     -0.840849  1 Si px         
    21      0.841186  1 Si pz                20      0.684258  1 Si py         
    16      0.598786  1 Si px                18     -0.599028  1 Si pz         
    17     -0.487275  1 Si py                44     -0.274893  1 Si fxxx       
 
 Vector   13  Occ=0.000000D+00  E= 3.759590D-02
              MO Center=  9.0D-14, -8.6D-14,  1.6D-13, r^2= 1.6D+01
   Bfn.  Coefficient  Atom+Function         Bfn.  Coefficient  Atom+Function  
  ----- ------------  ---------------      ----- ------------  ---------------
    25      1.467431  1 Si pz                21     -1.075851  1 Si pz         
    23      0.830978  1 Si px                24     -0.782828  1 Si py         
    18      0.732646  1 Si pz                19     -0.609233  1 Si px         
    20      0.573932  1 Si py                16      0.414882  1 Si px         
    17     -0.390843  1 Si py                46     -0.343672  1 Si fxxz       
 
 Vector   14  Occ=0.000000D+00  E= 1.163109D-01
              MO Center=  1.3D-16,  1.4D-14,  3.1D-15, r^2= 3.8D+00
   Bfn.  Coefficient  Atom+Function         Bfn.  Coefficient  Atom+Function  
  ----- ------------  ---------------      ----- ------------  ---------------
    40      0.745768  1 Si dxz               41      0.636068  1 Si dyy        
    42      0.585694  1 Si dyz               38     -0.581123  1 Si dxx        
    39      0.164142  1 Si dxy               34      0.149264  1 Si dxz        
    35      0.127307  1 Si dyy               36      0.117225  1 Si dyz        
    32     -0.116310  1 Si dxx               43     -0.054944  1 Si dzz        
 
 Vector   15  Occ=0.000000D+00  E= 1.163109D-01
              MO Center= -1.2D-16, -6.3D-15, -7.9D-15, r^2= 3.8D+00
   Bfn.  Coefficient  Atom+Function         Bfn.  Coefficient  Atom+Function  
  ----- ------------  ---------------      ----- ------------  ---------------
    39      1.250652  1 Si dxy               42     -0.637724  1 Si dyz        
    40      0.415996  1 Si dxz               43     -0.287897  1 Si dzz        
    33      0.250315  1 Si dxy               38      0.221778  1 Si dxx        
    36     -0.127639  1 Si dyz               34      0.083261  1 Si dxz        
    41      0.066120  1 Si dyy               27      0.060009  1 Si dxy        
 
 Vector   16  Occ=0.000000D+00  E= 1.202622D-01
              MO Center=  2.9D-15, -5.1D-15,  8.0D-15, r^2= 3.8D+00
   Bfn.  Coefficient  Atom+Function         Bfn.  Coefficient  Atom+Function  
  ----- ------------  ---------------      ----- ------------  ---------------
    42      0.934301  1 Si dyz               40      0.729110  1 Si dxz        
    41     -0.560096  1 Si dyy               38      0.343411  1 Si dxx        
    39      0.271083  1 Si dxy               43      0.216686  1 Si dzz        
    36      0.180449  1 Si dyz               34      0.140818  1 Si dxz        
    35     -0.108176  1 Si dyy               32      0.066326  1 Si dxx        
 
 Vector   17  Occ=0.000000D+00  E= 1.202622D-01
              MO Center=  1.2D-14, -8.3D-15,  1.1D-14, r^2= 3.8D+00
   Bfn.  Coefficient  Atom+Function         Bfn.  Coefficient  Atom+Function  
  ----- ------------  ---------------      ----- ------------  ---------------
    43      0.724595  1 Si dzz               39      0.706930  1 Si dxy        
    38     -0.520944  1 Si dxx               40     -0.509537  1 Si dxz        
    41     -0.203651  1 Si dyy               37      0.139946  1 Si dzz        
    33      0.136535  1 Si dxy               32     -0.100614  1 Si dxx        
    34     -0.098411  1 Si dxz               35     -0.039333  1 Si dyy        
 
 Vector   18  Occ=0.000000D+00  E= 1.282437D-01
              MO Center=  1.0D-14, -7.7D-15,  1.5D-14, r^2= 3.8D+00
   Bfn.  Coefficient  Atom+Function         Bfn.  Coefficient  Atom+Function  
  ----- ------------  ---------------      ----- ------------  ---------------
    40      0.954951  1 Si dxz               42     -0.899581  1 Si dyz        
    39     -0.509441  1 Si dxy               43      0.381567  1 Si dzz        
    41     -0.221619  1 Si dyy               38     -0.191171  1 Si dxx        
    34      0.181169  1 Si dxz               36     -0.170665  1 Si dyz        
    33     -0.096649  1 Si dxy               37      0.087005  1 Si dzz        
 
 Vector   19  Occ=0.000000D+00  E= 2.380141D-01
              MO Center=  9.4D-14,  1.4D-13,  1.1D-14, r^2= 1.1D+01
   Bfn.  Coefficient  Atom+Function         Bfn.  Coefficient  Atom+Function  
  ----- ------------  ---------------      ----- ------------  ---------------
    17      4.443710  1 Si py                16      3.261794  1 Si px         
    20     -3.196425  1 Si py                19     -2.346255  1 Si px         
    24      1.668288  1 Si py                45     -1.418380  1 Si fxxy       
    50     -1.418653  1 Si fyyy              52     -1.419048  1 Si fyzz       
    23      1.224565  1 Si px                44     -1.041344  1 Si fxxx       
 
 Vector   20  Occ=0.000000D+00  E= 2.380141D-01
              MO Center= -1.3D-12,  7.9D-13,  1.1D-12, r^2= 1.1D+01
   Bfn.  Coefficient  Atom+Function         Bfn.  Coefficient  Atom+Function  
  ----- ------------  ---------------      ----- ------------  ---------------
    16      3.727696  1 Si px                18     -3.359525  1 Si pz         
    19     -2.681385  1 Si px                21      2.416555  1 Si pz         
    17     -2.340462  1 Si py                20      1.683528  1 Si py         
    23      1.399477  1 Si px                25     -1.261256  1 Si pz         
    44     -1.190086  1 Si fxxx              47     -1.190279  1 Si fxyy       
 
 Vector   21  Occ=0.000000D+00  E= 2.393173D-01
              MO Center= -1.0D-10,  9.5D-11, -1.8D-10, r^2= 1.1D+01
   Bfn.  Coefficient  Atom+Function         Bfn.  Coefficient  Atom+Function  
  ----- ------------  ---------------      ----- ------------  ---------------
    18      4.446990  1 Si pz                21     -3.161135  1 Si pz         
    16      2.518286  1 Si px                17     -2.372346  1 Si py         
    19     -1.790118  1 Si px                20      1.686378  1 Si py         
    25      1.651483  1 Si pz                46     -1.424817  1 Si fxxz       
    51     -1.424596  1 Si fyyz              53     -1.424894  1 Si fzzz       
 
 Vector   22  Occ=0.000000D+00  E= 2.393579D-01
              MO Center=  1.0D-10, -9.6D-11,  1.8D-10, r^2= 9.1D+00
   Bfn.  Coefficient  Atom+Function         Bfn.  Coefficient  Atom+Function  
  ----- ------------  ---------------      ----- ------------  ---------------
     6      2.968744  1 Si s                 22      2.244561  1 Si s          
    38     -1.991686  1 Si dxx               41     -1.991359  1 Si dyy        
    43     -1.997836  1 Si dzz                5     -0.619832  1 Si s          
    37     -0.313841  1 Si dzz               32     -0.311170  1 Si dxx        
    35     -0.311028  1 Si dyy                4     -0.300616  1 Si s          
 
 Vector   23  Occ=0.000000D+00  E= 7.173513D-01
              MO Center= -6.3D-14,  1.4D-14, -8.4D-14, r^2= 2.0D+00
   Bfn.  Coefficient  Atom+Function         Bfn.  Coefficient  Atom+Function  
  ----- ------------  ---------------      ----- ------------  ---------------
    36      1.073336  1 Si dyz               34      0.865363  1 Si dxz        
    42     -0.685408  1 Si dyz               35     -0.632102  1 Si dyy        
    40     -0.552601  1 Si dxz               32      0.423006  1 Si dxx        
    41      0.403646  1 Si dyy               33      0.272530  1 Si dxy        
    38     -0.270122  1 Si dxx               37      0.209096  1 Si dzz        
 
 Vector   24  Occ=0.000000D+00  E= 7.173513D-01
              MO Center= -6.6D-14,  5.9D-14, -9.2D-14, r^2= 2.0D+00
   Bfn.  Coefficient  Atom+Function         Bfn.  Coefficient  Atom+Function  
  ----- ------------  ---------------      ----- ------------  ---------------
    37      0.844108  1 Si dzz               33      0.826798  1 Si dxy        
    32     -0.579463  1 Si dxx               34     -0.545194  1 Si dxz        
    43     -0.539029  1 Si dzz               39     -0.527975  1 Si dxy        
    38      0.370031  1 Si dxx               40      0.348149  1 Si dxz        
    35     -0.264646  1 Si dyy               41      0.168996  1 Si dyy        
 
 Vector   25  Occ=0.000000D+00  E= 7.179824D-01
              MO Center= -3.7D-14, -1.3D-14,  1.1D-14, r^2= 2.0D+00
   Bfn.  Coefficient  Atom+Function         Bfn.  Coefficient  Atom+Function  
  ----- ------------  ---------------      ----- ------------  ---------------
    34      0.847301  1 Si dxz               35      0.731867  1 Si dyy        
    36      0.696162  1 Si dyz               32     -0.677642  1 Si dxx        
    40     -0.544823  1 Si dxz               41     -0.470598  1 Si dyy        
    42     -0.447640  1 Si dyz               38      0.435731  1 Si dxx        
    33      0.149562  1 Si dxy               28      0.096658  1 Si dxz        
 
 Vector   26  Occ=0.000000D+00  E= 7.179824D-01
              MO Center= -5.4D-14,  5.4D-14,  5.6D-14, r^2= 2.0D+00
   Bfn.  Coefficient  Atom+Function         Bfn.  Coefficient  Atom+Function  
  ----- ------------  ---------------      ----- ------------  ---------------
    33      1.448391  1 Si dxy               39     -0.931331  1 Si dxy        
    36     -0.717215  1 Si dyz               34      0.503796  1 Si dxz        
    42      0.461177  1 Si dyz               37     -0.333959  1 Si dzz        
    40     -0.323946  1 Si dxz               32      0.237401  1 Si dxx        
    43      0.214739  1 Si dzz               27      0.165229  1 Si dxy        
 
 Vector   27  Occ=0.000000D+00  E= 7.207120D-01
              MO Center= -1.1D-13,  4.8D-14, -1.4D-13, r^2= 2.0D+00
   Bfn.  Coefficient  Atom+Function         Bfn.  Coefficient  Atom+Function  
  ----- ------------  ---------------      ----- ------------  ---------------
    34      1.096088  1 Si dxz               36     -1.032532  1 Si dyz        
    40     -0.697925  1 Si dxz               42      0.657457  1 Si dyz        
    33     -0.584735  1 Si dxy               37      0.471408  1 Si dzz        
    39      0.372326  1 Si dxy               43     -0.246080  1 Si dzz        
    35     -0.220925  1 Si dyy               41      0.194758  1 Si dyy        
 
 Vector   28  Occ=0.000000D+00  E= 7.279590D-01
              MO Center=  4.0D-14, -8.4D-14,  7.1D-14, r^2= 6.2D+00
   Bfn.  Coefficient  Atom+Function         Bfn.  Coefficient  Atom+Function  
  ----- ------------  ---------------      ----- ------------  ---------------
    17     11.130276  1 Si py                16      8.364059  1 Si px         
    45     -4.536380  1 Si fxxy              50     -4.535527  1 Si fyyy       
    52     -4.534301  1 Si fyzz              14     -3.608651  1 Si py         
    44     -3.408253  1 Si fxxx              47     -3.409542  1 Si fxyy       
    49     -3.406961  1 Si fxzz              20     -2.977719  1 Si py         
 
 Vector   29  Occ=0.000000D+00  E= 7.279590D-01
              MO Center=  9.7D-14, -8.2D-14,  5.9D-14, r^2= 6.2D+00
   Bfn.  Coefficient  Atom+Function         Bfn.  Coefficient  Atom+Function  
  ----- ------------  ---------------      ----- ------------  ---------------
    16      9.290515  1 Si px                18     -8.496472  1 Si pz         
    17     -6.064618  1 Si py                44     -3.785773  1 Si fxxx       
    47     -3.785162  1 Si fxyy              49     -3.786381  1 Si fxzz       
    46      3.464140  1 Si fxxz              51      3.463453  1 Si fyyz       
    53      3.461151  1 Si fzzz              13     -3.012165  1 Si px         
 
 Vector   30  Occ=0.000000D+00  E= 7.305297D-01
              MO Center=  3.7D-14,  1.1D-14,  1.3D-14, r^2= 6.2D+00
   Bfn.  Coefficient  Atom+Function         Bfn.  Coefficient  Atom+Function  
  ----- ------------  ---------------      ----- ------------  ---------------
    18     10.970612  1 Si pz                16      6.212604  1 Si px         
    17     -5.852502  1 Si py                46     -4.468623  1 Si fxxz       
    51     -4.466172  1 Si fyyz              53     -4.469480  1 Si fzzz       
    15     -3.564541  1 Si pz                21     -2.927492  1 Si pz         
    49     -2.556675  1 Si fxzz              44     -2.522340  1 Si fxxx       
 
 Vector   31  Occ=0.000000D+00  E= 8.679624D-01
              MO Center=  1.8D-13, -1.9D-15,  1.2D-13, r^2= 4.9D+00
   Bfn.  Coefficient  Atom+Function         Bfn.  Coefficient  Atom+Function  
  ----- ------------  ---------------      ----- ------------  ---------------
     6     12.550131  1 Si s                  5     -5.664053  1 Si s          
    38     -3.741194  1 Si dxx               41     -3.741034  1 Si dyy        
    43     -3.744193  1 Si dzz               22      1.429392  1 Si s          
    32     -0.967189  1 Si dxx               35     -0.967657  1 Si dyy        
    37     -0.958392  1 Si dzz                4      0.202021  1 Si s          
 
 Vector   32  Occ=0.000000D+00  E= 9.160612D-01
              MO Center=  3.3D-15, -4.6D-15,  3.2D-15, r^2= 2.0D+00
   Bfn.  Coefficient  Atom+Function         Bfn.  Coefficient  Atom+Function  
  ----- ------------  ---------------      ----- ------------  ---------------
    49      1.383245  1 Si fxzz              52      1.247949  1 Si fyzz       
    45      0.743272  1 Si fxxy              50     -0.663740  1 Si fyyy       
    44     -0.656850  1 Si fxxx              51      0.602433  1 Si fyyz       
    47      0.587306  1 Si fxyy              46     -0.349457  1 Si fxxz       
    48      0.137732  1 Si fxyz              53     -0.084325  1 Si fzzz       
 
 Vector   33  Occ=0.000000D+00  E= 9.160612D-01
              MO Center=  3.1D-15, -4.7D-15,  4.2D-15, r^2= 2.0D+00
   Bfn.  Coefficient  Atom+Function         Bfn.  Coefficient  Atom+Function  
  ----- ------------  ---------------      ----- ------------  ---------------
    48      1.319543  1 Si fxyz              47     -1.214817  1 Si fxyy       
    45      1.192077  1 Si fxxy              52     -0.900681  1 Si fyzz       
    46      0.885501  1 Si fxxz              51      0.824823  1 Si fyyz       
    53     -0.570108  1 Si fzzz              49      0.555574  1 Si fxzz       
    44      0.219748  1 Si fxxx              50     -0.097133  1 Si fyyy       
 
 Vector   34  Occ=0.000000D+00  E= 9.176077D-01
              MO Center=  3.1D-15, -8.7D-15,  8.2D-15, r^2= 2.0D+00
   Bfn.  Coefficient  Atom+Function         Bfn.  Coefficient  Atom+Function  
  ----- ------------  ---------------      ----- ------------  ---------------
    51      1.756583  1 Si fyyz              49     -1.060948  1 Si fxzz       
    46     -1.016959  1 Si fxxz              47      0.994407  1 Si fxyy       
    52     -0.776830  1 Si fyzz              48     -0.692311  1 Si fxyz       
    45      0.474706  1 Si fxxy              53     -0.269809  1 Si fzzz       
    17      0.119237  1 Si py                16      0.064135  1 Si px         
 
 Vector   35  Occ=0.000000D+00  E= 9.176077D-01
              MO Center=  6.3D-15, -4.6D-15,  7.4D-15, r^2= 2.0D+00
   Bfn.  Coefficient  Atom+Function         Bfn.  Coefficient  Atom+Function  
  ----- ------------  ---------------      ----- ------------  ---------------
    46      1.610962  1 Si fxxz              48     -1.486828  1 Si fxyz       
    45     -0.900589  1 Si fxxy              52      0.803211  1 Si fyzz       
    53     -0.793936  1 Si fzzz              51      0.565452  1 Si fyyz       
    47      0.321431  1 Si fxyy              49     -0.211858  1 Si fxzz       
    16     -0.105599  1 Si px                18      0.080299  1 Si pz         
 
 Vector   36  Occ=0.000000D+00  E= 9.227304D-01
              MO Center=  7.4D-15, -7.4D-15,  1.2D-14, r^2= 2.0D+00
   Bfn.  Coefficient  Atom+Function         Bfn.  Coefficient  Atom+Function  
  ----- ------------  ---------------      ----- ------------  ---------------
    48      2.227506  1 Si fxyz              49     -1.388933  1 Si fxzz       
    52      1.308401  1 Si fyzz              44      0.475621  1 Si fxxx       
    50     -0.471718  1 Si fyyy              51      0.184786  1 Si fyyz       
    18     -0.147353  1 Si pz                47      0.104649  1 Si fxyy       
    16     -0.083450  1 Si px                17      0.078609  1 Si py         
 
 Vector   37  Occ=0.000000D+00  E= 9.235581D-01
              MO Center=  7.3D-16, -1.6D-15, -1.2D-15, r^2= 2.0D+00
   Bfn.  Coefficient  Atom+Function         Bfn.  Coefficient  Atom+Function  
  ----- ------------  ---------------      ----- ------------  ---------------
    47      1.493589  1 Si fxyy              45      1.208198  1 Si fxxy       
    46      1.154220  1 Si fxxz              51     -1.133729  1 Si fyyz       
    52     -0.668565  1 Si fyzz              49     -0.593602  1 Si fxzz       
    44     -0.299996  1 Si fxxx              48      0.225129  1 Si fxyz       
    50     -0.179878  1 Si fyyy       
 
 Vector   38  Occ=0.000000D+00  E= 9.235581D-01
              MO Center=  2.3D-16, -2.3D-15, -1.3D-15, r^2= 2.0D+00
   Bfn.  Coefficient  Atom+Function         Bfn.  Coefficient  Atom+Function  
  ----- ------------  ---------------      ----- ------------  ---------------
    48      2.352611  1 Si fxyz              45     -1.226228  1 Si fxxy       
    47      0.903269  1 Si fxyy              50      0.561859  1 Si fyyy       
    49      0.536298  1 Si fxzz              44     -0.479856  1 Si fxxx       
    52     -0.459349  1 Si fyzz              51      0.387674  1 Si fyyz       
    53     -0.182922  1 Si fzzz              46      0.161093  1 Si fxxz       
 
 Vector   39  Occ=0.000000D+00  E= 1.819779D+00
              MO Center= -1.5D-15,  6.9D-15, -6.5D-15, r^2= 2.9D+00
   Bfn.  Coefficient  Atom+Function         Bfn.  Coefficient  Atom+Function  
  ----- ------------  ---------------      ----- ------------  ---------------
    18     10.508308  1 Si pz                16      5.951064  1 Si px         
    17     -5.605912  1 Si py                46     -5.431317  1 Si fxxz       
    51     -5.432127  1 Si fyyz              53     -5.431034  1 Si fzzz       
    44     -3.078578  1 Si fxxx              47     -3.076321  1 Si fxyy       
    49     -3.067237  1 Si fxzz              45      2.897468  1 Si fxxy       
 
 Vector   40  Occ=0.000000D+00  E= 1.843769D+00
              MO Center=  1.1D-14,  1.3D-14, -3.6D-15, r^2= 2.9D+00
   Bfn.  Coefficient  Atom+Function         Bfn.  Coefficient  Atom+Function  
  ----- ------------  ---------------      ----- ------------  ---------------
    17     10.566541  1 Si py                16      7.942077  1 Si px         
    45     -5.471382  1 Si fxxy              50     -5.465556  1 Si fyyy       
    52     -5.457189  1 Si fyzz              44     -4.107670  1 Si fxxx       
    47     -4.116470  1 Si fxyy              49     -4.098853  1 Si fxzz       
    14     -1.879897  1 Si py                20     -1.778196  1 Si py         
 
 Vector   41  Occ=0.000000D+00  E= 1.843769D+00
              MO Center=  6.1D-15, -5.5D-15, -5.3D-15, r^2= 2.9D+00
   Bfn.  Coefficient  Atom+Function         Bfn.  Coefficient  Atom+Function  
  ----- ------------  ---------------      ----- ------------  ---------------
    16      8.819418  1 Si px                18     -8.066977  1 Si pz         
    17     -5.759162  1 Si py                44     -4.561435  1 Si fxxx       
    47     -4.557265  1 Si fxyy              49     -4.565584  1 Si fxzz       
    46      4.185445  1 Si fxxz              51      4.180758  1 Si fyyz       
    53      4.165042  1 Si fzzz              45      2.971630  1 Si fxxy       
 
 Vector   42  Occ=0.000000D+00  E= 2.730006D+00
              MO Center= -2.9D-14, -1.7D-14,  2.2D-15, r^2= 1.8D+00
   Bfn.  Coefficient  Atom+Function         Bfn.  Coefficient  Atom+Function  
  ----- ------------  ---------------      ----- ------------  ---------------
     5     11.226914  1 Si s                 32     -4.921356  1 Si dxx        
    35     -4.920966  1 Si dyy               37     -4.928687  1 Si dzz        
     6      3.500000  1 Si s                  4     -2.460794  1 Si s          
    38     -1.294181  1 Si dxx               41     -1.294320  1 Si dyy        
    43     -1.291563  1 Si dzz                3     -1.022954  1 Si s          
 
 Vector   43  Occ=0.000000D+00  E= 3.413094D+00
              MO Center=  1.4D-15,  5.9D-15,  6.3D-15, r^2= 5.9D-01
   Bfn.  Coefficient  Atom+Function         Bfn.  Coefficient  Atom+Function  
  ----- ------------  ---------------      ----- ------------  ---------------
    28      1.201320  1 Si dxz               30     -1.131646  1 Si dyz        
    34     -0.778305  1 Si dxz               36      0.733165  1 Si dyz        
    27     -0.640873  1 Si dxy               31      0.501922  1 Si dzz        
    33      0.415205  1 Si dxy               29     -0.256865  1 Si dyy        
    40      0.250213  1 Si dxz               35      0.246221  1 Si dyy        
 
 Vector   44  Occ=0.000000D+00  E= 3.416225D+00
              MO Center= -1.6D-15, -7.2D-15,  2.7D-15, r^2= 5.9D-01
   Bfn.  Coefficient  Atom+Function         Bfn.  Coefficient  Atom+Function  
  ----- ------------  ---------------      ----- ------------  ---------------
    30      1.172563  1 Si dyz               28      0.975950  1 Si dxz        
    36     -0.758765  1 Si dyz               29     -0.678048  1 Si dyy        
    34     -0.631537  1 Si dxz               26      0.493517  1 Si dxx        
    35      0.438764  1 Si dyy               32     -0.319354  1 Si dxx        
    27      0.254899  1 Si dxy               42      0.244267  1 Si dyz        
 
 Vector   45  Occ=0.000000D+00  E= 3.416225D+00
              MO Center= -7.3D-16,  2.7D-16,  1.3D-17, r^2= 5.9D-01
   Bfn.  Coefficient  Atom+Function         Bfn.  Coefficient  Atom+Function  
  ----- ------------  ---------------      ----- ------------  ---------------
    31      0.935028  1 Si dzz               27      0.919408  1 Si dxy        
    26     -0.612106  1 Si dxx               37     -0.605056  1 Si dzz        
    33     -0.594948  1 Si dxy               28     -0.551326  1 Si dxz        
    32      0.396093  1 Si dxx               34      0.356763  1 Si dxz        
    29     -0.322922  1 Si dyy               35      0.208963  1 Si dyy        
 
 Vector   46  Occ=0.000000D+00  E= 3.428522D+00
              MO Center= -5.7D-16,  5.2D-15,  3.0D-15, r^2= 5.9D-01
   Bfn.  Coefficient  Atom+Function         Bfn.  Coefficient  Atom+Function  
  ----- ------------  ---------------      ----- ------------  ---------------
    28      0.869336  1 Si dxz               30      0.837151  1 Si dyz        
    29      0.787680  1 Si dyy               26     -0.764819  1 Si dxx        
    34     -0.561258  1 Si dxz               36     -0.540479  1 Si dyz        
    35     -0.508540  1 Si dyy               32      0.493780  1 Si dxx        
    40      0.180946  1 Si dxz               42      0.174247  1 Si dyz        
 
 Vector   47  Occ=0.000000D+00  E= 3.428522D+00
              MO Center= -2.2D-15, -3.7D-15, -4.0D-16, r^2= 5.9D-01
   Bfn.  Coefficient  Atom+Function         Bfn.  Coefficient  Atom+Function  
  ----- ------------  ---------------      ----- ------------  ---------------
    27      1.595852  1 Si dxy               33     -1.030309  1 Si dxy        
    30     -0.706569  1 Si dyz               28      0.641478  1 Si dxz        
    36      0.456173  1 Si dyz               34     -0.414149  1 Si dxz        
    31     -0.370109  1 Si dzz               39      0.332165  1 Si dxy        
    37      0.238948  1 Si dzz               26      0.185291  1 Si dxx        
 
 Vector   48  Occ=0.000000D+00  E= 7.340226D+00
              MO Center= -3.1D-15, -1.5D-15, -2.5D-15, r^2= 7.8D-01
   Bfn.  Coefficient  Atom+Function         Bfn.  Coefficient  Atom+Function  
  ----- ------------  ---------------      ----- ------------  ---------------
     5     26.482297  1 Si s                 32     -7.318701  1 Si dxx        
    35     -7.318760  1 Si dyy               37     -7.317594  1 Si dzz        
     6     -6.321246  1 Si s                 26     -3.355853  1 Si dxx        
    29     -3.355858  1 Si dyy               31     -3.355756  1 Si dzz        
     3     -1.712898  1 Si s                  4     -1.540163  1 Si s          
 
 Vector   49  Occ=0.000000D+00  E= 1.154467D+01
              MO Center= -5.6D-16,  1.2D-15, -1.6D-15, r^2= 2.8D-01
   Bfn.  Coefficient  Atom+Function         Bfn.  Coefficient  Atom+Function  
  ----- ------------  ---------------      ----- ------------  ---------------
    18      2.534226  1 Si pz                46     -1.452459  1 Si fxxz       
    51     -1.452503  1 Si fyyz              53     -1.452443  1 Si fzzz       
    16      1.435180  1 Si px                17     -1.351943  1 Si py         
    12     -1.131545  1 Si pz                 9      0.943818  1 Si pz         
    44     -0.822704  1 Si fxxx              47     -0.822580  1 Si fxyy       
 
 Vector   50  Occ=0.000000D+00  E= 1.155220D+01
              MO Center= -1.9D-15, -2.6D-15, -1.0D-15, r^2= 2.8D-01
   Bfn.  Coefficient  Atom+Function         Bfn.  Coefficient  Atom+Function  
  ----- ------------  ---------------      ----- ------------  ---------------
    17      2.558824  1 Si py                16      1.936488  1 Si px         
    45     -1.466613  1 Si fxxy              50     -1.466355  1 Si fyyy       
    52     -1.465985  1 Si fyzz              11     -1.139660  1 Si py         
    44     -1.109703  1 Si fxxx              47     -1.110091  1 Si fxyy       
    49     -1.109315  1 Si fxzz               8      0.949982  1 Si py         
 
 Vector   51  Occ=0.000000D+00  E= 1.155220D+01
              MO Center= -3.5D-15,  2.0D-15,  3.4D-15, r^2= 2.8D-01
   Bfn.  Coefficient  Atom+Function         Bfn.  Coefficient  Atom+Function  
  ----- ------------  ---------------      ----- ------------  ---------------
    16      2.132587  1 Si px                18     -1.959083  1 Si pz         
    17     -1.408428  1 Si py                44     -1.222078  1 Si fxxx       
    47     -1.221892  1 Si fxyy              49     -1.222262  1 Si fxzz       
    46      1.123230  1 Si fxxz              51      1.123028  1 Si fyyz       
    53      1.122332  1 Si fzzz              10     -0.949820  1 Si px         
 
 Vector   52  Occ=0.000000D+00  E= 1.770559D+01
              MO Center=  3.1D-16, -3.4D-16, -6.6D-16, r^2= 3.5D-01
   Bfn.  Coefficient  Atom+Function         Bfn.  Coefficient  Atom+Function  
  ----- ------------  ---------------      ----- ------------  ---------------
     5     23.090692  1 Si s                  4     14.764776  1 Si s          
     3    -11.543772  1 Si s                  6     -7.034758  1 Si s          
    26     -6.957575  1 Si dxx               29     -6.957565  1 Si dyy        
    31     -6.957761  1 Si dzz               32     -5.865270  1 Si dxx        
    35     -5.865281  1 Si dyy               37     -5.865063  1 Si dzz        
 
 Vector   53  Occ=0.000000D+00  E= 1.629727D+02
              MO Center= -9.1D-17,  8.7D-21, -5.5D-18, r^2= 4.1D-02
   Bfn.  Coefficient  Atom+Function         Bfn.  Coefficient  Atom+Function  
  ----- ------------  ---------------      ----- ------------  ---------------
     5      7.450055  1 Si s                  4      7.129262  1 Si s          
     3     -5.939786  1 Si s                 26     -2.756305  1 Si dxx        
    29     -2.756304  1 Si dyy               31     -2.756311  1 Si dzz        
     2      2.246223  1 Si s                  6     -2.228723  1 Si s          
    32     -1.901658  1 Si dxx               35     -1.901658  1 Si dyy        
 
 
                     DFT Final Beta Molecular Orbital Analysis
                     -----------------------------------------
 
 Vector    1  Occ=1.000000D+00  E=-6.570254D+01
              MO Center= -1.6D-17, -1.3D-17, -1.4D-17, r^2= 4.7D-03
   Bfn.  Coefficient  Atom+Function         Bfn.  Coefficient  Atom+Function  
  ----- ------------  ---------------      ----- ------------  ---------------
     2      0.645744  1 Si s                  1      0.418175  1 Si s          
     3      0.026579  1 Si s          
 
 Vector    2  Occ=1.000000D+00  E=-5.141153D+00
              MO Center= -5.4D-16,  7.0D-16,  3.8D-17, r^2= 1.1D-01
   Bfn.  Coefficient  Atom+Function         Bfn.  Coefficient  Atom+Function  
  ----- ------------  ---------------      ----- ------------  ---------------
     3      0.548621  1 Si s                  4      0.549908  1 Si s          
     2     -0.304921  1 Si s                  1     -0.116783  1 Si s          
     5      0.096499  1 Si s                  6     -0.079210  1 Si s          
 
 Vector    3  Occ=1.000000D+00  E=-3.523983D+00
              MO Center=  2.0D-16, -1.3D-16,  3.8D-16, r^2= 1.0D-01
   Bfn.  Coefficient  Atom+Function         Bfn.  Coefficient  Atom+Function  
  ----- ------------  ---------------      ----- ------------  ---------------
    12      0.543996  1 Si pz                 9      0.318182  1 Si pz         
    10      0.308075  1 Si px                11     -0.290208  1 Si py         
     7      0.180192  1 Si px                 8     -0.169742  1 Si py         
    15      0.041203  1 Si pz         
 
 Vector    4  Occ=1.000000D+00  E=-3.509989D+00
              MO Center= -1.8D-16, -1.4D-16, -2.6D-16, r^2= 1.0D-01
   Bfn.  Coefficient  Atom+Function         Bfn.  Coefficient  Atom+Function  
  ----- ------------  ---------------      ----- ------------  ---------------
    11      0.558631  1 Si py                10      0.398204  1 Si px         
     8      0.326837  1 Si py                 7      0.232976  1 Si px         
    12      0.072505  1 Si pz                 9      0.042420  1 Si pz         
    14      0.040780  1 Si py                13      0.029069  1 Si px         
 
 Vector    5  Occ=1.000000D+00  E=-3.509989D+00
              MO Center=  3.2D-16,  1.3D-16, -4.1D-16, r^2= 1.0D-01
   Bfn.  Coefficient  Atom+Function         Bfn.  Coefficient  Atom+Function  
  ----- ------------  ---------------      ----- ------------  ---------------
    10      0.471434  1 Si px                12     -0.417357  1 Si pz         
    11     -0.281879  1 Si py                 7      0.275820  1 Si px         
     9     -0.244182  1 Si pz                 8     -0.164918  1 Si py         
    13      0.034414  1 Si px                15     -0.030467  1 Si pz         
 
 Vector    6  Occ=1.000000D+00  E=-3.533119D-01
              MO Center= -1.5D-14, -6.0D-16, -1.6D-14, r^2= 1.6D+00
   Bfn.  Coefficient  Atom+Function         Bfn.  Coefficient  Atom+Function  
  ----- ------------  ---------------      ----- ------------  ---------------
     6      0.602620  1 Si s                  5      0.550242  1 Si s          
     4     -0.332030  1 Si s                  3     -0.201757  1 Si s          
     2      0.088674  1 Si s                 34      0.038145  1 Si dxz        
    22      0.036806  1 Si s                 36     -0.035933  1 Si dyz        
     1      0.032255  1 Si s                 41     -0.031295  1 Si dyy        
 
 Vector    7  Occ=0.000000D+00  E=-1.325987D-01
              MO Center= -2.9D-16, -1.1D-14,  2.4D-14, r^2= 2.6D+00
   Bfn.  Coefficient  Atom+Function         Bfn.  Coefficient  Atom+Function  
  ----- ------------  ---------------      ----- ------------  ---------------
    18      0.407261  1 Si pz                21      0.286251  1 Si pz         
    16      0.230640  1 Si px                17     -0.217263  1 Si py         
    15      0.174245  1 Si pz                19      0.162109  1 Si px         
    20     -0.152707  1 Si py                12     -0.131009  1 Si pz         
    13      0.098678  1 Si px                14     -0.092955  1 Si py         
 
 Vector    8  Occ=0.000000D+00  E=-9.759438D-02
              MO Center=  1.7D-16, -1.5D-14, -2.6D-14, r^2= 3.1D+00
   Bfn.  Coefficient  Atom+Function         Bfn.  Coefficient  Atom+Function  
  ----- ------------  ---------------      ----- ------------  ---------------
    16      0.501021  1 Si px                19      0.318777  1 Si px         
    18     -0.306234  1 Si pz                21     -0.194843  1 Si pz         
    13      0.143098  1 Si px                10     -0.130652  1 Si px         
    23      0.098053  1 Si px                15     -0.087464  1 Si pz         
    12      0.079857  1 Si pz                 7     -0.076752  1 Si px         
 
 Vector    9  Occ=0.000000D+00  E=-9.759438D-02
              MO Center= -1.0D-14,  2.1D-14, -2.8D-15, r^2= 3.1D+00
   Bfn.  Coefficient  Atom+Function         Bfn.  Coefficient  Atom+Function  
  ----- ------------  ---------------      ----- ------------  ---------------
    17      0.532314  1 Si py                20      0.338688  1 Si py         
    18      0.192106  1 Si pz                16      0.162222  1 Si px         
    14      0.152036  1 Si py                11     -0.138813  1 Si py         
    21      0.122229  1 Si pz                24      0.104177  1 Si py         
    19      0.103215  1 Si px                 8     -0.081546  1 Si py         
 
 Vector   10  Occ=0.000000D+00  E= 2.383922D-02
              MO Center=  2.9D-13,  3.4D-13,  3.2D-13, r^2= 1.1D+01
   Bfn.  Coefficient  Atom+Function         Bfn.  Coefficient  Atom+Function  
  ----- ------------  ---------------      ----- ------------  ---------------
    22      1.927173  1 Si s                  5     -0.473640  1 Si s          
     6     -0.328593  1 Si s                 43     -0.329828  1 Si dzz        
    38     -0.327116  1 Si dxx               41     -0.326972  1 Si dyy        
     4      0.113610  1 Si s                 37     -0.074024  1 Si dzz        
     3      0.064104  1 Si s                 32     -0.063930  1 Si dxx        
 
 Vector   11  Occ=0.000000D+00  E= 5.329872D-02
              MO Center= -8.7D-14,  8.5D-14, -1.5D-13, r^2= 1.6D+01
   Bfn.  Coefficient  Atom+Function         Bfn.  Coefficient  Atom+Function  
  ----- ------------  ---------------      ----- ------------  ---------------
    25      1.477140  1 Si pz                21     -1.102165  1 Si pz         
    23      0.836532  1 Si px                18      0.794814  1 Si pz         
    24     -0.788015  1 Si py                19     -0.624177  1 Si px         
    20      0.587976  1 Si py                16      0.450118  1 Si px         
    17     -0.424013  1 Si py                46     -0.370563  1 Si fxxz       
 
 Vector   12  Occ=0.000000D+00  E= 6.307790D-02
              MO Center= -1.5D-13, -2.1D-14,  8.3D-14, r^2= 1.6D+01
   Bfn.  Coefficient  Atom+Function         Bfn.  Coefficient  Atom+Function  
  ----- ------------  ---------------      ----- ------------  ---------------
    23      1.731594  1 Si px                19     -1.386417  1 Si px         
    16      0.989141  1 Si px                25     -0.782003  1 Si pz         
    21      0.626118  1 Si pz                49     -0.452703  1 Si fxzz       
    44     -0.450282  1 Si fxxx              18     -0.446705  1 Si pz         
    47     -0.447886  1 Si fxyy              13     -0.416330  1 Si px         
 
 Vector   13  Occ=0.000000D+00  E= 6.307790D-02
              MO Center=  2.2D-14, -3.7D-13, -2.1D-13, r^2= 1.6D+01
   Bfn.  Coefficient  Atom+Function         Bfn.  Coefficient  Atom+Function  
  ----- ------------  ---------------      ----- ------------  ---------------
    24      1.716213  1 Si py                20     -1.374102  1 Si py         
    17      0.980355  1 Si py                25      0.895512  1 Si pz         
    21     -0.717000  1 Si pz                18      0.511545  1 Si pz         
    45     -0.446104  1 Si fxxy              52     -0.448035  1 Si fyzz       
    50     -0.445766  1 Si fyyy              14     -0.412632  1 Si py         
 
 Vector   14  Occ=0.000000D+00  E= 1.477587D-01
              MO Center= -2.2D-14,  1.4D-14, -2.1D-14, r^2= 3.9D+00
   Bfn.  Coefficient  Atom+Function         Bfn.  Coefficient  Atom+Function  
  ----- ------------  ---------------      ----- ------------  ---------------
    40      0.967547  1 Si dxz               42     -0.911440  1 Si dyz        
    39     -0.516161  1 Si dxy               43      0.334673  1 Si dzz        
    41     -0.276463  1 Si dyy               38     -0.245609  1 Si dxx        
    34      0.158435  1 Si dxz               36     -0.149247  1 Si dyz        
     5     -0.102284  1 Si s                  6      0.085038  1 Si s          
 
 Vector   15  Occ=0.000000D+00  E= 1.548949D-01
              MO Center=  9.1D-15, -2.3D-15, -5.8D-15, r^2= 3.9D+00
   Bfn.  Coefficient  Atom+Function         Bfn.  Coefficient  Atom+Function  
  ----- ------------  ---------------      ----- ------------  ---------------
    43      0.704489  1 Si dzz               39      0.679712  1 Si dxy        
    40     -0.607588  1 Si dxz               38     -0.570026  1 Si dxx        
    41     -0.134461  1 Si dyy               42     -0.123771  1 Si dyz        
    37      0.112375  1 Si dzz               33      0.108423  1 Si dxy        
    34     -0.096919  1 Si dxz               32     -0.090927  1 Si dxx        
 
 Vector   16  Occ=0.000000D+00  E= 1.548949D-01
              MO Center=  6.5D-15, -4.7D-15,  1.2D-14, r^2= 3.9D+00
   Bfn.  Coefficient  Atom+Function         Bfn.  Coefficient  Atom+Function  
  ----- ------------  ---------------      ----- ------------  ---------------
    42      0.943327  1 Si dyz               40      0.671771  1 Si dxz        
    41     -0.591793  1 Si dyy               39      0.363858  1 Si dxy        
    43      0.311148  1 Si dzz               38      0.280644  1 Si dxx        
    36      0.150473  1 Si dyz               34      0.107156  1 Si dxz        
    35     -0.094399  1 Si dyy               33      0.058040  1 Si dxy        
 
 Vector   17  Occ=0.000000D+00  E= 1.672907D-01
              MO Center= -3.0D-14,  8.5D-15,  1.8D-14, r^2= 4.0D+00
   Bfn.  Coefficient  Atom+Function         Bfn.  Coefficient  Atom+Function  
  ----- ------------  ---------------      ----- ------------  ---------------
    39      1.287426  1 Si dxy               42     -0.696560  1 Si dyz        
    40      0.386838  1 Si dxz               43     -0.295335  1 Si dzz        
    38      0.264842  1 Si dxx               33      0.166606  1 Si dxy        
    36     -0.090142  1 Si dyz               27      0.061013  1 Si dxy        
    34      0.050061  1 Si dxz               37     -0.038219  1 Si dzz        
 
 Vector   18  Occ=0.000000D+00  E= 1.672907D-01
              MO Center= -3.0D-15, -6.6D-15, -5.7D-15, r^2= 4.0D+00
   Bfn.  Coefficient  Atom+Function         Bfn.  Coefficient  Atom+Function  
  ----- ------------  ---------------      ----- ------------  ---------------
    40      0.798469  1 Si dxz               41      0.663729  1 Si dyy        
    38     -0.589496  1 Si dxx               42      0.569329  1 Si dyz        
    39      0.245153  1 Si dxy               34      0.103330  1 Si dxz        
    35      0.085893  1 Si dyy               32     -0.076287  1 Si dxx        
    43     -0.074233  1 Si dzz               36      0.073677  1 Si dyz        
 
 Vector   19  Occ=0.000000D+00  E= 2.504551D-01
              MO Center= -5.1D-14,  4.4D-14, -9.1D-14, r^2= 1.1D+01
   Bfn.  Coefficient  Atom+Function         Bfn.  Coefficient  Atom+Function  
  ----- ------------  ---------------      ----- ------------  ---------------
    18      4.428319  1 Si pz                21     -3.151706  1 Si pz         
    16      2.507839  1 Si px                17     -2.362392  1 Si py         
    19     -1.784869  1 Si px                20      1.681353  1 Si py         
    25      1.645555  1 Si pz                46     -1.414259  1 Si fxxz       
    51     -1.416118  1 Si fyyz              53     -1.413610  1 Si fzzz       
 
 Vector   20  Occ=0.000000D+00  E= 2.610766D-01
              MO Center= -6.6D-13, -4.0D-14,  4.6D-13, r^2= 9.3D+00
   Bfn.  Coefficient  Atom+Function         Bfn.  Coefficient  Atom+Function  
  ----- ------------  ---------------      ----- ------------  ---------------
     6      3.167536  1 Si s                 22      2.276615  1 Si s          
    43     -2.067714  1 Si dzz               38     -2.044836  1 Si dxx        
    41     -2.043620  1 Si dyy                5     -0.731470  1 Si s          
    32     -0.323360  1 Si dxx               35     -0.324060  1 Si dyy        
    37     -0.310200  1 Si dzz                4     -0.305628  1 Si s          
 
 Vector   21  Occ=0.000000D+00  E= 2.642804D-01
              MO Center=  4.3D-13,  3.5D-13, -6.5D-14, r^2= 1.1D+01
   Bfn.  Coefficient  Atom+Function         Bfn.  Coefficient  Atom+Function  
  ----- ------------  ---------------      ----- ------------  ---------------
    16      4.531391  1 Si px                17      3.551643  1 Si py         
    19     -3.108576  1 Si px                20     -2.436460  1 Si py         
    23      1.592166  1 Si px                47     -1.461888  1 Si fxyy       
    44     -1.451376  1 Si fxxx              49     -1.440828  1 Si fxzz       
    24      1.247918  1 Si py                45     -1.150030  1 Si fxxy       
 
 Vector   22  Occ=0.000000D+00  E= 2.642804D-01
              MO Center=  2.4D-13, -3.7D-13, -3.4D-13, r^2= 1.1D+01
   Bfn.  Coefficient  Atom+Function         Bfn.  Coefficient  Atom+Function  
  ----- ------------  ---------------      ----- ------------  ---------------
    17      3.876591  1 Si py                18      3.495430  1 Si pz         
    20     -2.659377  1 Si py                16     -2.520437  1 Si px         
    21     -2.397897  1 Si pz                19      1.729043  1 Si px         
    24      1.362093  1 Si py                50     -1.242285  1 Si fyyy       
    52     -1.246636  1 Si fyzz              45     -1.234716  1 Si fxxy       
 
 Vector   23  Occ=0.000000D+00  E= 7.436821D-01
              MO Center= -1.8D-13,  1.7D-13, -3.2D-13, r^2= 2.0D+00
   Bfn.  Coefficient  Atom+Function         Bfn.  Coefficient  Atom+Function  
  ----- ------------  ---------------      ----- ------------  ---------------
    34      1.093834  1 Si dxz               36     -1.030396  1 Si dyz        
     6     -0.724491  1 Si s                 40     -0.678075  1 Si dxz        
    42      0.638750  1 Si dyz               33     -0.583532  1 Si dxy        
    37      0.523255  1 Si dzz               41      0.381940  1 Si dyy        
    38      0.360316  1 Si dxx               39      0.361735  1 Si dxy        
 
 Vector   24  Occ=0.000000D+00  E= 7.452072D-01
              MO Center=  9.0D-14, -1.5D-13,  2.6D-13, r^2= 6.2D+00
   Bfn.  Coefficient  Atom+Function         Bfn.  Coefficient  Atom+Function  
  ----- ------------  ---------------      ----- ------------  ---------------
    18     11.008351  1 Si pz                16      6.234231  1 Si px         
    17     -5.872670  1 Si py                46     -4.487023  1 Si fxxz       
    51     -4.484673  1 Si fyyz              53     -4.487843  1 Si fzzz       
    15     -3.569569  1 Si pz                21     -2.930483  1 Si pz         
    49     -2.566108  1 Si fxzz              44     -2.533207  1 Si fxxx       
 
 Vector   25  Occ=0.000000D+00  E= 7.531307D-01
              MO Center=  3.3D-15,  3.1D-14, -9.1D-14, r^2= 1.9D+00
   Bfn.  Coefficient  Atom+Function         Bfn.  Coefficient  Atom+Function  
  ----- ------------  ---------------      ----- ------------  ---------------
    34      0.769453  1 Si dxz               37     -0.748863  1 Si dzz        
    33     -0.714153  1 Si dxy               32      0.675928  1 Si dxx        
    40     -0.474350  1 Si dxz               43      0.461658  1 Si dzz        
    39      0.440259  1 Si dxy               38     -0.416694  1 Si dxx        
    36      0.262779  1 Si dyz               42     -0.161998  1 Si dyz        
 
 Vector   26  Occ=0.000000D+00  E= 7.531307D-01
              MO Center= -3.1D-14,  5.9D-14, -6.0D-14, r^2= 1.9D+00
   Bfn.  Coefficient  Atom+Function         Bfn.  Coefficient  Atom+Function  
  ----- ------------  ---------------      ----- ------------  ---------------
    36      1.041248  1 Si dyz               35     -0.681108  1 Si dyy        
    34      0.673208  1 Si dxz               42     -0.641906  1 Si dyz        
    33      0.497268  1 Si dxy               37      0.441434  1 Si dzz        
    41      0.419888  1 Si dyy               40     -0.415017  1 Si dxz        
    39     -0.306555  1 Si dxy               43     -0.272134  1 Si dzz        
 
 Vector   27  Occ=0.000000D+00  E= 7.617701D-01
              MO Center= -6.1D-14, -1.6D-13,  7.8D-14, r^2= 6.1D+00
   Bfn.  Coefficient  Atom+Function         Bfn.  Coefficient  Atom+Function  
  ----- ------------  ---------------      ----- ------------  ---------------
    16      9.940832  1 Si px                17      9.778753  1 Si py         
    49     -4.087581  1 Si fxzz              44     -4.066378  1 Si fxxx       
    47     -4.045233  1 Si fxyy              52     -4.023974  1 Si fyzz       
    45     -3.979814  1 Si fxxy              50     -3.998886  1 Si fyyy       
    13     -3.225261  1 Si px                14     -3.172676  1 Si py         
 
 Vector   28  Occ=0.000000D+00  E= 7.617701D-01
              MO Center= -1.6D-16, -2.9D-14,  8.2D-14, r^2= 6.1D+00
   Bfn.  Coefficient  Atom+Function         Bfn.  Coefficient  Atom+Function  
  ----- ------------  ---------------      ----- ------------  ---------------
    18      8.556424  1 Si pz                17      8.030491  1 Si py         
    16     -7.544106  1 Si px                53     -3.519683  1 Si fzzz       
    46     -3.471248  1 Si fxxz              51     -3.470126  1 Si fyyz       
    45     -3.300315  1 Si fxxy              50     -3.283958  1 Si fyyy       
    52     -3.272541  1 Si fyzz              47      3.101428  1 Si fxyy       
 
 Vector   29  Occ=0.000000D+00  E= 7.819305D-01
              MO Center=  1.9D-14,  1.5D-14, -7.2D-15, r^2= 1.9D+00
   Bfn.  Coefficient  Atom+Function         Bfn.  Coefficient  Atom+Function  
  ----- ------------  ---------------      ----- ------------  ---------------
    33      1.447917  1 Si dxy               39     -0.860639  1 Si dxy        
    36     -0.724177  1 Si dyz               34      0.496203  1 Si dxz        
    42      0.430449  1 Si dyz               37     -0.333669  1 Si dzz        
    40     -0.294942  1 Si dxz               32      0.243875  1 Si dxx        
    43      0.198332  1 Si dzz               27      0.183505  1 Si dxy        
 
 Vector   30  Occ=0.000000D+00  E= 7.819305D-01
              MO Center=  1.0D-14,  2.5D-14,  3.2D-15, r^2= 1.9D+00
   Bfn.  Coefficient  Atom+Function         Bfn.  Coefficient  Atom+Function  
  ----- ------------  ---------------      ----- ------------  ---------------
    34      0.852547  1 Si dxz               35      0.733236  1 Si dyy        
    36      0.689916  1 Si dyz               32     -0.675855  1 Si dxx        
    40     -0.506752  1 Si dxz               41     -0.435834  1 Si dyy        
    42     -0.410085  1 Si dyz               38      0.401727  1 Si dxx        
    33      0.163173  1 Si dxy               28      0.108050  1 Si dxz        
 
 Vector   31  Occ=0.000000D+00  E= 8.918026D-01
              MO Center=  1.8D-13,  3.8D-14,  7.4D-14, r^2= 4.8D+00
   Bfn.  Coefficient  Atom+Function         Bfn.  Coefficient  Atom+Function  
  ----- ------------  ---------------      ----- ------------  ---------------
     6     12.487614  1 Si s                  5     -5.570437  1 Si s          
    43     -3.725653  1 Si dzz               38     -3.703135  1 Si dxx        
    41     -3.701937  1 Si dyy               22      1.405931  1 Si s          
    32     -0.994894  1 Si dxx               35     -0.996624  1 Si dyy        
    37     -0.962350  1 Si dzz                4      0.196393  1 Si s          
 
 Vector   32  Occ=0.000000D+00  E= 9.472956D-01
              MO Center=  2.7D-15, -3.5D-15,  3.3D-15, r^2= 2.0D+00
   Bfn.  Coefficient  Atom+Function         Bfn.  Coefficient  Atom+Function  
  ----- ------------  ---------------      ----- ------------  ---------------
    48      2.226624  1 Si fxyz              49     -1.416855  1 Si fxzz       
    52      1.334694  1 Si fyzz              44      0.446957  1 Si fxxx       
    50     -0.444706  1 Si fyyy              51      0.134436  1 Si fyyz       
    47      0.076132  1 Si fxyy              53     -0.045172  1 Si fzzz       
    15      0.036386  1 Si pz         
 
 Vector   33  Occ=0.000000D+00  E= 9.513404D-01
              MO Center=  2.5D-15, -2.3D-15,  2.5D-15, r^2= 2.0D+00
   Bfn.  Coefficient  Atom+Function         Bfn.  Coefficient  Atom+Function  
  ----- ------------  ---------------      ----- ------------  ---------------
    46      1.675413  1 Si fxxz              48     -1.490600  1 Si fxyz       
    45     -0.861539  1 Si fxxy              52      0.832716  1 Si fyzz       
    53     -0.722926  1 Si fzzz              51      0.649392  1 Si fyyz       
    49     -0.313484  1 Si fxzz              47      0.233450  1 Si fxyy       
    16      0.104690  1 Si px                18     -0.080121  1 Si pz         
 
 Vector   34  Occ=0.000000D+00  E= 9.513404D-01
              MO Center=  8.8D-16, -2.5D-15,  2.7D-15, r^2= 2.0D+00
   Bfn.  Coefficient  Atom+Function         Bfn.  Coefficient  Atom+Function  
  ----- ------------  ---------------      ----- ------------  ---------------
    51      1.775703  1 Si fyyz              47      1.049904  1 Si fxyy       
    46     -1.003231  1 Si fxxz              49     -1.000548  1 Si fxzz       
    48     -0.681783  1 Si fxyz              52     -0.674863  1 Si fyzz       
    45      0.587493  1 Si fxxy              53     -0.240209  1 Si fzzz       
    17     -0.118440  1 Si py                50      0.106006  1 Si fyyy       
 
 Vector   35  Occ=0.000000D+00  E= 9.656484D-01
              MO Center=  4.3D-15, -3.1D-15,  5.1D-15, r^2= 2.0D+00
   Bfn.  Coefficient  Atom+Function         Bfn.  Coefficient  Atom+Function  
  ----- ------------  ---------------      ----- ------------  ---------------
    48      1.314245  1 Si fxyz              47     -1.233655  1 Si fxyy       
    45      1.166736  1 Si fxxy              52     -0.941620  1 Si fyzz       
    46      0.896622  1 Si fxxz              51      0.804354  1 Si fyyz       
    53     -0.566992  1 Si fzzz              49      0.509338  1 Si fxzz       
    44      0.241439  1 Si fxxx              50     -0.075039  1 Si fyyy       
 
 Vector   36  Occ=0.000000D+00  E= 9.656484D-01
              MO Center=  3.9D-15, -2.6D-15,  5.4D-15, r^2= 2.0D+00
   Bfn.  Coefficient  Atom+Function         Bfn.  Coefficient  Atom+Function  
  ----- ------------  ---------------      ----- ------------  ---------------
    49      1.400929  1 Si fxzz              52      1.217351  1 Si fyzz       
    45      0.782449  1 Si fxxy              50     -0.666600  1 Si fyyy       
    44     -0.649191  1 Si fxxx              51      0.629494  1 Si fyyz       
    47      0.546644  1 Si fxyy              46     -0.319861  1 Si fxxz       
    48      0.181476  1 Si fxyz              53     -0.103211  1 Si fzzz       
 
 Vector   37  Occ=0.000000D+00  E= 9.879475D-01
              MO Center=  7.1D-16, -8.1D-16, -8.3D-16, r^2= 2.0D+00
   Bfn.  Coefficient  Atom+Function         Bfn.  Coefficient  Atom+Function  
  ----- ------------  ---------------      ----- ------------  ---------------
    48      2.363349  1 Si fxyz              45     -1.109290  1 Si fxxy       
    47      1.037469  1 Si fxyy              50      0.542825  1 Si fyyy       
    52     -0.519186  1 Si fyzz              44     -0.505533  1 Si fxxx       
    49      0.479129  1 Si fxzz              51      0.281211  1 Si fyyz       
    46      0.267100  1 Si fxxz              53     -0.182771  1 Si fzzz       
 
 Vector   38  Occ=0.000000D+00  E= 9.879475D-01
              MO Center=  1.0D-15, -1.6D-15, -1.4D-15, r^2= 2.0D+00
   Bfn.  Coefficient  Atom+Function         Bfn.  Coefficient  Atom+Function  
  ----- ------------  ---------------      ----- ------------  ---------------
    47      1.403696  1 Si fxyy              45      1.316377  1 Si fxxy       
    51     -1.164711  1 Si fyyz              46      1.134386  1 Si fxxz       
    49     -0.640639  1 Si fxzz              52     -0.623238  1 Si fyzz       
    44     -0.254352  1 Si fxxx              50     -0.231047  1 Si fyyy       
 
 Vector   39  Occ=0.000000D+00  E= 1.831445D+00
              MO Center= -2.1D-15,  1.6D-15, -3.1D-15, r^2= 2.9D+00
   Bfn.  Coefficient  Atom+Function         Bfn.  Coefficient  Atom+Function  
  ----- ------------  ---------------      ----- ------------  ---------------
    18     10.474209  1 Si pz                16      5.931740  1 Si px         
    17     -5.587719  1 Si py                46     -5.417182  1 Si fxxz       
    51     -5.418737  1 Si fyyz              53     -5.416639  1 Si fzzz       
    44     -3.073063  1 Si fxxx              47     -3.068732  1 Si fxyy       
    49     -3.051295  1 Si fxzz              45      2.889926  1 Si fxxy       
 
 Vector   40  Occ=0.000000D+00  E= 1.857615D+00
              MO Center=  3.0D-15,  4.8D-15, -3.1D-16, r^2= 2.9D+00
   Bfn.  Coefficient  Atom+Function         Bfn.  Coefficient  Atom+Function  
  ----- ------------  ---------------      ----- ------------  ---------------
    17      9.716962  1 Si py                16      8.898458  1 Si px         
    45     -5.041127  1 Si fxxy              50     -5.034166  1 Si fyyy       
    52     -5.024751  1 Si fyzz              44     -4.609671  1 Si fxxx       
    47     -4.618248  1 Si fxyy              49     -4.601072  1 Si fxzz       
    14     -1.720116  1 Si py                20     -1.632481  1 Si py         
 
 Vector   41  Occ=0.000000D+00  E= 1.857615D+00
              MO Center=  1.4D-15, -1.1D-15, -2.6D-15, r^2= 2.9D+00
   Bfn.  Coefficient  Atom+Function         Bfn.  Coefficient  Atom+Function  
  ----- ------------  ---------------      ----- ------------  ---------------
    18     -8.089915  1 Si pz                16      7.730007  1 Si px         
    17     -6.958666  1 Si py                46      4.202947  1 Si fxxz       
    51      4.201509  1 Si fyyz              53      4.183209  1 Si fzzz       
    44     -4.004377  1 Si fxxx              47     -3.998940  1 Si fxyy       
    49     -4.009796  1 Si fxzz              45      3.598330  1 Si fxxy       
 
 Vector   42  Occ=0.000000D+00  E= 2.747262D+00
              MO Center= -1.6D-14, -5.8D-15,  8.6D-16, r^2= 1.8D+00
   Bfn.  Coefficient  Atom+Function         Bfn.  Coefficient  Atom+Function  
  ----- ------------  ---------------      ----- ------------  ---------------
     5     11.312874  1 Si s                 32     -4.937219  1 Si dxx        
    35     -4.936765  1 Si dyy               37     -4.945759  1 Si dzz        
     6      3.437059  1 Si s                  4     -2.444828  1 Si s          
    38     -1.278103  1 Si dxx               41     -1.278289  1 Si dyy        
    43     -1.274596  1 Si dzz                3     -1.037885  1 Si s          
 
 Vector   43  Occ=0.000000D+00  E= 3.422695D+00
              MO Center= -2.0D-15,  2.0D-15, -4.7D-15, r^2= 6.0D-01
   Bfn.  Coefficient  Atom+Function         Bfn.  Coefficient  Atom+Function  
  ----- ------------  ---------------      ----- ------------  ---------------
    28      1.200361  1 Si dxz               30     -1.130744  1 Si dyz        
    34     -0.783324  1 Si dxz               36      0.737894  1 Si dyz        
    27     -0.640361  1 Si dxy               31      0.518826  1 Si dzz        
    33      0.417883  1 Si dxy                5     -0.354953  1 Si s          
    35      0.313441  1 Si dyy               32      0.288459  1 Si dxx        
 
 Vector   44  Occ=0.000000D+00  E= 3.429109D+00
              MO Center=  8.0D-16, -3.1D-16,  7.2D-16, r^2= 6.0D-01
   Bfn.  Coefficient  Atom+Function         Bfn.  Coefficient  Atom+Function  
  ----- ------------  ---------------      ----- ------------  ---------------
    28      1.072054  1 Si dxz               26      0.782881  1 Si dxx        
    30      0.732611  1 Si dyz               34     -0.700467  1 Si dxz        
    31     -0.548014  1 Si dzz               32     -0.511525  1 Si dxx        
    27     -0.488149  1 Si dxy               36     -0.478679  1 Si dyz        
    37      0.358066  1 Si dzz               33      0.318951  1 Si dxy        
 
 Vector   45  Occ=0.000000D+00  E= 3.429109D+00
              MO Center=  6.5D-16, -6.5D-16,  1.1D-15, r^2= 6.0D-01
   Bfn.  Coefficient  Atom+Function         Bfn.  Coefficient  Atom+Function  
  ----- ------------  ---------------      ----- ------------  ---------------
    30      0.920530  1 Si dyz               27      0.818893  1 Si dxy        
    31      0.778845  1 Si dzz               29     -0.712734  1 Si dyy        
    36     -0.601464  1 Si dyz               33     -0.535055  1 Si dxy        
    37     -0.508888  1 Si dzz               35      0.465692  1 Si dyy        
    28      0.324336  1 Si dxz               34     -0.211917  1 Si dxz        
 
 Vector   46  Occ=0.000000D+00  E= 3.449163D+00
              MO Center=  7.7D-17, -8.2D-17, -2.4D-16, r^2= 6.0D-01
   Bfn.  Coefficient  Atom+Function         Bfn.  Coefficient  Atom+Function  
  ----- ------------  ---------------      ----- ------------  ---------------
    30      0.867838  1 Si dyz               28      0.837582  1 Si dxz        
    29      0.777248  1 Si dyy               26     -0.771563  1 Si dxx        
    36     -0.569444  1 Si dyz               34     -0.549591  1 Si dxz        
    35     -0.510002  1 Si dyy               32      0.506272  1 Si dxx        
    42      0.180892  1 Si dyz               40      0.174585  1 Si dxz        
 
 Vector   47  Occ=0.000000D+00  E= 3.449163D+00
              MO Center= -5.0D-16, -5.1D-16,  1.6D-17, r^2= 6.0D-01
   Bfn.  Coefficient  Atom+Function         Bfn.  Coefficient  Atom+Function  
  ----- ------------  ---------------      ----- ------------  ---------------
    27      1.592306  1 Si dxy               33     -1.044813  1 Si dxy        
    28      0.680164  1 Si dxz               30     -0.666153  1 Si dyz        
    34     -0.446299  1 Si dxz               36      0.437105  1 Si dyz        
    31     -0.370282  1 Si dzz               39      0.331900  1 Si dxy        
    37      0.242966  1 Si dzz               29      0.220817  1 Si dyy        
 
 Vector   48  Occ=0.000000D+00  E= 7.353293D+00
              MO Center= -3.8D-15, -1.6D-17, -2.7D-16, r^2= 7.7D-01
   Bfn.  Coefficient  Atom+Function         Bfn.  Coefficient  Atom+Function  
  ----- ------------  ---------------      ----- ------------  ---------------
     5     26.485508  1 Si s                 32     -7.310720  1 Si dxx        
    35     -7.310655  1 Si dyy               37     -7.311947  1 Si dzz        
     6     -6.347146  1 Si s                 26     -3.358842  1 Si dxx        
    29     -3.358909  1 Si dyy               31     -3.357590  1 Si dzz        
     3     -1.718767  1 Si s                  4     -1.528043  1 Si s          
 
 Vector   49  Occ=0.000000D+00  E= 1.155176D+01
              MO Center= -7.4D-17,  4.6D-17, -1.2D-16, r^2= 2.8D-01
   Bfn.  Coefficient  Atom+Function         Bfn.  Coefficient  Atom+Function  
  ----- ------------  ---------------      ----- ------------  ---------------
    18      2.534949  1 Si pz                46     -1.452985  1 Si fxxz       
    51     -1.452959  1 Si fyyz              53     -1.452994  1 Si fzzz       
    16      1.435589  1 Si px                17     -1.352329  1 Si py         
    12     -1.131642  1 Si pz                 9      0.943771  1 Si pz         
    44     -0.822765  1 Si fxxx              47     -0.822838  1 Si fxyy       
 
 Vector   50  Occ=0.000000D+00  E= 1.156768D+01
              MO Center= -3.0D-16, -5.0D-16, -2.4D-17, r^2= 2.8D-01
   Bfn.  Coefficient  Atom+Function         Bfn.  Coefficient  Atom+Function  
  ----- ------------  ---------------      ----- ------------  ---------------
    17      2.535159  1 Si py                16      1.954257  1 Si px         
    45     -1.453249  1 Si fxxy              50     -1.453359  1 Si fyyy       
    52     -1.453516  1 Si fyzz              11     -1.132532  1 Si py         
    44     -1.120346  1 Si fxxx              47     -1.120184  1 Si fxyy       
    49     -1.120508  1 Si fxzz               8      0.944107  1 Si py         
 
 Vector   51  Occ=0.000000D+00  E= 1.156768D+01
              MO Center=  5.3D-16, -4.2D-16, -4.1D-16, r^2= 2.8D-01
   Bfn.  Coefficient  Atom+Function         Bfn.  Coefficient  Atom+Function  
  ----- ------------  ---------------      ----- ------------  ---------------
    16      2.104357  1 Si px                18     -1.955987  1 Si pz         
    17     -1.432593  1 Si py                44     -1.206396  1 Si fxxx       
    47     -1.206475  1 Si fxyy              49     -1.206316  1 Si fxzz       
    46      1.121097  1 Si fxxz              51      1.121177  1 Si fyyz       
    53      1.121472  1 Si fzzz              10     -0.940079  1 Si px         
 
 Vector   52  Occ=0.000000D+00  E= 1.771276D+01
              MO Center= -4.4D-16, -2.7D-16,  1.3D-16, r^2= 3.5D-01
   Bfn.  Coefficient  Atom+Function         Bfn.  Coefficient  Atom+Function  
  ----- ------------  ---------------      ----- ------------  ---------------
     5     23.062574  1 Si s                  4     14.767934  1 Si s          
     3    -11.541984  1 Si s                  6     -7.033161  1 Si s          
    26     -6.954889  1 Si dxx               29     -6.954897  1 Si dyy        
    31     -6.954725  1 Si dzz               32     -5.855300  1 Si dxx        
    35     -5.855289  1 Si dyy               37     -5.855508  1 Si dzz        
 
 Vector   53  Occ=0.000000D+00  E= 1.629790D+02
              MO Center=  5.7D-18, -6.1D-18,  1.2D-18, r^2= 4.1D-02
   Bfn.  Coefficient  Atom+Function         Bfn.  Coefficient  Atom+Function  
  ----- ------------  ---------------      ----- ------------  ---------------
     5      7.449058  1 Si s                  4      7.129320  1 Si s          
     3     -5.939684  1 Si s                 26     -2.756199  1 Si dxx        
    29     -2.756199  1 Si dyy               31     -2.756198  1 Si dzz        
     2      2.246228  1 Si s                  6     -2.228602  1 Si s          
    32     -1.901327  1 Si dxx               35     -1.901327  1 Si dyy        
 

   alpha - beta orbital overlaps 
   ----------------------------- 


   alpha      1      2      3      4      5      6      7      8      9     10
    beta      1      2      3      4      5      6      9      8      7     10
 overlap   1.000  1.000  1.000  1.000  1.000  0.997  0.954  0.954  0.999  1.000


   alpha     11     12     13     14     15     16     17     18     19     20
    beta     12     13     11     18     17     16     15     14     21     22
 overlap   0.710  0.710  1.000  0.997  0.997  0.992  0.992  0.998  0.939  0.939


   alpha     21     22     23     24     25     26     27     28     29     30
    beta     19     20     26     25     30     29     23     27     28     24
 overlap   1.000  0.999  0.958  0.958  0.999  0.999  0.998  0.982  0.982  1.000


   alpha     31     32     33     34     35     36     37     38     39     40
    beta     31     36     35     34     33     32     38     37     39     40
 overlap   0.999  0.999  0.999  0.999  0.999  0.999  0.996  0.996  1.000  0.992


   alpha     41     42     43     44     45     46     47     48     49     50
    beta     41     42     43     45     44     46     47     48     49     50
 overlap   0.992  1.000  1.000  0.723  0.723  0.999  0.999  1.000  1.000  1.000


   alpha     51     52     53
    beta     51     52     53
 overlap   1.000  1.000  1.000

     --------------------------
     Expectation value of S2:  
     --------------------------
      <S2> =      2.0054 (Exact =     2.0000)
 

 Parallel integral file used      16 records with       0 large values


 Task  times  cpu:        1.2s     wall:        2.5s
 
 
                                NWChem Input Module
                                -------------------
 
 
 Summary of allocated global arrays
-----------------------------------
  No active global arrays



                         GA Statistics for process    0
                         ------------------------------

       create   destroy   get      put      acc     scatter   gather  read&inc
calls:  221      221      889      756      162        0        0       71     
number of processes/call 1.54e+00 1.27e+00 3.70e+00 0.00e+00 0.00e+00
bytes total:             1.04e+07 3.88e+06 3.64e+06 0.00e+00 0.00e+00 5.68e+02
bytes remote:            7.72e+05 1.23e+05 8.70e+05 0.00e+00 0.00e+00 0.00e+00
Max memory consumed for GA by this process: 1460680 bytes
 
MA_summarize_allocated_blocks: starting scan ...
MA_summarize_allocated_blocks: scan completed: 0 heap blocks, 0 stack blocks
MA usage statistics:

	allocation statistics:
					      heap	     stack
					      ----	     -----
	current number of blocks	         0	         0
	maximum number of blocks	        21	        53
	current total bytes		         0	         0
	maximum total bytes		   2415136	  22513064
	maximum total K-bytes		      2416	     22514
	maximum total M-bytes		         3	        23
 
 
                                     CITATION
                                     --------
                Please cite the following reference when publishing
                           results obtained with NWChem:
 
                 M. Valiev, E.J. Bylaska, N. Govind, K. Kowalski,
              T.P. Straatsma, H.J.J. van Dam, D. Wang, J. Nieplocha,
                        E. Apra, T.L. Windus, W.A. de Jong
                 "NWChem: a comprehensive and scalable open-source
                  solution for large scale molecular simulations"
                      Comput. Phys. Commun. 181, 1477 (2010)
                           doi:10.1016/j.cpc.2010.04.018
 
                                      AUTHORS
                                      -------
          E. Apra, E. J. Bylaska, W. A. de Jong, N. Govind, K. Kowalski,
       T. P. Straatsma, M. Valiev, H. J. J. van Dam, D. Wang, T. L. Windus,
        J. Hammond, J. Autschbach, K. Bhaskaran-Nair, J. Brabec, K. Lopata,
    S. A. Fischer, S. Krishnamoorthy, M. Jacquelin, W. Ma, M. Klemm, O. Villa,
      Y. Chen, V. Anisimov, F. Aquino, S. Hirata, M. T. Hackler, V. Konjkov,
            D. Mejia-Rodriguez, T. Risthaus, M. Malagoli, A. Marenich,
   A. Otero-de-la-Roza, J. Mullin, P. Nichols, R. Peverati, J. Pittner, Y. Zhao,
        P.-D. Fan, A. Fonari, M. J. Williamson, R. J. Harrison, J. R. Rehr,
      M. Dupuis, D. Silverstein, D. M. A. Smith, J. Nieplocha, V. Tipparaju,
    M. Krishnan, B. E. Van Kuiken, A. Vazquez-Mayagoitia, L. Jensen, M. Swart,
      Q. Wu, T. Van Voorhis, A. A. Auer, M. Nooijen, L. D. Crosby, E. Brown,
      G. Cisneros, G. I. Fann, H. Fruchtl, J. Garza, K. Hirao, R. A. Kendall,
      J. A. Nichols, K. Tsemekhman, K. Wolinski, J. Anchell, D. E. Bernholdt,
      P. Borowski, T. Clark, D. Clerc, H. Dachsel, M. J. O. Deegan, K. Dyall,
    D. Elwood, E. Glendening, M. Gutowski, A. C. Hess, J. Jaffe, B. G. Johnson,
     J. Ju, R. Kobayashi, R. Kutteh, Z. Lin, R. Littlefield, X. Long, B. Meng,
      T. Nakajima, S. Niu, L. Pollack, M. Rosing, K. Glaesemann, G. Sandrone,
      M. Stave, H. Taylor, G. Thomas, J. H. van Lenthe, A. T. Wong, Z. Zhang.

 Total times  cpu:        1.2s     wall:        2.7s
