 argument  1 = /storage/home/rabeet/work/nwc/ip13/nwtpss/C+.nw
  NWChem w/ OpenMP: maximum threads =  1
                                         
                                         
 
 
              Northwest Computational Chemistry Package (NWChem) 6.8
              ------------------------------------------------------
 
 
                    Environmental Molecular Sciences Laboratory
                       Pacific Northwest National Laboratory
                                Richland, WA 99352
 
                              Copyright (c) 1994-2018
                       Pacific Northwest National Laboratory
                            Battelle Memorial Institute
 
             NWChem is an open-source computational chemistry package
                        distributed under the terms of the
                      Educational Community License (ECL) 2.0
             A copy of the license is included with this distribution
                              in the LICENSE.TXT file
 
                                  ACKNOWLEDGMENT
                                  --------------

            This software and its documentation were developed at the
            EMSL at Pacific Northwest National Laboratory, a multiprogram
            national laboratory, operated for the U.S. Department of Energy
            by Battelle under Contract Number DE-AC05-76RL01830. Support
            for this work was provided by the Department of Energy Office
            of Biological and Environmental Research, Office of Basic
            Energy Sciences, and the Office of Advanced Scientific Computing.


           Job information
           ---------------

    hostname        = r8n4.niserhpc.org
    program         = /home/rabeet/nwchem-6.8/bin/LINUX64/nwchem
    date            = Sun Oct 27 10:43:33 2019

    compiled        = Fri_Jun_28_18:24:12_2019
    source          = /home/rabeet/nwchem-6.8
    nwchem branch   = Development
    nwchem revision = N/A
    ga revision     = 5.6.5
    use scalapack   = T
    input           = /storage/home/rabeet/work/nwc/ip13/nwtpss/C+.nw
    prefix          = C+.
    data base       = ./C+.db
    status          = startup
    nproc           =       16
    time left       =     -1s



           Memory information
           ------------------

    heap     =   13107198 doubles =    100.0 Mbytes
    stack    =   13107195 doubles =    100.0 Mbytes
    global   =   26214400 doubles =    200.0 Mbytes (distinct from heap & stack)
    total    =   52428793 doubles =    400.0 Mbytes
    verify   = yes
    hardfail = no 


           Directory information
           ---------------------
 
  0 permanent = .
  0 scratch   = .
 
 
 
 
                                NWChem Input Module
                                -------------------
 
 

 Scaling coordinates for geometry "geometry" by  1.889725989
 (inverse scale =  0.529177249)

 
 
                             Geometry "geometry" -> ""
                             -------------------------
 
 Output coordinates in angstroms (scale by  1.889725989 to convert to a.u.)
 
  No.       Tag          Charge          X              Y              Z
 ---- ---------------- ---------- -------------- -------------- --------------
    1 C                    6.0000     0.00000000     0.00000000     0.00000000
 
      Atomic Mass 
      ----------- 
 
      C                 12.000000
 

 Effective nuclear repulsion energy (a.u.)       0.0000000000

            Nuclear Dipole moment (a.u.) 
            ----------------------------
        X                 Y               Z
 ---------------- ---------------- ----------------
     0.0000000000     0.0000000000     0.0000000000
 
 
            XYZ format geometry
            -------------------
     1
 geometry
 C                     0.00000000     0.00000000     0.00000000
 


 Summary of "ao basis" -> "" (cartesian)
 ------------------------------------------------------------------------------
       Tag                 Description            Shells   Functions and Types
 ---------------- ------------------------------  ------  ---------------------
 *                     6-311++G(3df,3pd)              on all atoms 


 
                                 NWChem DFT Module
                                 -----------------
 
 
                      Basis "ao basis" -> "ao basis" (cartesian)
                      -----
  C (Carbon)
  ----------
            Exponent  Coefficients 
       -------------- ---------------------------------------------------------
  1 S  4.56324000E+03  0.001967
  1 S  6.82024000E+02  0.015231
  1 S  1.54973000E+02  0.076127
  1 S  4.44553000E+01  0.260801
  1 S  1.30290000E+01  0.616462
  1 S  1.82773000E+00  0.221006
 
  2 S  2.09642000E+01  0.114660
  2 S  4.80331000E+00  0.919999
  2 S  1.45933000E+00 -0.003031
 
  3 P  2.09642000E+01  0.040249
  3 P  4.80331000E+00  0.237594
  3 P  1.45933000E+00  0.815854
 
  4 S  4.83456000E-01  1.000000
 
  5 P  4.83456000E-01  1.000000
 
  6 S  1.45585000E-01  1.000000
 
  7 P  1.45585000E-01  1.000000
 
  8 S  4.38000000E-02  1.000000
 
  9 P  4.38000000E-02  1.000000
 
 10 D  2.50400000E+00  1.000000
 
 11 D  6.26000000E-01  1.000000
 
 12 D  1.56500000E-01  1.000000
 
 13 F  8.00000000E-01  1.000000
 


 Summary of "ao basis" -> "ao basis" (cartesian)
 ------------------------------------------------------------------------------
       Tag                 Description            Shells   Functions and Types
 ---------------- ------------------------------  ------  ---------------------
 C                     6-311++G(3df,3pd)            13       45   5s4p3d1f




 Summary of "ao basis" -> "ao basis" (cartesian)
 ------------------------------------------------------------------------------
       Tag                 Description            Shells   Functions and Types
 ---------------- ------------------------------  ------  ---------------------
 C                     6-311++G(3df,3pd)            13       45   5s4p3d1f


  Caching 1-el integrals 
 
            General Information
            -------------------
          SCF calculation type: DFT
          Wavefunction type:  spin polarized.
          No. of atoms     :     1
          No. of electrons :     5
           Alpha electrons :     3
            Beta electrons :     2
          Charge           :     1
          Spin multiplicity:     2
          Use of symmetry is: off; symmetry adaption is: off
          Maximum number of iterations: ***
          AO basis - number of functions:    45
                     number of shells:    13
          Convergence on energy requested:  1.00D-06
          Convergence on density requested:  1.00D-05
          Convergence on gradient requested:  5.00D-04
 
              XC Information
              --------------
                  TPSS metaGGA Exchange Functional  1.000          
             TPSS03 metaGGA Correlation Functional  1.000          
 
             Grid Information
             ----------------
          Grid used for XC integration:  medium    
          Radial quadrature: Mura-Knowles        
          Angular quadrature: Lebedev. 
          Tag              B.-S. Rad. Rad. Pts. Rad. Cut. Ang. Pts.
          ---              ---------- --------- --------- ---------
          C                   0.70       49           8.0       434
          Grid pruning is: on 
          Number of quadrature shells:    49
          Spatial weights used:  Erf1
 
          Convergence Information
          -----------------------
          Convergence aids based upon iterative change in 
          total energy or number of iterations. 
          Levelshifting, if invoked, occurs when the 
          HOMO/LUMO gap drops below (HL_TOL):  1.00D-02
          DIIS, if invoked, will attempt to extrapolate 
          using up to (NFOCK): 10 stored Fock matrices.

                    Damping( 0%)  Levelshifting(0.5)       DIIS
                  --------------- ------------------- ---------------
          dE  on:    start            ASAP                start   
          dE off:    2 iters        *** iters           *** iters 

 
      Screening Tolerance Information
      -------------------------------
          Density screening/tol_rho:  1.00D-10
          AO Gaussian exp screening on grid/accAOfunc:  14
          CD Gaussian exp screening on grid/accCDfunc:  20
          XC Gaussian exp screening on grid/accXCfunc:  20
          Schwarz screening/accCoul:  1.00D-08

 
      Superposition of Atomic Density Guess
      -------------------------------------
 
 Sum of atomic energies:         -37.66911787

 Renormalizing density from       6.00 to      5
 
      Non-variational initial energy
      ------------------------------

 Total energy =     -32.914130
 1-e energy   =     -42.011867
 2-e energy   =       9.097737
 HOMO         =      -0.639455
 LUMO         =      -0.639455
 
   Time after variat. SCF:      0.5
   Time prior to 1st pass:      0.5

 #quartets = 4.186D+03 #integrals = 9.141D+04 #direct =  0.0% #cached =100.0%


 Integral file          = ./C+.aoints.00
 Record size in doubles =    65536    No. of integs per rec  =    43688
 Max. records in memory =        3    Max. records in file   =  8902629
 No. of bits per label  =        8    No. of bits per value  =       64


File balance: exchanges=     0  moved=     0  time=   0.0


 Grid_pts file          = ./C+.gridpts.00
 Record size in doubles =  12289        No. of grid_pts per rec  =   3070
 Max. records in memory =      2        Max. recs in file   =  47476832


           Memory utilization after 1st SCF pass: 
           Heap Space remaining (MW):       12.88            12883806
          Stack Space remaining (MW):       13.11            13106716

   convergence    iter        energy       DeltaE   RMS-Dens  Diis-err    time
 ---------------- ----- ----------------- --------- --------- ---------  ------
 d= 0,ls=0.0,diis     1    -37.4304565829 -3.74D+01  2.41D-03  1.02D-01     2.2
                                                     2.69D-03  8.89D-02
 d= 0,ls=0.0,diis     2    -37.4427436111 -1.23D-02  5.11D-04  1.90D-03     2.3
                                                     3.85D-04  1.48D-03
 d= 0,ls=0.0,diis     3    -37.4430400968 -2.96D-04  6.48D-05  1.54D-05     2.4
                                                     1.54D-04  2.56D-05
 d= 0,ls=0.0,diis     4    -37.4430491901 -9.09D-06  1.67D-05  9.81D-07     2.5
                                                     1.30D-05  4.90D-07
 d= 0,ls=0.0,diis     5    -37.4430495649 -3.75D-07  5.72D-07  7.30D-10     2.5
                                                     1.15D-06  1.41D-09


         Total DFT energy =      -37.443049564902
      One electron energy =      -47.596258590214
           Coulomb energy =       15.046586140963
          Exchange energy =       -4.771111599218
       Correlation energy =       -0.122265516432
 Nuclear repulsion energy =        0.000000000000

 Numeric. integr. density =        4.999999998928

     Total iterative time =      2.0s


 
                    DFT Final Alpha Molecular Orbital Analysis
                    ------------------------------------------
 
 Vector    1  Occ=1.000000D+00  E=-1.068575D+01
              MO Center= -1.2D-17,  2.5D-17, -1.5D-17, r^2= 2.8D-02
   Bfn.  Coefficient  Atom+Function         Bfn.  Coefficient  Atom+Function  
  ----- ------------  ---------------      ----- ------------  ---------------
     1      0.563851  1 C  s                  2      0.463706  1 C  s          
 
 Vector    2  Occ=1.000000D+00  E=-9.767664D-01
              MO Center= -2.2D-15,  1.3D-15, -1.1D-15, r^2= 7.0D-01
   Bfn.  Coefficient  Atom+Function         Bfn.  Coefficient  Atom+Function  
  ----- ------------  ---------------      ----- ------------  ---------------
     6      0.725278  1 C  s                 10      0.517905  1 C  s          
     2     -0.234833  1 C  s                  1     -0.138476  1 C  s          
    35     -0.051312  1 C  dzz               33     -0.050781  1 C  dyy        
    30     -0.047556  1 C  dxx               29     -0.027421  1 C  dzz        
    27     -0.025651  1 C  dyy        
 
 Vector    3  Occ=1.000000D+00  E=-6.763051D-01
              MO Center=  8.4D-16,  1.1D-15, -8.2D-16, r^2= 7.6D-01
   Bfn.  Coefficient  Atom+Function         Bfn.  Coefficient  Atom+Function  
  ----- ------------  ---------------      ----- ------------  ---------------
     7      0.435589  1 C  px                 3      0.302448  1 C  px         
    11      0.246145  1 C  px                 8      0.224537  1 C  py         
     9     -0.165732  1 C  pz                 4      0.155905  1 C  py         
    12      0.126882  1 C  py                 5     -0.115074  1 C  pz         
    13     -0.093652  1 C  pz         
 
 Vector    4  Occ=0.000000D+00  E=-6.132569D-01
              MO Center=  2.1D-16,  5.8D-16,  2.5D-16, r^2= 8.3D-01
   Bfn.  Coefficient  Atom+Function         Bfn.  Coefficient  Atom+Function  
  ----- ------------  ---------------      ----- ------------  ---------------
     9      0.440783  1 C  pz                 5      0.322899  1 C  pz         
    13      0.315798  1 C  pz                 8      0.131697  1 C  py         
     7      0.099821  1 C  px                 4      0.096476  1 C  py         
    12      0.094355  1 C  py                 3      0.073125  1 C  px         
    11      0.071517  1 C  px                38      0.035982  1 C  fxxz       
 
 Vector    5  Occ=0.000000D+00  E=-6.132567D-01
              MO Center=  9.0D-16, -9.8D-16,  2.4D-16, r^2= 8.3D-01
   Bfn.  Coefficient  Atom+Function         Bfn.  Coefficient  Atom+Function  
  ----- ------------  ---------------      ----- ------------  ---------------
     8      0.403122  1 C  py                 4      0.295310  1 C  py         
    12      0.288817  1 C  py                 7     -0.233507  1 C  px         
     3     -0.171057  1 C  px                11     -0.167297  1 C  px         
     9     -0.067564  1 C  pz                 5     -0.049495  1 C  pz         
    13     -0.048406  1 C  pz                37      0.030068  1 C  fxxy       
 
 Vector    6  Occ=0.000000D+00  E=-1.828431D-01
              MO Center=  1.2D-14,  1.1D-14, -1.4D-14, r^2= 6.3D+00
   Bfn.  Coefficient  Atom+Function         Bfn.  Coefficient  Atom+Function  
  ----- ------------  ---------------      ----- ------------  ---------------
    14      1.268667  1 C  s                 10     -0.432634  1 C  s          
     6     -0.382436  1 C  s                  2      0.084160  1 C  s          
     1      0.049519  1 C  s          
 
 Vector    7  Occ=0.000000D+00  E=-1.276298D-01
              MO Center= -1.9D-14, -9.4D-15,  6.3D-15, r^2= 8.0D+00
   Bfn.  Coefficient  Atom+Function         Bfn.  Coefficient  Atom+Function  
  ----- ------------  ---------------      ----- ------------  ---------------
    15      0.845486  1 C  px                16      0.436890  1 C  py         
    17     -0.324022  1 C  pz                 7     -0.194403  1 C  px         
     3     -0.111856  1 C  px                 8     -0.100417  1 C  py         
     9      0.074422  1 C  pz                 4     -0.057795  1 C  py         
     5      0.042858  1 C  pz         
 
 Vector    8  Occ=0.000000D+00  E=-1.197981D-01
              MO Center=  1.4D-15,  2.5D-15,  7.7D-15, r^2= 8.1D+00
   Bfn.  Coefficient  Atom+Function         Bfn.  Coefficient  Atom+Function  
  ----- ------------  ---------------      ----- ------------  ---------------
    17      0.970928  1 C  pz                15      0.315818  1 C  px         
     9     -0.210912  1 C  pz                 5     -0.128648  1 C  pz         
    16      0.108543  1 C  py                 7     -0.068676  1 C  px         
    13     -0.043173  1 C  pz                 3     -0.041855  1 C  px         
 
 Vector    9  Occ=0.000000D+00  E=-1.197858D-01
              MO Center=  2.7D-15, -5.1D-15, -1.4D-16, r^2= 8.1D+00
   Bfn.  Coefficient  Atom+Function         Bfn.  Coefficient  Atom+Function  
  ----- ------------  ---------------      ----- ------------  ---------------
    16      0.918338  1 C  py                15     -0.456852  1 C  px         
     8     -0.199530  1 C  py                 4     -0.121687  1 C  py         
     7      0.099294  1 C  px                 3      0.060541  1 C  px         
    17      0.045940  1 C  pz                12     -0.040772  1 C  py         
 
 Vector   10  Occ=0.000000D+00  E= 3.287652D-02
              MO Center=  2.9D-16,  5.5D-16, -1.7D-15, r^2= 3.0D+00
   Bfn.  Coefficient  Atom+Function         Bfn.  Coefficient  Atom+Function  
  ----- ------------  ---------------      ----- ------------  ---------------
    32      1.099444  1 C  dxz               34      0.691763  1 C  dyz        
    30      0.524256  1 C  dxx               35     -0.494017  1 C  dzz        
    31      0.211729  1 C  dxy               26      0.086991  1 C  dxz        
    28      0.054734  1 C  dyz               24      0.041496  1 C  dxx        
    29     -0.039072  1 C  dzz               33     -0.029926  1 C  dyy        
 
 Vector   11  Occ=0.000000D+00  E= 3.287727D-02
              MO Center= -8.6D-16,  1.5D-15,  3.6D-16, r^2= 3.0D+00
   Bfn.  Coefficient  Atom+Function         Bfn.  Coefficient  Atom+Function  
  ----- ------------  ---------------      ----- ------------  ---------------
    31      0.980639  1 C  dxy               33      0.650259  1 C  dyy        
    30     -0.545028  1 C  dxx               32      0.484002  1 C  dxz        
    34     -0.337423  1 C  dyz               35     -0.105301  1 C  dzz        
    25      0.077591  1 C  dxy               27      0.051447  1 C  dyy        
    24     -0.043128  1 C  dxx               26      0.038296  1 C  dxz        
 
 Vector   12  Occ=0.000000D+00  E= 3.688662D-02
              MO Center= -1.5D-18, -4.1D-16, -3.2D-16, r^2= 3.0D+00
   Bfn.  Coefficient  Atom+Function         Bfn.  Coefficient  Atom+Function  
  ----- ------------  ---------------      ----- ------------  ---------------
    31      1.054220  1 C  dxy               32     -0.777911  1 C  dxz        
    30      0.500841  1 C  dxx               34     -0.400983  1 C  dyz        
    35     -0.373787  1 C  dzz               33     -0.250185  1 C  dyy        
    25      0.081011  1 C  dxy               14      0.078947  1 C  s          
    26     -0.059778  1 C  dxz               24      0.040224  1 C  dxx        
 
 Vector   13  Occ=0.000000D+00  E= 4.015020D-02
              MO Center=  2.9D-16, -6.1D-16, -7.8D-17, r^2= 3.0D+00
   Bfn.  Coefficient  Atom+Function         Bfn.  Coefficient  Atom+Function  
  ----- ------------  ---------------      ----- ------------  ---------------
    32      0.705290  1 C  dxz               35      0.685779  1 C  dzz        
    33     -0.675401  1 C  dyy               31      0.560856  1 C  dxy        
    34     -0.355667  1 C  dyz               26      0.050909  1 C  dxz        
    29      0.049494  1 C  dzz               27     -0.048758  1 C  dyy        
    25      0.040483  1 C  dxy               28     -0.025672  1 C  dyz        
 
 Vector   14  Occ=0.000000D+00  E= 4.015022D-02
              MO Center=  5.8D-16, -1.3D-15, -7.5D-16, r^2= 3.0D+00
   Bfn.  Coefficient  Atom+Function         Bfn.  Coefficient  Atom+Function  
  ----- ------------  ---------------      ----- ------------  ---------------
    34      1.380814  1 C  dyz               31      0.587127  1 C  dxy        
    32     -0.481348  1 C  dxz               35      0.302796  1 C  dzz        
    30     -0.242923  1 C  dxx               28      0.099670  1 C  dyz        
    33     -0.059898  1 C  dyy               25      0.042380  1 C  dxy        
    26     -0.034744  1 C  dxz        
 
 Vector   15  Occ=0.000000D+00  E= 9.150818D-02
              MO Center= -1.3D-15,  7.2D-15, -8.5D-15, r^2= 8.0D+00
   Bfn.  Coefficient  Atom+Function         Bfn.  Coefficient  Atom+Function  
  ----- ------------  ---------------      ----- ------------  ---------------
    14      2.315192  1 C  s                 30     -1.391846  1 C  dxx        
    33     -1.362657  1 C  dyy               35     -1.357899  1 C  dzz        
    10      0.987817  1 C  s                 27     -0.305800  1 C  dyy        
    29     -0.306248  1 C  dzz               24     -0.303118  1 C  dxx        
     2     -0.211583  1 C  s                  6      0.176570  1 C  s          
 
 Vector   16  Occ=0.000000D+00  E= 1.966880D-01
              MO Center=  2.8D-16, -2.2D-15,  3.0D-15, r^2= 5.4D+00
   Bfn.  Coefficient  Atom+Function         Bfn.  Coefficient  Atom+Function  
  ----- ------------  ---------------      ----- ------------  ---------------
    11      1.409581  1 C  px                15     -0.812662  1 C  px         
    12      0.727130  1 C  py                 7     -0.704062  1 C  px         
    13     -0.537445  1 C  pz                16     -0.419184  1 C  py         
     8     -0.363205  1 C  py                17      0.309794  1 C  pz         
     9      0.268480  1 C  pz                 3     -0.186435  1 C  px         
 
 Vector   17  Occ=0.000000D+00  E= 2.117783D-01
              MO Center=  3.2D-15,  4.3D-16,  9.2D-15, r^2= 5.2D+00
   Bfn.  Coefficient  Atom+Function         Bfn.  Coefficient  Atom+Function  
  ----- ------------  ---------------      ----- ------------  ---------------
    13      1.582944  1 C  pz                17     -0.894156  1 C  pz         
     9     -0.816972  1 C  pz                11      0.481915  1 C  px         
    15     -0.272263  1 C  px                 7     -0.248693  1 C  px         
    12      0.235792  1 C  py                 5     -0.214353  1 C  pz         
    16     -0.133215  1 C  py                 8     -0.121680  1 C  py         
 
 Vector   18  Occ=0.000000D+00  E= 2.117856D-01
              MO Center=  3.4D-15, -6.4D-15,  1.6D-16, r^2= 5.2D+00
   Bfn.  Coefficient  Atom+Function         Bfn.  Coefficient  Atom+Function  
  ----- ------------  ---------------      ----- ------------  ---------------
    12      1.487043  1 C  py                16     -0.840015  1 C  py         
     8     -0.767464  1 C  py                11     -0.762980  1 C  px         
    15      0.431022  1 C  px                 7      0.393760  1 C  px         
     4     -0.201365  1 C  py                 3      0.103315  1 C  px         
    37      0.047308  1 C  fxxy              42      0.047266  1 C  fyyy       
 
 Vector   19  Occ=0.000000D+00  E= 8.005497D-01
              MO Center=  1.9D-15, -1.8D-16, -9.8D-16, r^2= 4.0D+00
   Bfn.  Coefficient  Atom+Function         Bfn.  Coefficient  Atom+Function  
  ----- ------------  ---------------      ----- ------------  ---------------
    10      7.762391  1 C  s                  6     -2.832117  1 C  s          
    33     -2.570246  1 C  dyy               35     -2.572464  1 C  dzz        
    30     -2.556784  1 C  dxx               14      1.523790  1 C  s          
    24     -0.937623  1 C  dxx               27     -0.915395  1 C  dyy        
    29     -0.911737  1 C  dzz               18     -0.217601  1 C  dxx        
 
 Vector   20  Occ=0.000000D+00  E= 1.092561D+00
              MO Center= -1.1D-17,  1.6D-16, -5.5D-16, r^2= 1.3D+00
   Bfn.  Coefficient  Atom+Function         Bfn.  Coefficient  Atom+Function  
  ----- ------------  ---------------      ----- ------------  ---------------
    26      1.379983  1 C  dxz               32     -0.725803  1 C  dxz        
    28      0.666102  1 C  dyz               29     -0.584909  1 C  dzz        
    25      0.545454  1 C  dxy               24      0.413644  1 C  dxx        
    34     -0.350337  1 C  dyz               35      0.307648  1 C  dzz        
    31     -0.286882  1 C  dxy               30     -0.217542  1 C  dxx        
 
 Vector   21  Occ=0.000000D+00  E= 1.092561D+00
              MO Center=  5.8D-17, -9.2D-16, -4.6D-17, r^2= 1.3D+00
   Bfn.  Coefficient  Atom+Function         Bfn.  Coefficient  Atom+Function  
  ----- ------------  ---------------      ----- ------------  ---------------
    25      1.028133  1 C  dxy               24     -0.773719  1 C  dxx        
    27      0.735587  1 C  dyy               28     -0.594596  1 C  dyz        
    31     -0.540747  1 C  dxy               30      0.406933  1 C  dxx        
    33     -0.386888  1 C  dyy               34      0.312728  1 C  dyz        
    26      0.194192  1 C  dxz               32     -0.102136  1 C  dxz        
 
 Vector   22  Occ=0.000000D+00  E= 1.100487D+00
              MO Center=  4.6D-16,  4.4D-16, -5.0D-16, r^2= 1.3D+00
   Bfn.  Coefficient  Atom+Function         Bfn.  Coefficient  Atom+Function  
  ----- ------------  ---------------      ----- ------------  ---------------
    25      1.219652  1 C  dxy               26     -0.900062  1 C  dxz        
    31     -0.640415  1 C  dxy               24      0.594689  1 C  dxx        
    32      0.472605  1 C  dxz               28     -0.464035  1 C  dyz        
    29     -0.416960  1 C  dzz               30     -0.403950  1 C  dxx        
    27     -0.273965  1 C  dyy               10      0.251752  1 C  s          
 
 Vector   23  Occ=0.000000D+00  E= 1.102503D+00
              MO Center= -4.6D-16,  3.1D-16, -6.0D-17, r^2= 1.3D+00
   Bfn.  Coefficient  Atom+Function         Bfn.  Coefficient  Atom+Function  
  ----- ------------  ---------------      ----- ------------  ---------------
    28      1.318547  1 C  dyz               25      0.878198  1 C  dxy        
    34     -0.685650  1 C  dyz               29      0.629772  1 C  dzz        
    31     -0.456666  1 C  dxy               27     -0.365245  1 C  dyy        
    35     -0.327484  1 C  dzz               24     -0.264526  1 C  dxx        
    26     -0.200461  1 C  dxz               33      0.189928  1 C  dyy        
 
 Vector   24  Occ=0.000000D+00  E= 1.102503D+00
              MO Center=  2.2D-16,  1.9D-15,  1.7D-16, r^2= 1.3D+00
   Bfn.  Coefficient  Atom+Function         Bfn.  Coefficient  Atom+Function  
  ----- ------------  ---------------      ----- ------------  ---------------
    28     -0.996246  1 C  dyz               26      0.969157  1 C  dxz        
    27     -0.695775  1 C  dyy               29      0.598644  1 C  dzz        
    34      0.518052  1 C  dyz               32     -0.503966  1 C  dxz        
    33      0.361808  1 C  dyy               25      0.338182  1 C  dxy        
    35     -0.311295  1 C  dzz               31     -0.175856  1 C  dxy        
 
 Vector   25  Occ=0.000000D+00  E= 2.134755D+00
              MO Center=  6.3D-16, -8.1D-16,  1.8D-16, r^2= 1.0D+00
   Bfn.  Coefficient  Atom+Function         Bfn.  Coefficient  Atom+Function  
  ----- ------------  ---------------      ----- ------------  ---------------
     5      1.066291  1 C  pz                 9     -0.819617  1 C  pz         
    13      0.796168  1 C  pz                45     -0.384532  1 C  fzzz       
    43     -0.377107  1 C  fyyz               3      0.365855  1 C  px         
    38     -0.336860  1 C  fxxz               7     -0.281217  1 C  px         
    17     -0.276529  1 C  pz                11      0.273175  1 C  px         
 
 Vector   26  Occ=0.000000D+00  E= 2.134756D+00
              MO Center= -3.9D-16,  2.1D-15,  2.1D-16, r^2= 1.0D+00
   Bfn.  Coefficient  Atom+Function         Bfn.  Coefficient  Atom+Function  
  ----- ------------  ---------------      ----- ------------  ---------------
     4      1.015054  1 C  py                 8     -0.780235  1 C  py         
    12      0.757913  1 C  py                 3     -0.487524  1 C  px         
     7      0.374738  1 C  px                44     -0.368824  1 C  fyzz       
    11     -0.364021  1 C  px                42     -0.356817  1 C  fyyy       
    37     -0.338549  1 C  fxxy              16     -0.263243  1 C  py         
 
 Vector   27  Occ=0.000000D+00  E= 2.140757D+00
              MO Center= -1.8D-15, -2.6D-16,  1.1D-15, r^2= 1.1D+00
   Bfn.  Coefficient  Atom+Function         Bfn.  Coefficient  Atom+Function  
  ----- ------------  ---------------      ----- ------------  ---------------
     3      0.952325  1 C  px                 7     -0.784895  1 C  px         
    11      0.719975  1 C  px                 4      0.490848  1 C  py         
     8     -0.404555  1 C  py                41     -0.381001  1 C  fxzz       
    12      0.371089  1 C  py                 5     -0.362327  1 C  pz         
    39     -0.313990  1 C  fxyy               9      0.298628  1 C  pz         
 
 Vector   28  Occ=0.000000D+00  E= 2.319837D+00
              MO Center=  2.8D-16, -9.5D-16, -5.5D-16, r^2= 7.9D-01
   Bfn.  Coefficient  Atom+Function         Bfn.  Coefficient  Atom+Function  
  ----- ------------  ---------------      ----- ------------  ---------------
    43      1.439879  1 C  fyyz              44      1.407577  1 C  fyzz       
    41     -1.147603  1 C  fxzz              39      0.973871  1 C  fxyy       
    37     -0.580540  1 C  fxxy              40     -0.413424  1 C  fxyz       
    45     -0.369965  1 C  fzzz              38     -0.329984  1 C  fxxz       
    42     -0.275680  1 C  fyyy              36      0.057912  1 C  fxxx       
 
 Vector   29  Occ=0.000000D+00  E= 2.319838D+00
              MO Center=  4.2D-16, -1.5D-15, -9.5D-16, r^2= 7.9D-01
   Bfn.  Coefficient  Atom+Function         Bfn.  Coefficient  Atom+Function  
  ----- ------------  ---------------      ----- ------------  ---------------
    40      2.144516  1 C  fxyz              44      1.301994  1 C  fyzz       
    43     -1.118717  1 C  fyyz              38     -0.564402  1 C  fxxz       
    45      0.561042  1 C  fzzz              42     -0.508147  1 C  fyyy       
    39      0.360138  1 C  fxyy              37      0.222453  1 C  fxxy       
    36     -0.109836  1 C  fxxx              41     -0.030632  1 C  fxzz       
 
 Vector   30  Occ=0.000000D+00  E= 2.322387D+00
              MO Center=  4.4D-16,  5.2D-16, -2.2D-16, r^2= 7.9D-01
   Bfn.  Coefficient  Atom+Function         Bfn.  Coefficient  Atom+Function  
  ----- ------------  ---------------      ----- ------------  ---------------
    40      1.366288  1 C  fxyz              43      1.327739  1 C  fyyz       
    37      1.310485  1 C  fxxy              41      1.222794  1 C  fxzz       
    45     -0.441130  1 C  fzzz              36     -0.426060  1 C  fxxx       
    42     -0.377910  1 C  fyyy              44     -0.176751  1 C  fyzz       
    39      0.055387  1 C  fxyy       
 
 Vector   31  Occ=0.000000D+00  E= 2.322389D+00
              MO Center= -1.8D-15, -9.3D-16,  9.0D-16, r^2= 7.9D-01
   Bfn.  Coefficient  Atom+Function         Bfn.  Coefficient  Atom+Function  
  ----- ------------  ---------------      ----- ------------  ---------------
    38      1.578684  1 C  fxxz              40     -1.201315  1 C  fxyz       
    44      1.182568  1 C  fyzz              39     -0.888740  1 C  fxyy       
    42     -0.567855  1 C  fyyy              43     -0.559916  1 C  fyyz       
    37      0.520992  1 C  fxxy              45     -0.339590  1 C  fzzz       
    41      0.261939  1 C  fxzz              36      0.208933  1 C  fxxx       
 
 Vector   32  Occ=0.000000D+00  E= 2.345477D+00
              MO Center=  8.7D-16, -8.9D-16, -2.4D-16, r^2= 7.9D-01
   Bfn.  Coefficient  Atom+Function         Bfn.  Coefficient  Atom+Function  
  ----- ------------  ---------------      ----- ------------  ---------------
    39      1.918071  1 C  fxyy              38      1.143014  1 C  fxxz       
    43     -0.737285  1 C  fyyz              37      0.732512  1 C  fxxy       
    41     -0.650295  1 C  fxzz              44     -0.618537  1 C  fyzz       
    36     -0.428646  1 C  fxxx              40     -0.193128  1 C  fxyz       
    45     -0.125461  1 C  fzzz               4     -0.039772  1 C  py         
 
 Vector   33  Occ=0.000000D+00  E= 2.345478D+00
              MO Center=  6.4D-16, -3.7D-16,  1.6D-15, r^2= 7.9D-01
   Bfn.  Coefficient  Atom+Function         Bfn.  Coefficient  Atom+Function  
  ----- ------------  ---------------      ----- ------------  ---------------
    40      1.947591  1 C  fxyz              41     -1.516224  1 C  fxzz       
    36      0.730770  1 C  fxxx              39     -0.645130  1 C  fxyy       
    44     -0.632555  1 C  fyzz              37      0.594693  1 C  fxxy       
    38      0.548741  1 C  fxxz              45     -0.238619  1 C  fzzz       
    43      0.222904  1 C  fyyz               5     -0.038996  1 C  pz         
 
 Vector   34  Occ=0.000000D+00  E= 2.349826D+00
              MO Center= -2.7D-16,  4.6D-17,  4.1D-16, r^2= 7.9D-01
   Bfn.  Coefficient  Atom+Function         Bfn.  Coefficient  Atom+Function  
  ----- ------------  ---------------      ----- ------------  ---------------
    40     -1.742587  1 C  fxyz              37      1.654775  1 C  fxxy       
    38     -1.221485  1 C  fxxz              41     -0.589419  1 C  fxzz       
    42     -0.432519  1 C  fyyy              45      0.387399  1 C  fzzz       
    44     -0.303817  1 C  fyzz              36      0.248434  1 C  fxxx       
     7      0.129166  1 C  px                 3     -0.127296  1 C  px         
 
 Vector   35  Occ=0.000000D+00  E= 2.709767D+00
              MO Center=  6.9D-15,  2.8D-15, -6.2D-16, r^2= 1.9D+00
   Bfn.  Coefficient  Atom+Function         Bfn.  Coefficient  Atom+Function  
  ----- ------------  ---------------      ----- ------------  ---------------
    10      8.122237  1 C  s                  6      3.534169  1 C  s          
    24     -3.472961  1 C  dxx               27     -3.464448  1 C  dyy        
    29     -3.463046  1 C  dzz               30     -2.078044  1 C  dxx        
    33     -2.082605  1 C  dyy               35     -2.083357  1 C  dzz        
     2     -1.442892  1 C  s                 14      0.863931  1 C  s          
 
 Vector   36  Occ=0.000000D+00  E= 6.394800D+00
              MO Center=  1.3D-16, -6.6D-16, -9.4D-17, r^2= 3.4D-01
   Bfn.  Coefficient  Atom+Function         Bfn.  Coefficient  Atom+Function  
  ----- ------------  ---------------      ----- ------------  ---------------
    22      1.069755  1 C  dyz               19      0.953651  1 C  dxy        
    23      0.769288  1 C  dzz               28     -0.583600  1 C  dyz        
    21     -0.530142  1 C  dyy               25     -0.520261  1 C  dxy        
    29     -0.419683  1 C  dzz               27      0.289215  1 C  dyy        
    18     -0.239148  1 C  dxx               34      0.179523  1 C  dyz        
 
 Vector   37  Occ=0.000000D+00  E= 6.394808D+00
              MO Center=  8.3D-16, -2.2D-15, -8.4D-16, r^2= 3.4D-01
   Bfn.  Coefficient  Atom+Function         Bfn.  Coefficient  Atom+Function  
  ----- ------------  ---------------      ----- ------------  ---------------
    22      1.306632  1 C  dyz               20     -1.010461  1 C  dxz        
    28     -0.712826  1 C  dyz               21      0.603134  1 C  dyy        
    26      0.551252  1 C  dxz               23     -0.442998  1 C  dzz        
    27     -0.329057  1 C  dyy               29      0.241656  1 C  dzz        
    34      0.219275  1 C  dyz               32     -0.169573  1 C  dxz        
 
 Vector   38  Occ=0.000000D+00  E= 6.412345D+00
              MO Center=  9.6D-16, -3.7D-16, -1.3D-15, r^2= 3.5D-01
   Bfn.  Coefficient  Atom+Function         Bfn.  Coefficient  Atom+Function  
  ----- ------------  ---------------      ----- ------------  ---------------
    20      1.248165  1 C  dxz               19      1.080262  1 C  dxy        
    26     -0.685758  1 C  dxz               21      0.594371  1 C  dyy        
    25     -0.593508  1 C  dxy               23     -0.454374  1 C  dzz        
    27     -0.326471  1 C  dyy               29      0.249723  1 C  dzz        
    32      0.211282  1 C  dxz               31      0.182860  1 C  dxy        
 
 Vector   39  Occ=0.000000D+00  E= 6.412350D+00
              MO Center=  5.4D-16, -1.2D-15,  1.3D-15, r^2= 3.5D-01
   Bfn.  Coefficient  Atom+Function         Bfn.  Coefficient  Atom+Function  
  ----- ------------  ---------------      ----- ------------  ---------------
    22      0.897101  1 C  dyz               18      0.887925  1 C  dxx        
    20      0.693401  1 C  dxz               19     -0.503306  1 C  dxy        
    21     -0.495344  1 C  dyy               28     -0.492879  1 C  dyz        
    24     -0.487871  1 C  dxx               23     -0.392625  1 C  dzz        
    26     -0.380963  1 C  dxz               25      0.276521  1 C  dxy        
 
 Vector   40  Occ=0.000000D+00  E= 6.433019D+00
              MO Center= -3.4D-15, -2.9D-15,  1.6D-15, r^2= 3.5D-01
   Bfn.  Coefficient  Atom+Function         Bfn.  Coefficient  Atom+Function  
  ----- ------------  ---------------      ----- ------------  ---------------
    19      1.252150  1 C  dxy               20     -0.923550  1 C  dxz        
    25     -0.692476  1 C  dxy               18      0.539030  1 C  dxx        
    24     -0.539720  1 C  dxx               26      0.510754  1 C  dxz        
    23     -0.499230  1 C  dzz               22     -0.476459  1 C  dyz        
     6      0.438031  1 C  s                 21     -0.352067  1 C  dyy        
 
 Vector   41  Occ=0.000000D+00  E= 7.766857D+00
              MO Center= -1.6D-14,  1.2D-14, -2.7D-14, r^2= 1.7D+00
   Bfn.  Coefficient  Atom+Function         Bfn.  Coefficient  Atom+Function  
  ----- ------------  ---------------      ----- ------------  ---------------
     9     12.129082  1 C  pz                 7      7.037901  1 C  px         
    38     -6.398435  1 C  fxxz              43     -6.398368  1 C  fyyz       
    45     -6.398239  1 C  fzzz               8     -4.701810  1 C  py         
    36     -3.712813  1 C  fxxx              39     -3.712423  1 C  fxyy       
    41     -3.712219  1 C  fxzz               5     -2.877878  1 C  pz         
 
 Vector   42  Occ=0.000000D+00  E= 7.766857D+00
              MO Center= -5.6D-15,  1.5D-14,  8.2D-15, r^2= 1.7D+00
   Bfn.  Coefficient  Atom+Function         Bfn.  Coefficient  Atom+Function  
  ----- ------------  ---------------      ----- ------------  ---------------
     8     12.467548  1 C  py                 9      7.013627  1 C  pz         
    37     -6.577049  1 C  fxxy              42     -6.576843  1 C  fyyy       
    44     -6.576677  1 C  fyzz               7     -3.758055  1 C  px         
    38     -3.700120  1 C  fxxz              43     -3.699617  1 C  fyyz       
    45     -3.699774  1 C  fzzz               4     -2.958187  1 C  py         
 
 Vector   43  Occ=0.000000D+00  E= 7.810752D+00
              MO Center= -5.8D-14, -2.7D-14,  2.2D-14, r^2= 1.7D+00
   Bfn.  Coefficient  Atom+Function         Bfn.  Coefficient  Atom+Function  
  ----- ------------  ---------------      ----- ------------  ---------------
     7     12.449818  1 C  px                36     -6.571608  1 C  fxxx       
    39     -6.570816  1 C  fxyy              41     -6.569398  1 C  fxzz       
     8      6.417178  1 C  py                 9     -4.736403  1 C  pz         
    37     -3.391321  1 C  fxxy              42     -3.385814  1 C  fyyy       
    44     -3.386154  1 C  fyzz               3     -2.951320  1 C  px         
 
 Vector   44  Occ=0.000000D+00  E= 8.244661D+00
              MO Center=  2.2D-14, -2.0D-15, -5.6D-15, r^2= 1.1D+00
   Bfn.  Coefficient  Atom+Function         Bfn.  Coefficient  Atom+Function  
  ----- ------------  ---------------      ----- ------------  ---------------
     6     13.766052  1 C  s                 10      5.928489  1 C  s          
    24     -5.491345  1 C  dxx               27     -5.511289  1 C  dyy        
    29     -5.514575  1 C  dzz                2     -3.342907  1 C  s          
    18     -3.199482  1 C  dxx               21     -3.171537  1 C  dyy        
    23     -3.166934  1 C  dzz               30     -1.467493  1 C  dxx        
 
 Vector   45  Occ=0.000000D+00  E= 2.840436D+01
              MO Center= -7.7D-16, -2.5D-15,  1.4D-15, r^2= 9.0D-02
   Bfn.  Coefficient  Atom+Function         Bfn.  Coefficient  Atom+Function  
  ----- ------------  ---------------      ----- ------------  ---------------
     6      4.143551  1 C  s                  1     -2.001730  1 C  s          
     2      1.545331  1 C  s                 24     -1.219256  1 C  dxx        
    27     -1.220843  1 C  dyy               29     -1.221105  1 C  dzz        
    18     -1.137436  1 C  dxx               21     -1.135713  1 C  dyy        
    23     -1.135429  1 C  dzz               10      0.517386  1 C  s          
 
 
                     DFT Final Beta Molecular Orbital Analysis
                     -----------------------------------------
 
 Vector    1  Occ=1.000000D+00  E=-1.066656D+01
              MO Center=  1.8D-18,  1.1D-17, -5.1D-18, r^2= 2.7D-02
   Bfn.  Coefficient  Atom+Function         Bfn.  Coefficient  Atom+Function  
  ----- ------------  ---------------      ----- ------------  ---------------
     1      0.564790  1 C  s                  2      0.463457  1 C  s          
 
 Vector    2  Occ=1.000000D+00  E=-9.138802D-01
              MO Center=  1.2D-15, -3.0D-15,  1.4D-15, r^2= 7.3D-01
   Bfn.  Coefficient  Atom+Function         Bfn.  Coefficient  Atom+Function  
  ----- ------------  ---------------      ----- ------------  ---------------
     6      0.699519  1 C  s                 10      0.538183  1 C  s          
     2     -0.229459  1 C  s                  1     -0.135517  1 C  s          
    30     -0.051471  1 C  dxx               33     -0.046501  1 C  dyy        
    35     -0.045682  1 C  dzz               24     -0.037081  1 C  dxx        
    25     -0.030453  1 C  dxy        
 
 Vector    3  Occ=0.000000D+00  E=-5.960525D-01
              MO Center= -2.6D-15,  3.4D-15, -1.8D-15, r^2= 8.4D-01
   Bfn.  Coefficient  Atom+Function         Bfn.  Coefficient  Atom+Function  
  ----- ------------  ---------------      ----- ------------  ---------------
     8      0.352057  1 C  py                 4      0.264917  1 C  py         
    12      0.263800  1 C  py                 7     -0.243968  1 C  px         
     3     -0.183582  1 C  px                11     -0.182807  1 C  px         
     9     -0.164237  1 C  pz                 5     -0.123586  1 C  pz         
    13     -0.123065  1 C  pz                39     -0.041231  1 C  fxyy       
 
 Vector    4  Occ=0.000000D+00  E=-5.960525D-01
              MO Center= -3.2D-16, -2.9D-17,  2.8D-16, r^2= 8.4D-01
   Bfn.  Coefficient  Atom+Function         Bfn.  Coefficient  Atom+Function  
  ----- ------------  ---------------      ----- ------------  ---------------
     9      0.402325  1 C  pz                 5      0.302743  1 C  pz         
    13      0.301466  1 C  pz                 8      0.216449  1 C  py         
     4      0.162874  1 C  py                12      0.162188  1 C  py         
     7      0.041504  1 C  px                43      0.039015  1 C  fyyz       
    45      0.036970  1 C  fzzz               3      0.031231  1 C  px         
 
 Vector    5  Occ=0.000000D+00  E=-5.214568D-01
              MO Center=  2.9D-16, -2.3D-16, -4.6D-16, r^2= 9.3D-01
   Bfn.  Coefficient  Atom+Function         Bfn.  Coefficient  Atom+Function  
  ----- ------------  ---------------      ----- ------------  ---------------
     7      0.344627  1 C  px                11      0.332028  1 C  px         
     3      0.284535  1 C  px                 8      0.177648  1 C  py         
    12      0.171153  1 C  py                 4      0.146672  1 C  py         
     9     -0.131125  1 C  pz                13     -0.126332  1 C  pz         
     5     -0.108261  1 C  pz                41      0.047127  1 C  fxzz       
 
 Vector    6  Occ=0.000000D+00  E=-1.688248D-01
              MO Center=  5.9D-15, -4.7D-15, -6.9D-15, r^2= 6.5D+00
   Bfn.  Coefficient  Atom+Function         Bfn.  Coefficient  Atom+Function  
  ----- ------------  ---------------      ----- ------------  ---------------
    14      1.332303  1 C  s                 10     -0.424540  1 C  s          
     6     -0.365942  1 C  s                  2      0.077350  1 C  s          
     1      0.049044  1 C  s                 30     -0.026834  1 C  dxx        
    31     -0.026122  1 C  dxy        
 
 Vector    7  Occ=0.000000D+00  E=-1.139500D-01
              MO Center= -2.4D-15,  5.5D-15,  5.1D-15, r^2= 8.2D+00
   Bfn.  Coefficient  Atom+Function         Bfn.  Coefficient  Atom+Function  
  ----- ------------  ---------------      ----- ------------  ---------------
    17      0.746079  1 C  pz                16      0.716638  1 C  py         
     9     -0.148384  1 C  pz                 8     -0.142529  1 C  py         
     5     -0.097527  1 C  pz                 4     -0.093678  1 C  py         
    15     -0.085539  1 C  px                13     -0.048374  1 C  pz         
    12     -0.046465  1 C  py         
 
 Vector    8  Occ=0.000000D+00  E=-1.139500D-01
              MO Center=  1.3D-15, -1.0D-15, -1.8D-15, r^2= 8.2D+00
   Bfn.  Coefficient  Atom+Function         Bfn.  Coefficient  Atom+Function  
  ----- ------------  ---------------      ----- ------------  ---------------
    17      0.640541  1 C  pz                16     -0.600799  1 C  py         
    15      0.553416  1 C  px                 9     -0.127394  1 C  pz         
     8      0.119490  1 C  py                 7     -0.110066  1 C  px         
     5     -0.083731  1 C  pz                 4      0.078536  1 C  py         
     3     -0.072342  1 C  px                13     -0.041531  1 C  pz         
 
 Vector    9  Occ=0.000000D+00  E=-1.018682D-01
              MO Center= -3.0D-15, -5.5D-16,  7.4D-16, r^2= 8.5D+00
   Bfn.  Coefficient  Atom+Function         Bfn.  Coefficient  Atom+Function  
  ----- ------------  ---------------      ----- ------------  ---------------
    15      0.904082  1 C  px                16      0.466035  1 C  py         
    17     -0.343990  1 C  pz                 7     -0.154687  1 C  px         
    11     -0.122836  1 C  px                 3     -0.117872  1 C  px         
     8     -0.079738  1 C  py                12     -0.063319  1 C  py         
     4     -0.060760  1 C  py                 9      0.058856  1 C  pz         
 
 Vector   10  Occ=0.000000D+00  E= 4.621744D-02
              MO Center= -1.2D-16,  6.5D-16,  4.7D-16, r^2= 3.0D+00
   Bfn.  Coefficient  Atom+Function         Bfn.  Coefficient  Atom+Function  
  ----- ------------  ---------------      ----- ------------  ---------------
    34      1.419180  1 C  dyz               32     -0.571957  1 C  dxz        
    31      0.508817  1 C  dxy               30     -0.239953  1 C  dxx        
    35      0.209729  1 C  dzz               28      0.095289  1 C  dyz        
    26     -0.038403  1 C  dxz               25      0.034164  1 C  dxy        
    33      0.030228  1 C  dyy        
 
 Vector   11  Occ=0.000000D+00  E= 4.621748D-02
              MO Center=  3.3D-16,  1.2D-15,  2.5D-15, r^2= 3.0D+00
   Bfn.  Coefficient  Atom+Function         Bfn.  Coefficient  Atom+Function  
  ----- ------------  ---------------      ----- ------------  ---------------
    35      0.721605  1 C  dzz               33     -0.678985  1 C  dyy        
    31      0.635341  1 C  dxy               32      0.636722  1 C  dxz        
    34     -0.169945  1 C  dyz               29      0.048451  1 C  dzz        
    27     -0.045589  1 C  dyy               25      0.042659  1 C  dxy        
    26      0.042752  1 C  dxz               30     -0.042620  1 C  dxx        
 
 Vector   12  Occ=0.000000D+00  E= 6.290816D-02
              MO Center=  1.1D-15,  8.5D-16, -2.3D-16, r^2= 3.0D+00
   Bfn.  Coefficient  Atom+Function         Bfn.  Coefficient  Atom+Function  
  ----- ------------  ---------------      ----- ------------  ---------------
    32      1.077546  1 C  dxz               31      0.911098  1 C  dxy        
    33      0.496551  1 C  dyy               35     -0.395332  1 C  dzz        
    34      0.169084  1 C  dyz               30     -0.101215  1 C  dxx        
    26      0.056649  1 C  dxz               25      0.047899  1 C  dxy        
    27      0.026105  1 C  dyy        
 
 Vector   13  Occ=0.000000D+00  E= 6.290824D-02
              MO Center= -3.2D-15, -1.5D-15,  1.0D-15, r^2= 3.0D+00
   Bfn.  Coefficient  Atom+Function         Bfn.  Coefficient  Atom+Function  
  ----- ------------  ---------------      ----- ------------  ---------------
    30      0.759583  1 C  dxx               34      0.761281  1 C  dyz        
    32      0.566005  1 C  dxz               31     -0.450894  1 C  dxy        
    33     -0.434262  1 C  dyy               35     -0.325322  1 C  dzz        
    24      0.039933  1 C  dxx               28      0.040022  1 C  dyz        
    26      0.029756  1 C  dxz        
 
 Vector   14  Occ=0.000000D+00  E= 6.682959D-02
              MO Center= -1.8D-16,  7.7D-16, -6.6D-16, r^2= 3.1D+00
   Bfn.  Coefficient  Atom+Function         Bfn.  Coefficient  Atom+Function  
  ----- ------------  ---------------      ----- ------------  ---------------
    31      1.063753  1 C  dxy               32     -0.785168  1 C  dxz        
    35     -0.487719  1 C  dzz               34     -0.404738  1 C  dyz        
    30      0.394713  1 C  dxx               33     -0.362917  1 C  dyy        
    14      0.277617  1 C  s                 10      0.108648  1 C  s          
    29     -0.050338  1 C  dzz               25      0.049963  1 C  dxy        
 
 Vector   15  Occ=0.000000D+00  E= 1.044615D-01
              MO Center= -4.5D-15,  2.9D-15, -6.1D-15, r^2= 7.8D+00
   Bfn.  Coefficient  Atom+Function         Bfn.  Coefficient  Atom+Function  
  ----- ------------  ---------------      ----- ------------  ---------------
    14      2.285269  1 C  s                 30     -1.460452  1 C  dxx        
    33     -1.380806  1 C  dyy               35     -1.367687  1 C  dzz        
    10      1.113948  1 C  s                 24     -0.320567  1 C  dxx        
    27     -0.306008  1 C  dyy               29     -0.303610  1 C  dzz        
     2     -0.212332  1 C  s                  6      0.136652  1 C  s          
 
 Vector   16  Occ=0.000000D+00  E= 2.220034D-01
              MO Center=  5.1D-15, -5.2D-15,  2.9D-15, r^2= 5.1D+00
   Bfn.  Coefficient  Atom+Function         Bfn.  Coefficient  Atom+Function  
  ----- ------------  ---------------      ----- ------------  ---------------
    12      1.217073  1 C  py                11     -0.898530  1 C  px         
    13     -0.712658  1 C  pz                16     -0.678887  1 C  py         
     8     -0.620282  1 C  py                15      0.501203  1 C  px         
     7      0.457936  1 C  px                17      0.397523  1 C  pz         
     9      0.363206  1 C  pz                 4     -0.165374  1 C  py         
 
 Vector   17  Occ=0.000000D+00  E= 2.220034D-01
              MO Center=  1.2D-15,  2.1D-15,  2.9D-15, r^2= 5.1D+00
   Bfn.  Coefficient  Atom+Function         Bfn.  Coefficient  Atom+Function  
  ----- ------------  ---------------      ----- ------------  ---------------
    13      1.414778  1 C  pz                12      0.887926  1 C  py         
    17     -0.789168  1 C  pz                 9     -0.721042  1 C  pz         
    16     -0.495288  1 C  py                 8     -0.452532  1 C  py         
     5     -0.192238  1 C  pz                 4     -0.120650  1 C  py         
    11      0.080596  1 C  px                15     -0.044956  1 C  px         
 
 Vector   18  Occ=0.000000D+00  E= 2.518831D-01
              MO Center=  2.8D-16, -4.5D-16,  1.8D-16, r^2= 4.8D+00
   Bfn.  Coefficient  Atom+Function         Bfn.  Coefficient  Atom+Function  
  ----- ------------  ---------------      ----- ------------  ---------------
    11      1.397323  1 C  px                15     -0.751640  1 C  px         
     7     -0.732506  1 C  px                12      0.720289  1 C  py         
    13     -0.531661  1 C  pz                16     -0.387454  1 C  py         
     8     -0.377591  1 C  py                17      0.285988  1 C  pz         
     9      0.278708  1 C  pz                 3     -0.202033  1 C  px         
 
 Vector   19  Occ=0.000000D+00  E= 8.326622D-01
              MO Center=  1.7D-16,  9.9D-16,  2.6D-16, r^2= 4.0D+00
   Bfn.  Coefficient  Atom+Function         Bfn.  Coefficient  Atom+Function  
  ----- ------------  ---------------      ----- ------------  ---------------
    10      7.831820  1 C  s                  6     -2.823497  1 C  s          
    30     -2.571781  1 C  dxx               33     -2.562945  1 C  dyy        
    35     -2.561489  1 C  dzz               14      1.499005  1 C  s          
    27     -0.956070  1 C  dyy               29     -0.959682  1 C  dzz        
    24     -0.934141  1 C  dxx               21     -0.219088  1 C  dyy        
 
 Vector   20  Occ=0.000000D+00  E= 1.122929D+00
              MO Center= -9.9D-17, -2.5D-17,  5.9D-17, r^2= 1.3D+00
   Bfn.  Coefficient  Atom+Function         Bfn.  Coefficient  Atom+Function  
  ----- ------------  ---------------      ----- ------------  ---------------
    28      1.578042  1 C  dyz               34     -0.815873  1 C  dyz        
    25      0.708297  1 C  dxy               26     -0.519670  1 C  dxz        
    29      0.386056  1 C  dzz               31     -0.366201  1 C  dxy        
    24     -0.281419  1 C  dxx               32      0.268678  1 C  dxz        
    35     -0.199597  1 C  dzz               30      0.145499  1 C  dxx        
 
 Vector   21  Occ=0.000000D+00  E= 1.122929D+00
              MO Center= -1.7D-16, -3.6D-16, -5.5D-16, r^2= 1.3D+00
   Bfn.  Coefficient  Atom+Function         Bfn.  Coefficient  Atom+Function  
  ----- ------------  ---------------      ----- ------------  ---------------
    26      0.840683  1 C  dxz               27     -0.777820  1 C  dyy        
    29      0.777138  1 C  dzz               25      0.617882  1 C  dxy        
    28     -0.483636  1 C  dyz               32     -0.434647  1 C  dxz        
    33      0.402145  1 C  dyy               35     -0.401793  1 C  dzz        
    31     -0.319455  1 C  dxy               34      0.250047  1 C  dyz        
 
 Vector   22  Occ=0.000000D+00  E= 1.173970D+00
              MO Center= -7.2D-18,  3.8D-16,  1.8D-16, r^2= 1.3D+00
   Bfn.  Coefficient  Atom+Function         Bfn.  Coefficient  Atom+Function  
  ----- ------------  ---------------      ----- ------------  ---------------
    26      1.309368  1 C  dxz               25      0.973415  1 C  dxy        
    32     -0.662168  1 C  dxz               27      0.503388  1 C  dyy        
    29     -0.497316  1 C  dzz               31     -0.492271  1 C  dxy        
    28      0.302199  1 C  dyz               33     -0.254571  1 C  dyy        
    35      0.251501  1 C  dzz               34     -0.152827  1 C  dyz        
 
 Vector   23  Occ=0.000000D+00  E= 1.173970D+00
              MO Center=  2.8D-16,  1.9D-16, -1.6D-16, r^2= 1.3D+00
   Bfn.  Coefficient  Atom+Function         Bfn.  Coefficient  Atom+Function  
  ----- ------------  ---------------      ----- ------------  ---------------
    24      0.880167  1 C  dxx               28      0.843218  1 C  dyz        
    25     -0.644898  1 C  dxy               27     -0.566307  1 C  dyy        
    26      0.490002  1 C  dxz               30     -0.445115  1 C  dxx        
    34     -0.426429  1 C  dyz               31      0.326135  1 C  dxy        
    29     -0.313859  1 C  dzz               33      0.286391  1 C  dyy        
 
 Vector   24  Occ=0.000000D+00  E= 1.188987D+00
              MO Center= -2.1D-16,  4.7D-16, -3.0D-16, r^2= 1.3D+00
   Bfn.  Coefficient  Atom+Function         Bfn.  Coefficient  Atom+Function  
  ----- ------------  ---------------      ----- ------------  ---------------
    25      1.226396  1 C  dxy               26     -0.905227  1 C  dxz        
    24      0.639333  1 C  dxx               31     -0.616717  1 C  dxy        
    28     -0.466625  1 C  dyz               32      0.455211  1 C  dxz        
    29     -0.378024  1 C  dzz               30     -0.276790  1 C  dxx        
    27     -0.234146  1 C  dyy               34      0.234651  1 C  dyz        
 
 Vector   25  Occ=0.000000D+00  E= 2.183149D+00
              MO Center= -5.3D-16,  6.2D-16,  2.0D-16, r^2= 1.0D+00
   Bfn.  Coefficient  Atom+Function         Bfn.  Coefficient  Atom+Function  
  ----- ------------  ---------------      ----- ------------  ---------------
     4      0.990920  1 C  py                 8     -0.827970  1 C  py         
    12      0.724255  1 C  py                 3     -0.571862  1 C  px         
     7      0.477823  1 C  px                11     -0.417969  1 C  px         
    44     -0.300586  1 C  fyzz              42     -0.294306  1 C  fyyy       
    39      0.282606  1 C  fxyy              37     -0.279069  1 C  fxxy       
 
 Vector   26  Occ=0.000000D+00  E= 2.183149D+00
              MO Center=  8.4D-17, -6.0D-16, -9.3D-16, r^2= 1.0D+00
   Bfn.  Coefficient  Atom+Function         Bfn.  Coefficient  Atom+Function  
  ----- ------------  ---------------      ----- ------------  ---------------
     5      1.082571  1 C  pz                 9     -0.904550  1 C  pz         
    13      0.791241  1 C  pz                43     -0.335310  1 C  fyyz       
    45     -0.335979  1 C  fzzz               4      0.318342  1 C  py         
    17     -0.272989  1 C  pz                 8     -0.265993  1 C  py         
    38     -0.254600  1 C  fxxz               3      0.247800  1 C  px         
 
 Vector   27  Occ=0.000000D+00  E= 2.230296D+00
              MO Center= -1.1D-15, -7.4D-16,  4.2D-16, r^2= 1.0D+00
   Bfn.  Coefficient  Atom+Function         Bfn.  Coefficient  Atom+Function  
  ----- ------------  ---------------      ----- ------------  ---------------
     3      0.974176  1 C  px                 7     -0.817529  1 C  px         
    11      0.704390  1 C  px                 4      0.502166  1 C  py         
     8     -0.421419  1 C  py                 5     -0.370657  1 C  pz         
    12      0.363097  1 C  py                41     -0.330261  1 C  fxzz       
     9      0.311055  1 C  pz                39     -0.288054  1 C  fxyy       
 
 Vector   28  Occ=0.000000D+00  E= 2.358753D+00
              MO Center=  1.3D-16, -1.9D-16,  9.0D-17, r^2= 7.9D-01
   Bfn.  Coefficient  Atom+Function         Bfn.  Coefficient  Atom+Function  
  ----- ------------  ---------------      ----- ------------  ---------------
    40      2.165989  1 C  fxyz              43     -1.513239  1 C  fyyz       
    44      0.796229  1 C  fyzz              45      0.648651  1 C  fzzz       
    38     -0.432714  1 C  fxxz              42     -0.396372  1 C  fyyy       
    37      0.392887  1 C  fxxy              41      0.329966  1 C  fxzz       
    36     -0.122388  1 C  fxxx              39      0.037199  1 C  fxyy       
 
 Vector   29  Occ=0.000000D+00  E= 2.358753D+00
              MO Center=  2.6D-16, -1.6D-16,  4.6D-16, r^2= 7.9D-01
   Bfn.  Coefficient  Atom+Function         Bfn.  Coefficient  Atom+Function  
  ----- ------------  ---------------      ----- ------------  ---------------
    44      1.744215  1 C  fyzz              41     -1.099703  1 C  fxzz       
    39      1.037759  1 C  fxyy              43      1.017389  1 C  fyyz       
    38     -0.490176  1 C  fxxz              37     -0.481976  1 C  fxxy       
    42     -0.420746  1 C  fyyy              40      0.278410  1 C  fxyz       
    45     -0.175738  1 C  fzzz       
 
 Vector   30  Occ=0.000000D+00  E= 2.396903D+00
              MO Center=  3.2D-16,  9.5D-18, -3.3D-16, r^2= 7.9D-01
   Bfn.  Coefficient  Atom+Function         Bfn.  Coefficient  Atom+Function  
  ----- ------------  ---------------      ----- ------------  ---------------
    40      1.760908  1 C  fxyz              43      1.437605  1 C  fyyz       
    41      0.974199  1 C  fxzz              37      0.935997  1 C  fxxy       
    38     -0.714186  1 C  fxxz              44     -0.689700  1 C  fyzz       
    36     -0.474501  1 C  fxxx              39      0.449302  1 C  fxyy       
    45     -0.241140  1 C  fzzz              42     -0.082099  1 C  fyyy       
 
 Vector   31  Occ=0.000000D+00  E= 2.396903D+00
              MO Center=  6.5D-16, -8.4D-17,  9.1D-17, r^2= 7.9D-01
   Bfn.  Coefficient  Atom+Function         Bfn.  Coefficient  Atom+Function  
  ----- ------------  ---------------      ----- ------------  ---------------
    38      1.407893  1 C  fxxz              37      1.054791  1 C  fxxy       
    44      0.976834  1 C  fyzz              41      0.783856  1 C  fxzz       
    39     -0.768679  1 C  fxyy              42     -0.677208  1 C  fyyy       
    45     -0.501785  1 C  fzzz              40     -0.458209  1 C  fxyz       
    43      0.097462  1 C  fyyz       
 
 Vector   32  Occ=0.000000D+00  E= 2.417844D+00
              MO Center=  5.1D-18, -3.1D-16,  2.9D-16, r^2= 7.9D-01
   Bfn.  Coefficient  Atom+Function         Bfn.  Coefficient  Atom+Function  
  ----- ------------  ---------------      ----- ------------  ---------------
    40      1.819060  1 C  fxyz              39     -1.443532  1 C  fxyy       
    41     -1.047213  1 C  fxzz              36      0.849235  1 C  fxxx       
    43      0.538490  1 C  fyyz              44     -0.285409  1 C  fyzz       
    37      0.189784  1 C  fxxy              45     -0.150596  1 C  fzzz       
     8     -0.041639  1 C  py                 4      0.040018  1 C  py         
 
 Vector   33  Occ=0.000000D+00  E= 2.417844D+00
              MO Center= -1.6D-17, -1.3D-16,  1.3D-16, r^2= 7.9D-01
   Bfn.  Coefficient  Atom+Function         Bfn.  Coefficient  Atom+Function  
  ----- ------------  ---------------      ----- ------------  ---------------
    39      1.410679  1 C  fxyy              38      1.272282  1 C  fxxz       
    41     -1.269380  1 C  fxzz              37      0.927111  1 C  fxxy       
    44     -0.833192  1 C  fyzz              40      0.716237  1 C  fxyz       
    43     -0.547689  1 C  fyyz              45     -0.214212  1 C  fzzz       
     9      0.050205  1 C  pz                 5     -0.048250  1 C  pz         
 
 Vector   34  Occ=0.000000D+00  E= 2.425147D+00
              MO Center=  3.7D-16, -3.2D-16, -1.9D-16, r^2= 7.9D-01
   Bfn.  Coefficient  Atom+Function         Bfn.  Coefficient  Atom+Function  
  ----- ------------  ---------------      ----- ------------  ---------------
    40     -1.750700  1 C  fxyz              37      1.663364  1 C  fxxy       
    38     -1.227761  1 C  fxxz              41     -0.590143  1 C  fxzz       
    42     -0.433491  1 C  fyyy              45      0.388431  1 C  fzzz       
    44     -0.304207  1 C  fyzz              36      0.251441  1 C  fxxx       
     7      0.072622  1 C  px                 3     -0.070675  1 C  px         
 
 Vector   35  Occ=0.000000D+00  E= 2.762736D+00
              MO Center=  3.8D-15,  2.0D-15,  1.9D-15, r^2= 1.8D+00
   Bfn.  Coefficient  Atom+Function         Bfn.  Coefficient  Atom+Function  
  ----- ------------  ---------------      ----- ------------  ---------------
    10      8.074489  1 C  s                  6      3.678726  1 C  s          
    24     -3.499196  1 C  dxx               27     -3.497640  1 C  dyy        
    29     -3.497384  1 C  dzz               30     -2.064670  1 C  dxx        
    33     -2.065486  1 C  dyy               35     -2.065620  1 C  dzz        
     2     -1.465010  1 C  s                 14      0.853967  1 C  s          
 
 Vector   36  Occ=0.000000D+00  E= 6.473988D+00
              MO Center=  1.7D-16, -2.8D-16,  1.2D-16, r^2= 3.5D-01
   Bfn.  Coefficient  Atom+Function         Bfn.  Coefficient  Atom+Function  
  ----- ------------  ---------------      ----- ------------  ---------------
    22     -1.098236  1 C  dyz               20      1.000819  1 C  dxz        
    21     -0.686833  1 C  dyy               28      0.602116  1 C  dyz        
    23      0.571242  1 C  dzz               26     -0.548706  1 C  dxz        
    27      0.376562  1 C  dyy               29     -0.313188  1 C  dzz        
    19      0.290239  1 C  dxy               34     -0.184950  1 C  dyz        
 
 Vector   37  Occ=0.000000D+00  E= 6.473988D+00
              MO Center=  3.3D-17,  3.8D-17,  1.7D-16, r^2= 3.5D-01
   Bfn.  Coefficient  Atom+Function         Bfn.  Coefficient  Atom+Function  
  ----- ------------  ---------------      ----- ------------  ---------------
    22      1.282614  1 C  dyz               19      0.916749  1 C  dxy        
    28     -0.703203  1 C  dyz               23      0.679557  1 C  dzz        
    25     -0.502615  1 C  dxy               21     -0.415876  1 C  dyy        
    29     -0.372573  1 C  dzz               18     -0.263681  1 C  dxx        
    27      0.228007  1 C  dyy               34      0.216001  1 C  dyz        
 
 Vector   38  Occ=0.000000D+00  E= 6.515335D+00
              MO Center= -7.6D-17, -9.2D-17,  9.9D-17, r^2= 3.4D-01
   Bfn.  Coefficient  Atom+Function         Bfn.  Coefficient  Atom+Function  
  ----- ------------  ---------------      ----- ------------  ---------------
    20      1.385565  1 C  dxz               19      0.911869  1 C  dxy        
    26     -0.756488  1 C  dxz               23     -0.541228  1 C  dzz        
    25     -0.497860  1 C  dxy               21      0.444276  1 C  dyy        
    22      0.405325  1 C  dyz               29      0.295498  1 C  dzz        
    27     -0.242566  1 C  dyy               32      0.231848  1 C  dxz        
 
 Vector   39  Occ=0.000000D+00  E= 6.515335D+00
              MO Center=  2.5D-16,  9.6D-17, -5.9D-17, r^2= 3.4D-01
   Bfn.  Coefficient  Atom+Function         Bfn.  Coefficient  Atom+Function  
  ----- ------------  ---------------      ----- ------------  ---------------
    18      0.893529  1 C  dxx               22      0.819916  1 C  dyz        
    19     -0.768186  1 C  dxy               21     -0.633412  1 C  dyy        
    24     -0.487848  1 C  dxx               28     -0.447656  1 C  dyz        
    25      0.419413  1 C  dxy               27      0.345829  1 C  dyy        
    20      0.343650  1 C  dxz               23     -0.260117  1 C  dzz        
 
 Vector   40  Occ=0.000000D+00  E= 6.527612D+00
              MO Center=  3.0D-17,  9.6D-17, -5.4D-17, r^2= 3.4D-01
   Bfn.  Coefficient  Atom+Function         Bfn.  Coefficient  Atom+Function  
  ----- ------------  ---------------      ----- ------------  ---------------
    19      1.252424  1 C  dxy               20     -0.924458  1 C  dxz        
    25     -0.682855  1 C  dxy               18      0.636229  1 C  dxx        
    26      0.504039  1 C  dxz               22     -0.476542  1 C  dyz        
    23     -0.402707  1 C  dzz               24     -0.377421  1 C  dxx        
    28      0.259824  1 C  dyz               21     -0.255780  1 C  dyy        
 
 Vector   41  Occ=0.000000D+00  E= 7.807013D+00
              MO Center= -7.2D-17,  1.6D-15,  1.4D-15, r^2= 1.7D+00
   Bfn.  Coefficient  Atom+Function         Bfn.  Coefficient  Atom+Function  
  ----- ------------  ---------------      ----- ------------  ---------------
     8     10.519750  1 C  py                 9     10.279057  1 C  pz         
    37     -5.552964  1 C  fxxy              42     -5.553049  1 C  fyyy       
    44     -5.553123  1 C  fyzz              38     -5.425875  1 C  fxxz       
    43     -5.426053  1 C  fyyz              45     -5.426013  1 C  fzzz       
     4     -2.490747  1 C  py                 5     -2.433759  1 C  pz         
 
 Vector   42  Occ=0.000000D+00  E= 7.807013D+00
              MO Center=  3.2D-15, -3.4D-15,  4.0D-15, r^2= 1.7D+00
   Bfn.  Coefficient  Atom+Function         Bfn.  Coefficient  Atom+Function  
  ----- ------------  ---------------      ----- ------------  ---------------
     9      9.513835  1 C  pz                 8     -8.170738  1 C  py         
     7      7.831689  1 C  px                38     -5.022044  1 C  fxxz       
    43     -5.022014  1 C  fyyz              45     -5.022074  1 C  fzzz       
    37      4.313108  1 C  fxxy              42      4.313079  1 C  fyyy       
    44      4.313041  1 C  fyzz              36     -4.134026  1 C  fxxx       
 
 Vector   43  Occ=0.000000D+00  E= 7.845309D+00
              MO Center=  7.5D-15,  4.1D-15, -2.9D-15, r^2= 1.7D+00
   Bfn.  Coefficient  Atom+Function         Bfn.  Coefficient  Atom+Function  
  ----- ------------  ---------------      ----- ------------  ---------------
     7     12.449656  1 C  px                36     -6.571844  1 C  fxxx       
    39     -6.571856  1 C  fxyy              41     -6.571877  1 C  fxzz       
     8      6.417526  1 C  py                 9     -4.736881  1 C  pz         
    37     -3.387583  1 C  fxxy              42     -3.387665  1 C  fyyy       
    44     -3.387660  1 C  fyzz               3     -2.946533  1 C  px         
 
 Vector   44  Occ=0.000000D+00  E= 8.330722D+00
              MO Center= -1.3D-14, -4.8D-15, -4.3D-15, r^2= 1.1D+00
   Bfn.  Coefficient  Atom+Function         Bfn.  Coefficient  Atom+Function  
  ----- ------------  ---------------      ----- ------------  ---------------
     6     13.731391  1 C  s                 10      5.884501  1 C  s          
    24     -5.480599  1 C  dxx               27     -5.482285  1 C  dyy        
    29     -5.482563  1 C  dzz                2     -3.337747  1 C  s          
    18     -3.173259  1 C  dxx               21     -3.172691  1 C  dyy        
    23     -3.172597  1 C  dzz               30     -1.452755  1 C  dxx        
 
 Vector   45  Occ=0.000000D+00  E= 2.845034D+01
              MO Center=  9.6D-17,  1.9D-17,  2.9D-17, r^2= 9.1D-02
   Bfn.  Coefficient  Atom+Function         Bfn.  Coefficient  Atom+Function  
  ----- ------------  ---------------      ----- ------------  ---------------
     6      4.169306  1 C  s                  1     -1.999804  1 C  s          
     2      1.539448  1 C  s                 24     -1.229378  1 C  dxx        
    27     -1.229196  1 C  dyy               29     -1.229166  1 C  dzz        
    18     -1.142759  1 C  dxx               21     -1.142728  1 C  dyy        
    23     -1.142723  1 C  dzz               10      0.524696  1 C  s          
 

   alpha - beta orbital overlaps 
   ----------------------------- 


   alpha      1      2      3      4      5      6      7      8      9     10
    beta      1      2      5      4      3      6      9      7      8     13
 overlap   1.000  0.998  0.995  0.972  0.972  0.999  0.995  0.727  0.727  0.782


   alpha     11     12     13     14     15     16     17     18     19     20
    beta     12     14     11     10     15     18     17     16     19     22
 overlap   0.782  0.996  0.991  0.991  0.996  0.995  0.890  0.890  0.998  0.878


   alpha     21     22     23     24     25     26     27     28     29     30
    beta     23     24     20     21     26     25     27     29     28     30
 overlap   0.878  0.997  0.939  0.939  0.972  0.972  0.999  0.950  0.950  0.893


   alpha     31     32     33     34     35     36     37     38     39     40
    beta     31     33     32     34     35     37     36     38     39     40
 overlap   0.893  0.890  0.890  0.999  1.000  0.984  0.984  0.965  0.965  0.999


   alpha     41     42     43     44     45
    beta     42     41     43     44     45
 overlap   0.955  0.955  1.000  0.999  1.000

     --------------------------
     Expectation value of S2:  
     --------------------------
      <S2> =      0.7531 (Exact =     0.7500)
 

 Parallel integral file used      16 records with       0 large values


 Task  times  cpu:        1.6s     wall:        2.5s
 
 
                                NWChem Input Module
                                -------------------
 
 
 Summary of allocated global arrays
-----------------------------------
  No active global arrays



                         GA Statistics for process    0
                         ------------------------------

       create   destroy   get      put      acc     scatter   gather  read&inc
calls:  199      199      743      464      134        0        0       27     
number of processes/call 1.62e+00 1.44e+00 3.82e+00 0.00e+00 0.00e+00
bytes total:             6.35e+06 2.37e+06 2.17e+06 0.00e+00 0.00e+00 2.16e+02
bytes remote:            4.65e+05 8.33e+04 5.11e+05 0.00e+00 0.00e+00 0.00e+00
Max memory consumed for GA by this process: 1053000 bytes
 
MA_summarize_allocated_blocks: starting scan ...
MA_summarize_allocated_blocks: scan completed: 0 heap blocks, 0 stack blocks
MA usage statistics:

	allocation statistics:
					      heap	     stack
					      ----	     -----
	current number of blocks	         0	         0
	maximum number of blocks	        21	        53
	current total bytes		         0	         0
	maximum total bytes		   1787144	  22512568
	maximum total K-bytes		      1788	     22513
	maximum total M-bytes		         2	        23
 
 
                                     CITATION
                                     --------
                Please cite the following reference when publishing
                           results obtained with NWChem:
 
                 M. Valiev, E.J. Bylaska, N. Govind, K. Kowalski,
              T.P. Straatsma, H.J.J. van Dam, D. Wang, J. Nieplocha,
                        E. Apra, T.L. Windus, W.A. de Jong
                 "NWChem: a comprehensive and scalable open-source
                  solution for large scale molecular simulations"
                      Comput. Phys. Commun. 181, 1477 (2010)
                           doi:10.1016/j.cpc.2010.04.018
 
                                      AUTHORS
                                      -------
          E. Apra, E. J. Bylaska, W. A. de Jong, N. Govind, K. Kowalski,
       T. P. Straatsma, M. Valiev, H. J. J. van Dam, D. Wang, T. L. Windus,
        J. Hammond, J. Autschbach, K. Bhaskaran-Nair, J. Brabec, K. Lopata,
    S. A. Fischer, S. Krishnamoorthy, M. Jacquelin, W. Ma, M. Klemm, O. Villa,
      Y. Chen, V. Anisimov, F. Aquino, S. Hirata, M. T. Hackler, V. Konjkov,
            D. Mejia-Rodriguez, T. Risthaus, M. Malagoli, A. Marenich,
   A. Otero-de-la-Roza, J. Mullin, P. Nichols, R. Peverati, J. Pittner, Y. Zhao,
        P.-D. Fan, A. Fonari, M. J. Williamson, R. J. Harrison, J. R. Rehr,
      M. Dupuis, D. Silverstein, D. M. A. Smith, J. Nieplocha, V. Tipparaju,
    M. Krishnan, B. E. Van Kuiken, A. Vazquez-Mayagoitia, L. Jensen, M. Swart,
      Q. Wu, T. Van Voorhis, A. A. Auer, M. Nooijen, L. D. Crosby, E. Brown,
      G. Cisneros, G. I. Fann, H. Fruchtl, J. Garza, K. Hirao, R. A. Kendall,
      J. A. Nichols, K. Tsemekhman, K. Wolinski, J. Anchell, D. E. Bernholdt,
      P. Borowski, T. Clark, D. Clerc, H. Dachsel, M. J. O. Deegan, K. Dyall,
    D. Elwood, E. Glendening, M. Gutowski, A. C. Hess, J. Jaffe, B. G. Johnson,
     J. Ju, R. Kobayashi, R. Kutteh, Z. Lin, R. Littlefield, X. Long, B. Meng,
      T. Nakajima, S. Niu, L. Pollack, M. Rosing, K. Glaesemann, G. Sandrone,
      M. Stave, H. Taylor, G. Thomas, J. H. van Lenthe, A. T. Wong, Z. Zhang.

 Total times  cpu:        1.7s     wall:        2.7s
