 argument  1 = /storage/home/rabeet/work/nwc/ip13/nwtpss/Cl+.nw
  NWChem w/ OpenMP: maximum threads =  1
                                         
                                         
 
 
              Northwest Computational Chemistry Package (NWChem) 6.8
              ------------------------------------------------------
 
 
                    Environmental Molecular Sciences Laboratory
                       Pacific Northwest National Laboratory
                                Richland, WA 99352
 
                              Copyright (c) 1994-2018
                       Pacific Northwest National Laboratory
                            Battelle Memorial Institute
 
             NWChem is an open-source computational chemistry package
                        distributed under the terms of the
                      Educational Community License (ECL) 2.0
             A copy of the license is included with this distribution
                              in the LICENSE.TXT file
 
                                  ACKNOWLEDGMENT
                                  --------------

            This software and its documentation were developed at the
            EMSL at Pacific Northwest National Laboratory, a multiprogram
            national laboratory, operated for the U.S. Department of Energy
            by Battelle under Contract Number DE-AC05-76RL01830. Support
            for this work was provided by the Department of Energy Office
            of Biological and Environmental Research, Office of Basic
            Energy Sciences, and the Office of Advanced Scientific Computing.


           Job information
           ---------------

    hostname        = r8n4.niserhpc.org
    program         = /home/rabeet/nwchem-6.8/bin/LINUX64/nwchem
    date            = Sun Oct 27 10:43:39 2019

    compiled        = Fri_Jun_28_18:24:12_2019
    source          = /home/rabeet/nwchem-6.8
    nwchem branch   = Development
    nwchem revision = N/A
    ga revision     = 5.6.5
    use scalapack   = T
    input           = /storage/home/rabeet/work/nwc/ip13/nwtpss/Cl+.nw
    prefix          = Cl+.
    data base       = ./Cl+.db
    status          = startup
    nproc           =       16
    time left       =     -1s



           Memory information
           ------------------

    heap     =   13107194 doubles =    100.0 Mbytes
    stack    =   13107199 doubles =    100.0 Mbytes
    global   =   26214400 doubles =    200.0 Mbytes (distinct from heap & stack)
    total    =   52428793 doubles =    400.0 Mbytes
    verify   = yes
    hardfail = no 


           Directory information
           ---------------------
 
  0 permanent = .
  0 scratch   = .
 
 
 
 
                                NWChem Input Module
                                -------------------
 
 

 Scaling coordinates for geometry "geometry" by  1.889725989
 (inverse scale =  0.529177249)

 
 
                             Geometry "geometry" -> ""
                             -------------------------
 
 Output coordinates in angstroms (scale by  1.889725989 to convert to a.u.)
 
  No.       Tag          Charge          X              Y              Z
 ---- ---------------- ---------- -------------- -------------- --------------
    1 Cl                  17.0000     0.00000000     0.00000000     0.00000000
 
      Atomic Mass 
      ----------- 
 
      Cl                34.968850
 

 Effective nuclear repulsion energy (a.u.)       0.0000000000

            Nuclear Dipole moment (a.u.) 
            ----------------------------
        X                 Y               Z
 ---------------- ---------------- ----------------
     0.0000000000     0.0000000000     0.0000000000
 
 
            XYZ format geometry
            -------------------
     1
 geometry
 Cl                    0.00000000     0.00000000     0.00000000
 


 Summary of "ao basis" -> "" (cartesian)
 ------------------------------------------------------------------------------
       Tag                 Description            Shells   Functions and Types
 ---------------- ------------------------------  ------  ---------------------
 *                     6-311++G(3df,3pd)              on all atoms 


 
                                 NWChem DFT Module
                                 -----------------
 
 
                      Basis "ao basis" -> "ao basis" (cartesian)
                      -----
  Cl (Chlorine)
  -------------
            Exponent  Coefficients 
       -------------- ---------------------------------------------------------
  1 S  1.05819000E+05  0.000738
  1 S  1.58720000E+04  0.005718
  1 S  3.61965000E+03  0.029495
  1 S  1.03080000E+03  0.117286
  1 S  3.39908000E+02  0.362949
  1 S  1.24538000E+02  0.584149
 
  2 S  1.24538000E+02  0.134177
  2 S  4.95135000E+01  0.624250
  2 S  2.08056000E+01  0.291756
 
  3 S  6.58346000E+00  1.000000
 
  4 S  2.56468000E+00  1.000000
 
  5 S  5.59763000E-01  1.000000
 
  6 S  1.83273000E-01  1.000000
 
  7 P  5.89776000E+02  0.002391
  7 P  1.39849000E+02  0.018504
  7 P  4.51413000E+01  0.081377
  7 P  1.68733000E+01  0.221552
  7 P  6.74110000E+00  0.772569
 
  8 P  6.74110000E+00 -1.572244
  8 P  2.77152000E+00  0.992389
 
  9 P  1.02387000E+00  1.000000
 
 10 P  3.81368000E-01  1.000000
 
 11 P  1.09437000E-01  1.000000
 
 12 S  4.83000000E-02  1.000000
 
 13 P  4.83000000E-02  1.000000
 
 14 D  3.00000000E+00  1.000000
 
 15 D  7.50000000E-01  1.000000
 
 16 D  1.87500000E-01  1.000000
 
 17 F  7.00000000E-01  1.000000
 


 Summary of "ao basis" -> "ao basis" (cartesian)
 ------------------------------------------------------------------------------
       Tag                 Description            Shells   Functions and Types
 ---------------- ------------------------------  ------  ---------------------
 Cl                    6-311++G(3df,3pd)            17       53   7s6p3d1f




 Summary of "ao basis" -> "ao basis" (cartesian)
 ------------------------------------------------------------------------------
       Tag                 Description            Shells   Functions and Types
 ---------------- ------------------------------  ------  ---------------------
 Cl                    6-311++G(3df,3pd)            17       53   7s6p3d1f


  Caching 1-el integrals 
 
            General Information
            -------------------
          SCF calculation type: DFT
          Wavefunction type:  spin polarized.
          No. of atoms     :     1
          No. of electrons :    16
           Alpha electrons :     9
            Beta electrons :     7
          Charge           :     1
          Spin multiplicity:     3
          Use of symmetry is: off; symmetry adaption is: off
          Maximum number of iterations: ***
          AO basis - number of functions:    53
                     number of shells:    17
          Convergence on energy requested:  1.00D-06
          Convergence on density requested:  1.00D-05
          Convergence on gradient requested:  5.00D-04
 
              XC Information
              --------------
                  TPSS metaGGA Exchange Functional  1.000          
             TPSS03 metaGGA Correlation Functional  1.000          
 
             Grid Information
             ----------------
          Grid used for XC integration:  medium    
          Radial quadrature: Mura-Knowles        
          Angular quadrature: Lebedev. 
          Tag              B.-S. Rad. Rad. Pts. Rad. Cut. Ang. Pts.
          ---              ---------- --------- --------- ---------
          Cl                  1.00       88           7.0       590
          Grid pruning is: on 
          Number of quadrature shells:    88
          Spatial weights used:  Erf1
 
          Convergence Information
          -----------------------
          Convergence aids based upon iterative change in 
          total energy or number of iterations. 
          Levelshifting, if invoked, occurs when the 
          HOMO/LUMO gap drops below (HL_TOL):  1.00D-02
          DIIS, if invoked, will attempt to extrapolate 
          using up to (NFOCK): 10 stored Fock matrices.

                    Damping( 0%)  Levelshifting(0.5)       DIIS
                  --------------- ------------------- ---------------
          dE  on:    start            ASAP                start   
          dE off:    2 iters        *** iters           *** iters 

 
      Screening Tolerance Information
      -------------------------------
          Density screening/tol_rho:  1.00D-10
          AO Gaussian exp screening on grid/accAOfunc:  14
          CD Gaussian exp screening on grid/accCDfunc:  20
          XC Gaussian exp screening on grid/accXCfunc:  20
          Schwarz screening/accCoul:  1.00D-08

 
      Superposition of Atomic Density Guess
      -------------------------------------
 
 Sum of atomic energies:        -459.47804774

 Renormalizing density from      17.00 to     16
 
      Non-variational initial energy
      ------------------------------

 Total energy =    -441.977465
 1-e energy   =    -597.513706
 2-e energy   =     155.536240
 HOMO         =      -1.025747
 LUMO         =      -1.025747
 
   Time after variat. SCF:      0.9
   Time prior to 1st pass:      0.9

 #quartets = 1.178D+04 #integrals = 1.651D+05 #direct =  0.0% #cached =100.0%


 Integral file          = ./Cl+.aoints.00
 Record size in doubles =    65536    No. of integs per rec  =    43688
 Max. records in memory =        4    Max. records in file   =  8902855
 No. of bits per label  =        8    No. of bits per value  =       64


File balance: exchanges=     0  moved=     0  time=   0.0


 Grid_pts file          = ./Cl+.gridpts.00
 Record size in doubles =  12289        No. of grid_pts per rec  =   3070
 Max. records in memory =      3        Max. recs in file   =   7596484


           Memory utilization after 1st SCF pass: 
           Heap Space remaining (MW):       12.81            12805290
          Stack Space remaining (MW):       13.11            13106660

   convergence    iter        energy       DeltaE   RMS-Dens  Diis-err    time
 ---------------- ----- ----------------- --------- --------- ---------  ------
 d= 0,ls=0.0,diis     1   -459.5703470046 -4.60D+02  1.41D-02  1.30D+00     4.6
                                                     1.36D-02  1.32D+00
 d= 0,ls=0.0,diis     2   -459.6695409433 -9.92D-02  5.25D-03  1.88D-01     4.7
                                                     4.39D-03  1.74D-01
 d= 0,ls=0.0,diis     3   -459.6963594332 -2.68D-02  7.44D-04  1.75D-03     4.8
                                                     6.42D-04  1.27D-03
 d= 0,ls=0.0,diis     4   -459.6968937939 -5.34D-04  9.65D-05  3.47D-05     4.9
                                                     6.66D-05  2.34D-05
 d= 0,ls=0.0,diis     5   -459.6969056850 -1.19D-05  5.69D-06  4.84D-08     5.0
                                                     5.68D-06  4.25D-08
 d= 0,ls=0.0,diis     6   -459.6969057110 -2.61D-08  2.42D-07  2.88D-11     5.1
                                                     2.52D-07  1.59D-10


         Total DFT energy =     -459.696905711023
      One electron energy =     -627.309689715433
           Coulomb energy =      195.493293113610
          Exchange energy =      -27.274583009588
       Correlation energy =       -0.605926099612
 Nuclear repulsion energy =        0.000000000000

 Numeric. integr. density =       16.000000001155

     Total iterative time =      4.2s


 
                    DFT Final Alpha Molecular Orbital Analysis
                    ------------------------------------------
 
 Vector    1  Occ=1.000000D+00  E=-1.015432D+02
              MO Center= -3.5D-18, -1.1D-18,  8.6D-18, r^2= 3.1D-03
   Bfn.  Coefficient  Atom+Function         Bfn.  Coefficient  Atom+Function  
  ----- ------------  ---------------      ----- ------------  ---------------
     2      0.653521  1 Cl s                  1      0.412087  1 Cl s          
 
 Vector    2  Occ=1.000000D+00  E=-9.767771D+00
              MO Center=  2.5D-16, -4.8D-16, -2.7D-16, r^2= 6.6D-02
   Bfn.  Coefficient  Atom+Function         Bfn.  Coefficient  Atom+Function  
  ----- ------------  ---------------      ----- ------------  ---------------
     4      0.612411  1 Cl s                  3      0.486231  1 Cl s          
     2     -0.326973  1 Cl s                  5      0.125001  1 Cl s          
     1     -0.121687  1 Cl s          
 
 Vector    3  Occ=1.000000D+00  E=-7.555112D+00
              MO Center= -3.5D-16,  5.4D-16,  2.7D-17, r^2= 5.8D-02
   Bfn.  Coefficient  Atom+Function         Bfn.  Coefficient  Atom+Function  
  ----- ------------  ---------------      ----- ------------  ---------------
     7      0.871247  1 Cl px                 8     -0.872143  1 Cl py         
    10      0.235121  1 Cl px                11     -0.235363  1 Cl py         
    13      0.039315  1 Cl px                14     -0.039356  1 Cl py         
 
 Vector    4  Occ=1.000000D+00  E=-7.555112D+00
              MO Center=  2.6D-16,  7.6D-17,  7.2D-17, r^2= 5.8D-02
   Bfn.  Coefficient  Atom+Function         Bfn.  Coefficient  Atom+Function  
  ----- ------------  ---------------      ----- ------------  ---------------
     7      0.803506  1 Cl px                 8      0.802299  1 Cl py         
     9      0.480000  1 Cl pz                10      0.216840  1 Cl px         
    11      0.216515  1 Cl py                12      0.129536  1 Cl pz         
    13      0.036259  1 Cl px                14      0.036204  1 Cl py         
 
 Vector    5  Occ=1.000000D+00  E=-7.528892D+00
              MO Center= -3.2D-16,  1.7D-16,  8.9D-17, r^2= 5.8D-02
   Bfn.  Coefficient  Atom+Function         Bfn.  Coefficient  Atom+Function  
  ----- ------------  ---------------      ----- ------------  ---------------
     9      1.136220  1 Cl pz                 7     -0.339358  1 Cl px         
     8     -0.339910  1 Cl py                12      0.306489  1 Cl pz         
    10     -0.091540  1 Cl px                11     -0.091689  1 Cl py         
    15      0.050010  1 Cl pz         
 
 Vector    6  Occ=1.000000D+00  E=-1.227825D+00
              MO Center=  2.3D-15, -1.0D-15,  5.0D-16, r^2= 7.2D-01
   Bfn.  Coefficient  Atom+Function         Bfn.  Coefficient  Atom+Function  
  ----- ------------  ---------------      ----- ------------  ---------------
     5      0.631910  1 Cl s                  6      0.610923  1 Cl s          
     4     -0.437394  1 Cl s                  3     -0.226279  1 Cl s          
     2      0.114411  1 Cl s                 43     -0.059225  1 Cl dzz        
    38     -0.048426  1 Cl dxx               41     -0.048429  1 Cl dyy        
     1      0.040096  1 Cl s          
 
 Vector    7  Occ=1.000000D+00  E=-7.743847D-01
              MO Center=  7.7D-16, -2.8D-15,  1.9D-17, r^2= 9.3D-01
   Bfn.  Coefficient  Atom+Function         Bfn.  Coefficient  Atom+Function  
  ----- ------------  ---------------      ----- ------------  ---------------
    17      0.489609  1 Cl py                16      0.435064  1 Cl px         
    18      0.276412  1 Cl pz                 8     -0.273000  1 Cl py         
     7     -0.242586  1 Cl px                14      0.202632  1 Cl py         
    13      0.180058  1 Cl px                 9     -0.154124  1 Cl pz         
    20      0.144496  1 Cl py                19      0.128398  1 Cl px         
 
 Vector    8  Occ=1.000000D+00  E=-7.743847D-01
              MO Center= -9.3D-16,  2.4D-15,  1.5D-16, r^2= 9.3D-01
   Bfn.  Coefficient  Atom+Function         Bfn.  Coefficient  Atom+Function  
  ----- ------------  ---------------      ----- ------------  ---------------
    16      0.527135  1 Cl px                17     -0.476771  1 Cl py         
     7     -0.293924  1 Cl px                 8      0.265842  1 Cl py         
    13      0.218163  1 Cl px                14     -0.197319  1 Cl py         
    19      0.155571  1 Cl px                20     -0.140707  1 Cl py         
    10     -0.075120  1 Cl px                11      0.067943  1 Cl py         
 
 Vector    9  Occ=1.000000D+00  E=-7.117240D-01
              MO Center=  8.7D-16, -3.5D-16,  6.4D-16, r^2= 9.7D-01
   Bfn.  Coefficient  Atom+Function         Bfn.  Coefficient  Atom+Function  
  ----- ------------  ---------------      ----- ------------  ---------------
    18      0.675405  1 Cl pz                 9     -0.358376  1 Cl pz         
    15      0.257154  1 Cl pz                21      0.212686  1 Cl pz         
    16     -0.201725  1 Cl px                17     -0.202053  1 Cl py         
     7      0.107037  1 Cl px                 8      0.107211  1 Cl py         
    12     -0.091116  1 Cl pz                13     -0.076805  1 Cl px         
 
 Vector   10  Occ=0.000000D+00  E=-2.072333D-01
              MO Center=  7.0D-15, -6.8D-15,  1.7D-15, r^2= 5.8D+00
   Bfn.  Coefficient  Atom+Function         Bfn.  Coefficient  Atom+Function  
  ----- ------------  ---------------      ----- ------------  ---------------
    22      1.286061  1 Cl s                  6     -0.474615  1 Cl s          
     5     -0.342722  1 Cl s                  4      0.165327  1 Cl s          
     3      0.075841  1 Cl s                  2     -0.039092  1 Cl s          
 
 Vector   11  Occ=0.000000D+00  E=-1.509691D-01
              MO Center= -1.1D-14,  1.5D-14,  1.1D-15, r^2= 1.8D+00
   Bfn.  Coefficient  Atom+Function         Bfn.  Coefficient  Atom+Function  
  ----- ------------  ---------------      ----- ------------  ---------------
    39      1.186485  1 Cl dxy               33      0.600176  1 Cl dxy        
    40      0.326703  1 Cl dxz               42      0.324434  1 Cl dyz        
    34      0.165261  1 Cl dxz               36      0.164113  1 Cl dyz        
    27      0.161477  1 Cl dxy               43      0.097317  1 Cl dzz        
    41     -0.050036  1 Cl dyy               37      0.049227  1 Cl dzz        
 
 Vector   12  Occ=0.000000D+00  E=-1.509691D-01
              MO Center=  4.1D-14,  3.6D-14,  2.3D-14, r^2= 1.8D+00
   Bfn.  Coefficient  Atom+Function         Bfn.  Coefficient  Atom+Function  
  ----- ------------  ---------------      ----- ------------  ---------------
    38      0.591436  1 Cl dxx               41     -0.591051  1 Cl dyy        
    42     -0.354465  1 Cl dyz               40      0.352462  1 Cl dxz        
    32      0.299175  1 Cl dxx               35     -0.298980  1 Cl dyy        
    36     -0.179304  1 Cl dyz               34      0.178291  1 Cl dxz        
    26      0.080493  1 Cl dxx               29     -0.080440  1 Cl dyy        
 
 Vector   13  Occ=0.000000D+00  E=-1.313093D-01
              MO Center= -4.1D-15,  2.9D-15, -6.8D-15, r^2= 7.9D+00
   Bfn.  Coefficient  Atom+Function         Bfn.  Coefficient  Atom+Function  
  ----- ------------  ---------------      ----- ------------  ---------------
    23      0.722276  1 Cl px                24      0.722641  1 Cl py         
    25      0.431908  1 Cl pz                16     -0.149901  1 Cl px         
    17     -0.149977  1 Cl py                13     -0.089299  1 Cl px         
    14     -0.089345  1 Cl py                18     -0.089638  1 Cl pz         
     7      0.085408  1 Cl px                 8      0.085451  1 Cl py         
 
 Vector   14  Occ=0.000000D+00  E=-1.313093D-01
              MO Center= -3.1D-14, -4.1D-14, -3.2D-14, r^2= 7.9D+00
   Bfn.  Coefficient  Atom+Function         Bfn.  Coefficient  Atom+Function  
  ----- ------------  ---------------      ----- ------------  ---------------
    23      0.784623  1 Cl px                24     -0.784094  1 Cl py         
    16     -0.162841  1 Cl px                17      0.162731  1 Cl py         
    13     -0.097008  1 Cl px                14      0.096942  1 Cl py         
     7      0.092781  1 Cl px                 8     -0.092718  1 Cl py         
    19     -0.079591  1 Cl px                20      0.079538  1 Cl py         
 
 Vector   15  Occ=0.000000D+00  E=-1.215529D-01
              MO Center= -4.4D-13, -2.5D-14, -1.2D-13, r^2= 8.2D+00
   Bfn.  Coefficient  Atom+Function         Bfn.  Coefficient  Atom+Function  
  ----- ------------  ---------------      ----- ------------  ---------------
    25      1.070645  1 Cl pz                23     -0.319773  1 Cl px         
    24     -0.320292  1 Cl py                18     -0.194248  1 Cl pz         
    21     -0.178192  1 Cl pz                15     -0.124266  1 Cl pz         
     9      0.118651  1 Cl pz                16      0.058017  1 Cl px         
    17      0.058111  1 Cl py                19      0.053221  1 Cl px         
 
 Vector   16  Occ=0.000000D+00  E=-1.203869D-01
              MO Center=  2.2D-13,  2.2D-13,  1.4D-13, r^2= 1.9D+00
   Bfn.  Coefficient  Atom+Function         Bfn.  Coefficient  Atom+Function  
  ----- ------------  ---------------      ----- ------------  ---------------
    42      0.652535  1 Cl dyz               40      0.646108  1 Cl dxz        
    39     -0.472646  1 Cl dxy               43      0.472649  1 Cl dzz        
    36      0.301715  1 Cl dyz               34      0.298744  1 Cl dxz        
    41     -0.237511  1 Cl dyy               38     -0.235138  1 Cl dxx        
    33     -0.218539  1 Cl dxy               37      0.218541  1 Cl dzz        
 
 Vector   17  Occ=0.000000D+00  E=-1.203869D-01
              MO Center=  2.0D-13, -2.1D-13,  9.9D-15, r^2= 1.9D+00
   Bfn.  Coefficient  Atom+Function         Bfn.  Coefficient  Atom+Function  
  ----- ------------  ---------------      ----- ------------  ---------------
    40      0.861072  1 Cl dxz               42     -0.855614  1 Cl dyz        
    34      0.398137  1 Cl dxz               36     -0.395614  1 Cl dyz        
    38     -0.257311  1 Cl dxx               41      0.255832  1 Cl dyy        
    32     -0.118974  1 Cl dxx               35      0.118290  1 Cl dyy        
    28      0.111367  1 Cl dxz               30     -0.110661  1 Cl dyz        
 
 Vector   18  Occ=0.000000D+00  E=-1.082376D-01
              MO Center=  4.0D-15,  4.9D-15, -1.8D-14, r^2= 1.9D+00
   Bfn.  Coefficient  Atom+Function         Bfn.  Coefficient  Atom+Function  
  ----- ------------  ---------------      ----- ------------  ---------------
    40      0.583875  1 Cl dxz               42      0.584824  1 Cl dyz        
    43     -0.582424  1 Cl dzz               38      0.307831  1 Cl dxx        
    41      0.307547  1 Cl dyy               34      0.260214  1 Cl dxz        
    36      0.260637  1 Cl dyz               37     -0.258845  1 Cl dzz        
    39     -0.174671  1 Cl dxy               32      0.137913  1 Cl dxx        
 
 Vector   19  Occ=0.000000D+00  E= 1.276698D-01
              MO Center=  1.1D-15, -4.9D-14,  2.1D-14, r^2= 6.7D+00
   Bfn.  Coefficient  Atom+Function         Bfn.  Coefficient  Atom+Function  
  ----- ------------  ---------------      ----- ------------  ---------------
    22      2.080981  1 Cl s                  6      1.412302  1 Cl s          
    38     -1.405255  1 Cl dxx               41     -1.405248  1 Cl dyy        
    43     -1.386023  1 Cl dzz               37     -0.337785  1 Cl dzz        
    32     -0.303817  1 Cl dxx               35     -0.303827  1 Cl dyy        
     4     -0.291627  1 Cl s                  3     -0.172632  1 Cl s          
 
 Vector   20  Occ=0.000000D+00  E= 1.415677D-01
              MO Center=  1.4D-14,  1.2D-14,  7.4D-15, r^2= 7.8D+00
   Bfn.  Coefficient  Atom+Function         Bfn.  Coefficient  Atom+Function  
  ----- ------------  ---------------      ----- ------------  ---------------
    19      1.668379  1 Cl px                20      1.674653  1 Cl py         
    16     -1.294060  1 Cl px                17     -1.298926  1 Cl py         
    23     -1.094131  1 Cl px                24     -1.098245  1 Cl py         
    21      0.999286  1 Cl pz                18     -0.775085  1 Cl pz         
    25     -0.655337  1 Cl pz                52      0.333452  1 Cl fyzz       
 
 Vector   21  Occ=0.000000D+00  E= 1.415677D-01
              MO Center= -2.4D-14,  2.5D-14, -4.2D-17, r^2= 7.8D+00
   Bfn.  Coefficient  Atom+Function         Bfn.  Coefficient  Atom+Function  
  ----- ------------  ---------------      ----- ------------  ---------------
    19      1.817845  1 Cl px                20     -1.811619  1 Cl py         
    16     -1.409991  1 Cl px                17      1.405162  1 Cl py         
    23     -1.192151  1 Cl px                24      1.188068  1 Cl py         
    49      0.364911  1 Cl fxzz              52     -0.363667  1 Cl fyzz       
    44      0.357387  1 Cl fxxx              45     -0.354687  1 Cl fxxy       
 
 Vector   22  Occ=0.000000D+00  E= 1.577346D-01
              MO Center=  8.9D-15,  8.1D-15, -2.7D-14, r^2= 7.5D+00
   Bfn.  Coefficient  Atom+Function         Bfn.  Coefficient  Atom+Function  
  ----- ------------  ---------------      ----- ------------  ---------------
    21      2.381789  1 Cl pz                18     -1.941145  1 Cl pz         
    25     -1.524483  1 Cl pz                19     -0.711376  1 Cl px         
    20     -0.712532  1 Cl py                16      0.579768  1 Cl px         
    17      0.580710  1 Cl py                53      0.505921  1 Cl fzzz       
    46      0.497145  1 Cl fxxz              51      0.497155  1 Cl fyyz       
 
 Vector   23  Occ=0.000000D+00  E= 5.884984D-01
              MO Center= -1.2D-15,  5.8D-16, -9.7D-17, r^2= 1.6D+00
   Bfn.  Coefficient  Atom+Function         Bfn.  Coefficient  Atom+Function  
  ----- ------------  ---------------      ----- ------------  ---------------
    33      1.473055  1 Cl dxy               39     -1.321858  1 Cl dxy        
    34      0.405965  1 Cl dxz               36      0.402440  1 Cl dyz        
    40     -0.364296  1 Cl dxz               42     -0.361133  1 Cl dyz        
    27      0.294608  1 Cl dxy               37      0.120822  1 Cl dzz        
    43     -0.108421  1 Cl dzz               28      0.081192  1 Cl dxz        
 
 Vector   24  Occ=0.000000D+00  E= 5.884984D-01
              MO Center= -2.7D-15,  6.4D-16, -7.6D-16, r^2= 1.6D+00
   Bfn.  Coefficient  Atom+Function         Bfn.  Coefficient  Atom+Function  
  ----- ------------  ---------------      ----- ------------  ---------------
    32      0.734334  1 Cl dxx               35     -0.733758  1 Cl dyy        
    38     -0.658961  1 Cl dxx               41      0.658444  1 Cl dyy        
    36     -0.440404  1 Cl dyz               34      0.437265  1 Cl dxz        
    42      0.395200  1 Cl dyz               40     -0.392383  1 Cl dxz        
    26      0.146865  1 Cl dxx               29     -0.146750  1 Cl dyy        
 
 Vector   25  Occ=0.000000D+00  E= 6.231335D-01
              MO Center= -4.8D-16, -6.1D-16,  6.3D-16, r^2= 1.6D+00
   Bfn.  Coefficient  Atom+Function         Bfn.  Coefficient  Atom+Function  
  ----- ------------  ---------------      ----- ------------  ---------------
    36      0.794293  1 Cl dyz               34      0.789566  1 Cl dxz        
    42     -0.691450  1 Cl dyz               40     -0.687335  1 Cl dxz        
    33     -0.576452  1 Cl dxy               37      0.576454  1 Cl dzz        
    39      0.501815  1 Cl dxy               43     -0.501817  1 Cl dzz        
    35     -0.289209  1 Cl dyy               32     -0.287245  1 Cl dxx        
 
 Vector   26  Occ=0.000000D+00  E= 6.231335D-01
              MO Center= -4.9D-16,  6.8D-16, -3.5D-16, r^2= 1.6D+00
   Bfn.  Coefficient  Atom+Function         Bfn.  Coefficient  Atom+Function  
  ----- ------------  ---------------      ----- ------------  ---------------
    34      1.049008  1 Cl dxz               36     -1.044706  1 Cl dyz        
    40     -0.913186  1 Cl dxz               42      0.909440  1 Cl dyz        
    32     -0.313395  1 Cl dxx               35      0.312448  1 Cl dyy        
    38      0.272818  1 Cl dxx               41     -0.271993  1 Cl dyy        
    28      0.211928  1 Cl dxz               30     -0.211059  1 Cl dyz        
 
 Vector   27  Occ=0.000000D+00  E= 6.366119D-01
              MO Center=  1.2D-16,  2.6D-16, -5.5D-16, r^2= 1.6D+00
   Bfn.  Coefficient  Atom+Function         Bfn.  Coefficient  Atom+Function  
  ----- ------------  ---------------      ----- ------------  ---------------
    43      0.718050  1 Cl dzz               34      0.706741  1 Cl dxz        
    36      0.707890  1 Cl dyz               37     -0.677416  1 Cl dzz        
    40     -0.608269  1 Cl dxz               42     -0.609257  1 Cl dyz        
    32      0.400177  1 Cl dxx               35      0.399834  1 Cl dyy        
     6     -0.262242  1 Cl s                 33     -0.211428  1 Cl dxy        
 
 Vector   28  Occ=0.000000D+00  E= 1.049365D+00
              MO Center= -3.6D-13, -2.5D-13, -1.2D-13, r^2= 3.4D+00
   Bfn.  Coefficient  Atom+Function         Bfn.  Coefficient  Atom+Function  
  ----- ------------  ---------------      ----- ------------  ---------------
     6      8.207383  1 Cl s                  5     -2.867196  1 Cl s          
    38     -2.418618  1 Cl dxx               41     -2.418610  1 Cl dyy        
    43     -2.394528  1 Cl dzz               22      1.308064  1 Cl s          
    37     -1.202260  1 Cl dzz               32     -1.175489  1 Cl dxx        
    35     -1.175498  1 Cl dyy               31     -0.257590  1 Cl dzz        
 
 Vector   29  Occ=0.000000D+00  E= 1.075438D+00
              MO Center=  2.9D-13,  2.9D-13,  1.7D-13, r^2= 3.1D+00
   Bfn.  Coefficient  Atom+Function         Bfn.  Coefficient  Atom+Function  
  ----- ------------  ---------------      ----- ------------  ---------------
    16      4.902501  1 Cl px                17      4.907947  1 Cl py         
    18      2.932498  1 Cl pz                44     -1.909195  1 Cl fxxx       
    45     -1.910589  1 Cl fxxy              47     -1.908466  1 Cl fxyy       
    49     -1.906944  1 Cl fxzz              50     -1.911315  1 Cl fyyy       
    52     -1.909063  1 Cl fyzz              13     -1.717817  1 Cl px         
 
 Vector   30  Occ=0.000000D+00  E= 1.075438D+00
              MO Center=  5.1D-14, -5.1D-14,  6.5D-17, r^2= 3.1D+00
   Bfn.  Coefficient  Atom+Function         Bfn.  Coefficient  Atom+Function  
  ----- ------------  ---------------      ----- ------------  ---------------
    16      5.328667  1 Cl px                17     -5.322340  1 Cl py         
    44     -2.075158  1 Cl fxxx              45      2.073484  1 Cl fxxy       
    47     -2.075946  1 Cl fxyy              49     -2.071132  1 Cl fxzz       
    50      2.072693  1 Cl fyyy              52      2.068673  1 Cl fyzz       
    13     -1.867145  1 Cl px                14      1.864927  1 Cl py         
 
 Vector   31  Occ=0.000000D+00  E= 1.107675D+00
              MO Center=  1.8D-14,  1.8D-14, -6.1D-14, r^2= 3.1D+00
   Bfn.  Coefficient  Atom+Function         Bfn.  Coefficient  Atom+Function  
  ----- ------------  ---------------      ----- ------------  ---------------
    18      6.937326  1 Cl pz                46     -2.713350  1 Cl fxxz       
    51     -2.713345  1 Cl fyyz              53     -2.709219  1 Cl fzzz       
    15     -2.432497  1 Cl pz                16     -2.071992  1 Cl px         
    17     -2.075359  1 Cl py                21     -1.977297  1 Cl pz         
    44      0.810705  1 Cl fxxx              45      0.811721  1 Cl fxxy       
 
 Vector   32  Occ=0.000000D+00  E= 1.521039D+00
              MO Center= -9.3D-16,  5.9D-16, -1.0D-16, r^2= 9.0D-01
   Bfn.  Coefficient  Atom+Function         Bfn.  Coefficient  Atom+Function  
  ----- ------------  ---------------      ----- ------------  ---------------
    48      1.706919  1 Cl fxyz              45      1.433243  1 Cl fxxy       
    47      1.421951  1 Cl fxyy              50     -0.555364  1 Cl fyyy       
    44     -0.552492  1 Cl fxxx              49      0.235524  1 Cl fxzz       
    52      0.232849  1 Cl fyzz              51     -0.073727  1 Cl fyyz       
    46     -0.066277  1 Cl fxxz              53      0.046668  1 Cl fzzz       
 
 Vector   33  Occ=0.000000D+00  E= 1.521039D+00
              MO Center= -8.5D-16, -4.0D-16, -3.7D-16, r^2= 9.0D-01
   Bfn.  Coefficient  Atom+Function         Bfn.  Coefficient  Atom+Function  
  ----- ------------  ---------------      ----- ------------  ---------------
    47     -1.554922  1 Cl fxyy              45      1.544903  1 Cl fxxy       
    46      0.851005  1 Cl fxxz              51     -0.850163  1 Cl fyyz       
    44      0.433957  1 Cl fxxx              50     -0.429817  1 Cl fyyy       
    52     -0.255453  1 Cl fyzz              49      0.253051  1 Cl fxzz       
 
 Vector   34  Occ=0.000000D+00  E= 1.555820D+00
              MO Center=  1.2D-16,  1.3D-16, -3.4D-16, r^2= 9.0D-01
   Bfn.  Coefficient  Atom+Function         Bfn.  Coefficient  Atom+Function  
  ----- ------------  ---------------      ----- ------------  ---------------
    48      2.756018  1 Cl fxyz              45     -0.947393  1 Cl fxxy       
    47     -0.942740  1 Cl fxyy              49      0.831064  1 Cl fxzz       
    52      0.816564  1 Cl fyzz              51     -0.414257  1 Cl fyyz       
    46     -0.396974  1 Cl fxxz              53      0.270410  1 Cl fzzz       
    50      0.043610  1 Cl fyyy              44      0.037225  1 Cl fxxx       
 
 Vector   35  Occ=0.000000D+00  E= 1.555820D+00
              MO Center= -8.2D-16, -1.6D-16,  1.5D-16, r^2= 9.0D-01
   Bfn.  Coefficient  Atom+Function         Bfn.  Coefficient  Atom+Function  
  ----- ------------  ---------------      ----- ------------  ---------------
    46      1.352557  1 Cl fxxz              51     -1.346016  1 Cl fyyz       
    52     -0.987997  1 Cl fyzz              49      0.976308  1 Cl fxzz       
    47      0.496711  1 Cl fxyy              44     -0.491006  1 Cl fxxx       
    50      0.491152  1 Cl fyyy              45     -0.485458  1 Cl fxxy       
 
 Vector   36  Occ=0.000000D+00  E= 1.578282D+00
              MO Center= -3.1D-16,  5.8D-16, -8.3D-16, r^2= 9.0D-01
   Bfn.  Coefficient  Atom+Function         Bfn.  Coefficient  Atom+Function  
  ----- ------------  ---------------      ----- ------------  ---------------
    49      1.394377  1 Cl fxzz              52     -1.379800  1 Cl fyzz       
    46     -1.108600  1 Cl fxxz              51      1.087204  1 Cl fyyz       
    45      0.614153  1 Cl fxxy              47     -0.612827  1 Cl fxyy       
    44     -0.288217  1 Cl fxxx              50      0.282409  1 Cl fyyy       
    16      0.035495  1 Cl px                17     -0.034845  1 Cl py         
 
 Vector   37  Occ=0.000000D+00  E= 1.578282D+00
              MO Center=  3.3D-17,  1.6D-16, -2.6D-16, r^2= 9.0D-01
   Bfn.  Coefficient  Atom+Function         Bfn.  Coefficient  Atom+Function  
  ----- ------------  ---------------      ----- ------------  ---------------
    48      1.841792  1 Cl fxyz              51      1.179927  1 Cl fyyz       
    46      1.156831  1 Cl fxxz              53     -0.763806  1 Cl fzzz       
    52     -0.686294  1 Cl fyzz              49     -0.659799  1 Cl fxzz       
    50      0.265372  1 Cl fyyy              44      0.260211  1 Cl fxxx       
    47     -0.045807  1 Cl fxyy              45     -0.033164  1 Cl fxxy       
 
 Vector   38  Occ=0.000000D+00  E= 1.585873D+00
              MO Center= -3.8D-16,  2.4D-16,  3.5D-17, r^2= 9.0D-01
   Bfn.  Coefficient  Atom+Function         Bfn.  Coefficient  Atom+Function  
  ----- ------------  ---------------      ----- ------------  ---------------
    49      1.329216  1 Cl fxzz              52      1.331376  1 Cl fyzz       
    48     -1.047098  1 Cl fxyz              46      0.886394  1 Cl fxxz       
    51      0.884694  1 Cl fyyz              53     -0.544072  1 Cl fzzz       
    44     -0.368819  1 Cl fxxx              50     -0.369249  1 Cl fyyy       
    45     -0.265172  1 Cl fxxy              47     -0.264234  1 Cl fxyy       
 
 Vector   39  Occ=0.000000D+00  E= 3.447267D+00
              MO Center=  1.3D-14,  1.3D-14,  8.0D-15, r^2= 1.4D+00
   Bfn.  Coefficient  Atom+Function         Bfn.  Coefficient  Atom+Function  
  ----- ------------  ---------------      ----- ------------  ---------------
    17      5.225340  1 Cl py                16      5.145190  1 Cl px         
    18      3.099933  1 Cl pz                45     -3.013742  1 Cl fxxy       
    50     -3.011905  1 Cl fyyy              52     -3.017715  1 Cl fyzz       
    44     -2.965703  1 Cl fxxx              47     -2.967575  1 Cl fxyy       
    49     -2.971376  1 Cl fxzz              53     -1.792462  1 Cl fzzz       
 
 Vector   40  Occ=0.000000D+00  E= 3.447267D+00
              MO Center=  4.1D-15, -1.0D-14, -7.4D-16, r^2= 1.4D+00
   Bfn.  Coefficient  Atom+Function         Bfn.  Coefficient  Atom+Function  
  ----- ------------  ---------------      ----- ------------  ---------------
    16      5.667149  1 Cl px                17     -5.591938  1 Cl py         
    44     -3.266562  1 Cl fxxx              47     -3.264565  1 Cl fxyy       
    49     -3.276869  1 Cl fxzz              45      3.221183  1 Cl fxxy       
    50      3.223213  1 Cl fyyy              52      3.233428  1 Cl fyzz       
    19     -0.888439  1 Cl px                20      0.876648  1 Cl py         
 
 Vector   41  Occ=0.000000D+00  E= 3.491821D+00
              MO Center=  1.6D-14,  1.6D-14, -5.6D-14, r^2= 1.4D+00
   Bfn.  Coefficient  Atom+Function         Bfn.  Coefficient  Atom+Function  
  ----- ------------  ---------------      ----- ------------  ---------------
    18      7.305262  1 Cl pz                46     -4.212574  1 Cl fxxz       
    51     -4.212587  1 Cl fyyz              53     -4.223531  1 Cl fzzz       
    16     -2.181885  1 Cl px                17     -2.185430  1 Cl py         
    49      1.270392  1 Cl fxzz              52      1.272456  1 Cl fyzz       
    44      1.257385  1 Cl fxxx              45      1.260226  1 Cl fxxy       
 
 Vector   42  Occ=0.000000D+00  E= 3.697048D+00
              MO Center= -3.8D-14, -2.4D-14,  4.9D-14, r^2= 1.4D+00
   Bfn.  Coefficient  Atom+Function         Bfn.  Coefficient  Atom+Function  
  ----- ------------  ---------------      ----- ------------  ---------------
     6      7.263162  1 Cl s                  5      6.492360  1 Cl s          
    32     -4.223524  1 Cl dxx               35     -4.223516  1 Cl dyy        
    37     -4.200019  1 Cl dzz                4     -1.967073  1 Cl s          
    38     -1.695999  1 Cl dxx               41     -1.696002  1 Cl dyy        
    43     -1.704474  1 Cl dzz                3     -1.053658  1 Cl s          
 
 Vector   43  Occ=0.000000D+00  E= 4.549102D+00
              MO Center= -1.8D-15,  2.1D-15,  2.5D-16, r^2= 4.1D-01
   Bfn.  Coefficient  Atom+Function         Bfn.  Coefficient  Atom+Function  
  ----- ------------  ---------------      ----- ------------  ---------------
    27      1.797718  1 Cl dxy               33     -1.296343  1 Cl dxy        
    28      0.495954  1 Cl dxz               30      0.490624  1 Cl dyz        
    39      0.435463  1 Cl dxy               34     -0.357635  1 Cl dxz        
    36     -0.353791  1 Cl dyz               31      0.147451  1 Cl dzz        
    40      0.120135  1 Cl dxz               42      0.118844  1 Cl dyz        
 
 Vector   44  Occ=0.000000D+00  E= 4.549102D+00
              MO Center=  4.2D-15,  3.1D-15,  1.8D-15, r^2= 4.1D-01
   Bfn.  Coefficient  Atom+Function         Bfn.  Coefficient  Atom+Function  
  ----- ------------  ---------------      ----- ------------  ---------------
    26      0.896252  1 Cl dxx               29     -0.895408  1 Cl dyy        
    32     -0.646292  1 Cl dxx               35      0.645683  1 Cl dyy        
    30     -0.537942  1 Cl dyz               28      0.533165  1 Cl dxz        
    36      0.387913  1 Cl dyz               34     -0.384468  1 Cl dxz        
    38      0.217100  1 Cl dxx               41     -0.216896  1 Cl dyy        
 
 Vector   45  Occ=0.000000D+00  E= 4.581830D+00
              MO Center=  9.5D-16, -2.6D-16, -7.5D-16, r^2= 4.1D-01
   Bfn.  Coefficient  Atom+Function         Bfn.  Coefficient  Atom+Function  
  ----- ------------  ---------------      ----- ------------  ---------------
    28      1.270795  1 Cl dxz               30     -1.262207  1 Cl dyz        
    34     -0.918376  1 Cl dxz               36      0.912169  1 Cl dyz        
    26     -0.379764  1 Cl dxx               29      0.377387  1 Cl dyy        
    40      0.307378  1 Cl dxz               42     -0.305301  1 Cl dyz        
    32      0.274447  1 Cl dxx               35     -0.272729  1 Cl dyy        
 
 Vector   46  Occ=0.000000D+00  E= 4.581830D+00
              MO Center=  7.4D-16,  6.9D-16, -1.5D-16, r^2= 4.1D-01
   Bfn.  Coefficient  Atom+Function         Bfn.  Coefficient  Atom+Function  
  ----- ------------  ---------------      ----- ------------  ---------------
    30      0.963181  1 Cl dyz               28      0.952990  1 Cl dxz        
    27     -0.697398  1 Cl dxy               31      0.697403  1 Cl dzz        
    36     -0.696069  1 Cl dyz               34     -0.688705  1 Cl dxz        
    33      0.503994  1 Cl dxy               37     -0.503997  1 Cl dzz        
    29     -0.350558  1 Cl dyy               26     -0.346845  1 Cl dxx        
 
 Vector   47  Occ=0.000000D+00  E= 4.593779D+00
              MO Center=  1.4D-15, -3.8D-16, -1.8D-15, r^2= 4.1D-01
   Bfn.  Coefficient  Atom+Function         Bfn.  Coefficient  Atom+Function  
  ----- ------------  ---------------      ----- ------------  ---------------
    28      0.852989  1 Cl dxz               30      0.854375  1 Cl dyz        
    31     -0.836878  1 Cl dzz               37      0.755378  1 Cl dzz        
    34     -0.617030  1 Cl dxz               36     -0.618032  1 Cl dyz        
    26      0.463705  1 Cl dxx               29      0.463291  1 Cl dyy        
    27     -0.255179  1 Cl dxy                5     -0.224442  1 Cl s          
 
 Vector   48  Occ=0.000000D+00  E= 1.056923D+01
              MO Center= -1.7D-15, -4.7D-16, -4.7D-17, r^2= 6.1D-01
   Bfn.  Coefficient  Atom+Function         Bfn.  Coefficient  Atom+Function  
  ----- ------------  ---------------      ----- ------------  ---------------
     5     14.053823  1 Cl s                 32     -5.110601  1 Cl dxx        
    35     -5.110600  1 Cl dyy               37     -5.107449  1 Cl dzz        
     6      3.884683  1 Cl s                 26     -3.188081  1 Cl dxx        
    29     -3.188082  1 Cl dyy               31     -3.190961  1 Cl dzz        
     3     -1.771128  1 Cl s                 38     -0.895900  1 Cl dxx        
 
 Vector   49  Occ=0.000000D+00  E= 2.746691D+01
              MO Center=  1.2D-14, -2.9D-15, -2.0D-14, r^2= 2.5D-01
   Bfn.  Coefficient  Atom+Function         Bfn.  Coefficient  Atom+Function  
  ----- ------------  ---------------      ----- ------------  ---------------
     4     13.758712  1 Cl s                  5     11.640051  1 Cl s          
     3    -10.829072  1 Cl s                 26     -5.931365  1 Cl dxx        
    29     -5.931365  1 Cl dyy               31     -5.931650  1 Cl dzz        
    32     -3.749773  1 Cl dxx               35     -3.749773  1 Cl dyy        
    37     -3.749520  1 Cl dzz                6      2.052158  1 Cl s          
 
 Vector   50  Occ=0.000000D+00  E= 3.136365D+01
              MO Center= -9.4D-15,  6.3D-15, -9.4D-16, r^2= 4.1D-01
   Bfn.  Coefficient  Atom+Function         Bfn.  Coefficient  Atom+Function  
  ----- ------------  ---------------      ----- ------------  ---------------
    16     -3.530488  1 Cl px                 7      3.403633  1 Cl px         
    10      3.283815  1 Cl px                17      2.384930  1 Cl py         
    44      2.374909  1 Cl fxxx              47      2.374942  1 Cl fxyy       
    49      2.374675  1 Cl fxzz               8     -2.299236  1 Cl py         
    11     -2.218296  1 Cl py                45     -1.604357  1 Cl fxxy       
 
 Vector   51  Occ=0.000000D+00  E= 3.136365D+01
              MO Center=  2.8D-15,  4.2D-15,  2.3D-15, r^2= 4.1D-01
   Bfn.  Coefficient  Atom+Function         Bfn.  Coefficient  Atom+Function  
  ----- ------------  ---------------      ----- ------------  ---------------
    17     -3.345675  1 Cl py                 8      3.225460  1 Cl py         
    11      3.111915  1 Cl py                45      2.250558  1 Cl fxxy       
    50      2.250587  1 Cl fyyy              52      2.250427  1 Cl fyzz       
    16     -2.102755  1 Cl px                 7      2.027200  1 Cl px         
    10      1.955837  1 Cl px                18     -1.628923  1 Cl pz         
 
 Vector   52  Occ=0.000000D+00  E= 3.140101D+01
              MO Center= -7.8D-15, -7.7D-15,  2.6D-14, r^2= 4.1D-01
   Bfn.  Coefficient  Atom+Function         Bfn.  Coefficient  Atom+Function  
  ----- ------------  ---------------      ----- ------------  ---------------
    18     -3.934055  1 Cl pz                 9      3.795477  1 Cl pz         
    12      3.661800  1 Cl pz                46      2.646882  1 Cl fxxz       
    51      2.646882  1 Cl fyyz              53      2.646668  1 Cl fzzz       
    15     -1.619814  1 Cl pz                16      1.174996  1 Cl px         
    17      1.176905  1 Cl py                 7     -1.133606  1 Cl px         
 
 Vector   53  Occ=0.000000D+00  E= 2.471685D+02
              MO Center= -1.0D-16, -5.2D-18,  9.9D-17, r^2= 3.3D-02
   Bfn.  Coefficient  Atom+Function         Bfn.  Coefficient  Atom+Function  
  ----- ------------  ---------------      ----- ------------  ---------------
     4      6.650662  1 Cl s                  3     -5.786761  1 Cl s          
     5      3.950067  1 Cl s                 26     -2.392889  1 Cl dxx        
    29     -2.392889  1 Cl dyy               31     -2.392892  1 Cl dzz        
     2      2.311884  1 Cl s                  1     -1.623896  1 Cl s          
    32     -1.286832  1 Cl dxx               35     -1.286832  1 Cl dyy        
 
 
                     DFT Final Beta Molecular Orbital Analysis
                     -----------------------------------------
 
 Vector    1  Occ=1.000000D+00  E=-1.015294D+02
              MO Center= -5.0D-19, -2.5D-19,  8.3D-19, r^2= 3.1D-03
   Bfn.  Coefficient  Atom+Function         Bfn.  Coefficient  Atom+Function  
  ----- ------------  ---------------      ----- ------------  ---------------
     2      0.653547  1 Cl s                  1      0.412125  1 Cl s          
 
 Vector    2  Occ=1.000000D+00  E=-9.755827D+00
              MO Center=  3.2D-16, -8.7D-18,  6.7D-16, r^2= 6.6D-02
   Bfn.  Coefficient  Atom+Function         Bfn.  Coefficient  Atom+Function  
  ----- ------------  ---------------      ----- ------------  ---------------
     4      0.620315  1 Cl s                  3      0.482507  1 Cl s          
     2     -0.326672  1 Cl s                  1     -0.121645  1 Cl s          
     5      0.119284  1 Cl s          
 
 Vector    3  Occ=1.000000D+00  E=-7.532256D+00
              MO Center= -3.2D-16, -3.8D-16, -2.6D-16, r^2= 5.8D-02
   Bfn.  Coefficient  Atom+Function         Bfn.  Coefficient  Atom+Function  
  ----- ------------  ---------------      ----- ------------  ---------------
     7      0.801563  1 Cl px                 8      0.805376  1 Cl py         
     9      0.480340  1 Cl pz                10      0.216313  1 Cl px         
    11      0.217342  1 Cl py                12      0.129627  1 Cl pz         
    13      0.034803  1 Cl px                14      0.034968  1 Cl py         
 
 Vector    4  Occ=1.000000D+00  E=-7.532256D+00
              MO Center= -1.7D-16,  1.6D-16,  1.6D-17, r^2= 5.8D-02
   Bfn.  Coefficient  Atom+Function         Bfn.  Coefficient  Atom+Function  
  ----- ------------  ---------------      ----- ------------  ---------------
     7      0.874175  1 Cl px                 8     -0.870448  1 Cl py         
    10      0.235909  1 Cl px                11     -0.234903  1 Cl py         
    13      0.037955  1 Cl px                14     -0.037793  1 Cl py         
 
 Vector    5  Occ=1.000000D+00  E=-7.521626D+00
              MO Center=  1.6D-16,  1.2D-16, -4.2D-16, r^2= 5.8D-02
   Bfn.  Coefficient  Atom+Function         Bfn.  Coefficient  Atom+Function  
  ----- ------------  ---------------      ----- ------------  ---------------
     9      1.136893  1 Cl pz                 7     -0.339559  1 Cl px         
     8     -0.340111  1 Cl py                12      0.306785  1 Cl pz         
    10     -0.091628  1 Cl px                11     -0.091777  1 Cl py         
    15      0.049501  1 Cl pz         
 
 Vector    6  Occ=1.000000D+00  E=-1.123139D+00
              MO Center=  1.9D-15, -1.1D-15,  5.9D-16, r^2= 7.4D-01
   Bfn.  Coefficient  Atom+Function         Bfn.  Coefficient  Atom+Function  
  ----- ------------  ---------------      ----- ------------  ---------------
     6      0.607899  1 Cl s                  5      0.582409  1 Cl s          
     4     -0.436365  1 Cl s                  3     -0.217187  1 Cl s          
     2      0.113752  1 Cl s                 38     -0.045608  1 Cl dxx        
    41     -0.045606  1 Cl dyy                1      0.039907  1 Cl s          
    43     -0.037651  1 Cl dzz               37      0.036167  1 Cl dzz        
 
 Vector    7  Occ=1.000000D+00  E=-6.834200D-01
              MO Center=  1.0D-15, -3.5D-16, -9.3D-16, r^2= 9.9D-01
   Bfn.  Coefficient  Atom+Function         Bfn.  Coefficient  Atom+Function  
  ----- ------------  ---------------      ----- ------------  ---------------
    18      0.676371  1 Cl pz                 9     -0.352939  1 Cl pz         
    15      0.249583  1 Cl pz                21      0.223020  1 Cl pz         
    16     -0.202014  1 Cl px                17     -0.202342  1 Cl py         
     7      0.105413  1 Cl px                 8      0.105585  1 Cl py         
    12     -0.088511  1 Cl pz                13     -0.074544  1 Cl px         
 
 Vector    8  Occ=0.000000D+00  E=-6.463603D-01
              MO Center=  4.9D-16, -1.3D-15, -6.5D-16, r^2= 1.0D+00
   Bfn.  Coefficient  Atom+Function         Bfn.  Coefficient  Atom+Function  
  ----- ------------  ---------------      ----- ------------  ---------------
    16      0.478338  1 Cl px                17      0.476693  1 Cl py         
    18      0.285474  1 Cl pz                 7     -0.246677  1 Cl px         
     8     -0.245829  1 Cl py                13      0.173039  1 Cl px         
    14      0.172444  1 Cl py                19      0.171338  1 Cl px         
    20      0.170749  1 Cl py                 9     -0.147218  1 Cl pz         
 
 Vector    9  Occ=0.000000D+00  E=-6.463603D-01
              MO Center= -1.5D-16,  4.0D-16,  2.2D-16, r^2= 1.0D+00
   Bfn.  Coefficient  Atom+Function         Bfn.  Coefficient  Atom+Function  
  ----- ------------  ---------------      ----- ------------  ---------------
    16      0.517735  1 Cl px                17     -0.519123  1 Cl py         
     7     -0.266994  1 Cl px                 8      0.267710  1 Cl py         
    13      0.187291  1 Cl px                14     -0.187793  1 Cl py         
    19      0.185450  1 Cl px                20     -0.185947  1 Cl py         
    10     -0.066376  1 Cl px                11      0.066554  1 Cl py         
 
 Vector   10  Occ=0.000000D+00  E=-1.865295D-01
              MO Center= -3.1D-14,  3.5D-14,  5.2D-15, r^2= 6.0D+00
   Bfn.  Coefficient  Atom+Function         Bfn.  Coefficient  Atom+Function  
  ----- ------------  ---------------      ----- ------------  ---------------
    22      1.344907  1 Cl s                  6     -0.471248  1 Cl s          
     5     -0.302534  1 Cl s                  4      0.157467  1 Cl s          
     3      0.069585  1 Cl s                 37     -0.039627  1 Cl dzz        
     2     -0.038303  1 Cl s                 32     -0.032223  1 Cl dxx        
    35     -0.032226  1 Cl dyy               43     -0.027573  1 Cl dzz        
 
 Vector   11  Occ=0.000000D+00  E=-1.157759D-01
              MO Center= -6.5D-17,  2.3D-15, -1.6D-15, r^2= 8.3D+00
   Bfn.  Coefficient  Atom+Function         Bfn.  Coefficient  Atom+Function  
  ----- ------------  ---------------      ----- ------------  ---------------
    25      1.093381  1 Cl pz                23     -0.326548  1 Cl px         
    24     -0.327079  1 Cl py                21     -0.214076  1 Cl pz         
    18     -0.177407  1 Cl pz                15     -0.123229  1 Cl pz         
     9      0.116117  1 Cl pz                19      0.063934  1 Cl px         
    20      0.064039  1 Cl py                16      0.052986  1 Cl px         
 
 Vector   12  Occ=0.000000D+00  E=-1.085822D-01
              MO Center=  2.7D-14, -3.0D-14,  8.3D-15, r^2= 8.3D+00
   Bfn.  Coefficient  Atom+Function         Bfn.  Coefficient  Atom+Function  
  ----- ------------  ---------------      ----- ------------  ---------------
    23      0.855530  1 Cl px                24     -0.848192  1 Cl py         
    19     -0.187428  1 Cl px                20      0.185820  1 Cl py         
    16     -0.121169  1 Cl px                17      0.120129  1 Cl py         
    13     -0.100795  1 Cl px                14      0.099931  1 Cl py         
     7      0.091240  1 Cl px                 8     -0.090457  1 Cl py         
 
 Vector   13  Occ=0.000000D+00  E=-1.085818D-01
              MO Center= -4.1D-15, -3.3D-15, -2.1D-15, r^2= 8.3D+00
   Bfn.  Coefficient  Atom+Function         Bfn.  Coefficient  Atom+Function  
  ----- ------------  ---------------      ----- ------------  ---------------
    24      0.788506  1 Cl py                23      0.780767  1 Cl px         
    25      0.469063  1 Cl pz                20     -0.172742  1 Cl py         
    19     -0.171046  1 Cl px                17     -0.111679  1 Cl py         
    16     -0.110583  1 Cl px                21     -0.102762  1 Cl pz         
    14     -0.092899  1 Cl py                13     -0.091987  1 Cl px         
 
 Vector   14  Occ=0.000000D+00  E=-7.651200D-02
              MO Center=  3.3D-15,  1.8D-15, -8.1D-15, r^2= 2.0D+00
   Bfn.  Coefficient  Atom+Function         Bfn.  Coefficient  Atom+Function  
  ----- ------------  ---------------      ----- ------------  ---------------
    40      0.893582  1 Cl dxz               42     -0.893589  1 Cl dyz        
    34      0.353221  1 Cl dxz               36     -0.353224  1 Cl dyz        
    38     -0.266842  1 Cl dxx               41      0.267372  1 Cl dyy        
    28      0.107753  1 Cl dxz               30     -0.107754  1 Cl dyz        
    32     -0.105479  1 Cl dxx               35      0.105689  1 Cl dyy        
 
 Vector   15  Occ=0.000000D+00  E=-7.651199D-02
              MO Center=  5.1D-17, -2.0D-16, -1.9D-16, r^2= 2.0D+00
   Bfn.  Coefficient  Atom+Function         Bfn.  Coefficient  Atom+Function  
  ----- ------------  ---------------      ----- ------------  ---------------
    40      0.676397  1 Cl dxz               42      0.675568  1 Cl dyz        
    39     -0.492055  1 Cl dxy               43      0.492054  1 Cl dzz        
    34      0.267371  1 Cl dxz               36      0.267043  1 Cl dyz        
    38     -0.245916  1 Cl dxx               41     -0.246139  1 Cl dyy        
    33     -0.194503  1 Cl dxy               37      0.194503  1 Cl dzz        
 
 Vector   16  Occ=0.000000D+00  E=-7.351012D-02
              MO Center= -2.5D-16,  1.3D-15,  3.1D-16, r^2= 2.0D+00
   Bfn.  Coefficient  Atom+Function         Bfn.  Coefficient  Atom+Function  
  ----- ------------  ---------------      ----- ------------  ---------------
    40      0.602346  1 Cl dxz               42      0.603324  1 Cl dyz        
    43     -0.594039  1 Cl dzz               38      0.324378  1 Cl dxx        
    41      0.324085  1 Cl dyy               34      0.237466  1 Cl dxz        
    36      0.237852  1 Cl dyz               37     -0.233376  1 Cl dzz        
    39     -0.180196  1 Cl dxy               32      0.128696  1 Cl dxx        
 
 Vector   17  Occ=0.000000D+00  E=-6.265485D-02
              MO Center= -8.6D-16, -5.3D-16, -4.3D-16, r^2= 2.0D+00
   Bfn.  Coefficient  Atom+Function         Bfn.  Coefficient  Atom+Function  
  ----- ------------  ---------------      ----- ------------  ---------------
    38      0.638950  1 Cl dxx               41     -0.638343  1 Cl dyy        
    42     -0.383520  1 Cl dyz               40      0.380082  1 Cl dxz        
    32      0.241057  1 Cl dxx               35     -0.240828  1 Cl dyy        
    36     -0.144691  1 Cl dyz               34      0.143394  1 Cl dxz        
    26      0.075903  1 Cl dxx               29     -0.075831  1 Cl dyy        
 
 Vector   18  Occ=0.000000D+00  E=-6.265483D-02
              MO Center= -7.0D-17,  2.7D-16,  1.7D-16, r^2= 2.0D+00
   Bfn.  Coefficient  Atom+Function         Bfn.  Coefficient  Atom+Function  
  ----- ------------  ---------------      ----- ------------  ---------------
    39      1.281611  1 Cl dxy               33      0.483514  1 Cl dxy        
    40      0.353588  1 Cl dxz               42      0.349753  1 Cl dyz        
    27      0.152247  1 Cl dxy               34      0.133398  1 Cl dxz        
    36      0.131951  1 Cl dyz               43      0.105120  1 Cl dzz        
    41     -0.055204  1 Cl dyy               38     -0.049915  1 Cl dxx        
 
 Vector   19  Occ=0.000000D+00  E= 1.494564D-01
              MO Center=  4.3D-14, -4.3D-14,  1.2D-13, r^2= 6.6D+00
   Bfn.  Coefficient  Atom+Function         Bfn.  Coefficient  Atom+Function  
  ----- ------------  ---------------      ----- ------------  ---------------
    22      2.064120  1 Cl s                  6      1.580094  1 Cl s          
    43     -1.451366  1 Cl dzz               38     -1.439135  1 Cl dxx        
    41     -1.439139  1 Cl dyy               32     -0.322671  1 Cl dxx        
    35     -0.322671  1 Cl dyy               37     -0.322123  1 Cl dzz        
     4     -0.291877  1 Cl s                  3     -0.174092  1 Cl s          
 
 Vector   20  Occ=0.000000D+00  E= 1.658200D-01
              MO Center=  3.2D-14,  3.0D-14, -1.1D-13, r^2= 7.4D+00
   Bfn.  Coefficient  Atom+Function         Bfn.  Coefficient  Atom+Function  
  ----- ------------  ---------------      ----- ------------  ---------------
    21      2.391304  1 Cl pz                18     -1.990988  1 Cl pz         
    25     -1.512963  1 Cl pz                19     -0.714137  1 Cl px         
    20     -0.715300  1 Cl py                16      0.594586  1 Cl px         
    17      0.595554  1 Cl py                46      0.516542  1 Cl fxxz       
    51      0.516540  1 Cl fyyz              53      0.514814  1 Cl fzzz       
 
 Vector   21  Occ=0.000000D+00  E= 1.696579D-01
              MO Center= -3.7D-14,  3.7D-14, -2.4D-17, r^2= 7.4D+00
   Bfn.  Coefficient  Atom+Function         Bfn.  Coefficient  Atom+Function  
  ----- ------------  ---------------      ----- ------------  ---------------
    19      1.836964  1 Cl px                20     -1.831014  1 Cl py         
    16     -1.547076  1 Cl px                17      1.542065  1 Cl py         
    23     -1.155460  1 Cl px                24      1.151717  1 Cl py         
    44      0.401411  1 Cl fxxx              45     -0.400746  1 Cl fxxy       
    47      0.402043  1 Cl fxyy              49      0.398179  1 Cl fxzz       
 
 Vector   22  Occ=0.000000D+00  E= 1.696583D-01
              MO Center= -3.0D-14, -3.2D-14, -1.9D-14, r^2= 7.4D+00
   Bfn.  Coefficient  Atom+Function         Bfn.  Coefficient  Atom+Function  
  ----- ------------  ---------------      ----- ------------  ---------------
    19      1.686297  1 Cl px                20      1.692266  1 Cl py         
    16     -1.420184  1 Cl px                17     -1.425211  1 Cl py         
    23     -1.060691  1 Cl px                24     -1.064445  1 Cl py         
    21      1.009794  1 Cl pz                18     -0.850441  1 Cl pz         
    25     -0.635165  1 Cl pz                44      0.368487  1 Cl fxxx       
 
 Vector   23  Occ=0.000000D+00  E= 6.766327D-01
              MO Center= -1.2D-15,  1.2D-15, -5.1D-17, r^2= 1.5D+00
   Bfn.  Coefficient  Atom+Function         Bfn.  Coefficient  Atom+Function  
  ----- ------------  ---------------      ----- ------------  ---------------
    34      1.055918  1 Cl dxz               36     -1.059896  1 Cl dyz        
    40     -0.875239  1 Cl dxz               42      0.878537  1 Cl dyz        
    35      0.317263  1 Cl dyy               32     -0.315190  1 Cl dxx        
    41     -0.262976  1 Cl dyy               38      0.261258  1 Cl dxx        
    28      0.219692  1 Cl dxz               30     -0.220520  1 Cl dyz        
 
 Vector   24  Occ=0.000000D+00  E= 6.766327D-01
              MO Center= -2.1D-16, -3.4D-16,  7.8D-16, r^2= 1.5D+00
   Bfn.  Coefficient  Atom+Function         Bfn.  Coefficient  Atom+Function  
  ----- ------------  ---------------      ----- ------------  ---------------
    34      0.803405  1 Cl dxz               36      0.797175  1 Cl dyz        
    40     -0.665934  1 Cl dxz               42     -0.660770  1 Cl dyz        
    33     -0.582540  1 Cl dxy               37      0.582538  1 Cl dzz        
    39      0.482861  1 Cl dxy               43     -0.482860  1 Cl dzz        
    32     -0.291922  1 Cl dxx               35     -0.290617  1 Cl dyy        
 
 Vector   25  Occ=0.000000D+00  E= 6.802545D-01
              MO Center= -1.0D-15,  6.9D-16,  4.7D-17, r^2= 1.5D+00
   Bfn.  Coefficient  Atom+Function         Bfn.  Coefficient  Atom+Function  
  ----- ------------  ---------------      ----- ------------  ---------------
    37     -0.724693  1 Cl dzz               34      0.713101  1 Cl dxz        
    36      0.714260  1 Cl dyz               43      0.599987  1 Cl dzz        
    40     -0.590737  1 Cl dxz               42     -0.591697  1 Cl dyz        
    32      0.362595  1 Cl dxx               35      0.362249  1 Cl dyy        
    38     -0.300728  1 Cl dxx               41     -0.300441  1 Cl dyy        
 
 Vector   26  Occ=0.000000D+00  E= 6.843006D-01
              MO Center= -4.2D-16,  1.1D-15,  6.4D-17, r^2= 1.5D+00
   Bfn.  Coefficient  Atom+Function         Bfn.  Coefficient  Atom+Function  
  ----- ------------  ---------------      ----- ------------  ---------------
    32      0.749628  1 Cl dxx               35     -0.748847  1 Cl dyy        
    38     -0.613240  1 Cl dxx               41      0.612602  1 Cl dyy        
    36     -0.450165  1 Cl dyz               34      0.445669  1 Cl dxz        
    42      0.368261  1 Cl dyz               40     -0.364584  1 Cl dxz        
    26      0.158420  1 Cl dxx               29     -0.158255  1 Cl dyy        
 
 Vector   27  Occ=0.000000D+00  E= 6.843006D-01
              MO Center= -7.0D-16,  5.9D-16, -4.8D-17, r^2= 1.5D+00
   Bfn.  Coefficient  Atom+Function         Bfn.  Coefficient  Atom+Function  
  ----- ------------  ---------------      ----- ------------  ---------------
    33      1.503542  1 Cl dxy               39     -1.229987  1 Cl dxy        
    34      0.415067  1 Cl dxz               36      0.410067  1 Cl dyz        
    40     -0.339550  1 Cl dxz               42     -0.335459  1 Cl dyz        
    27      0.317746  1 Cl dxy               37      0.123323  1 Cl dzz        
    43     -0.100885  1 Cl dzz               28      0.087717  1 Cl dxz        
 
 Vector   28  Occ=0.000000D+00  E= 1.094025D+00
              MO Center= -6.3D-15, -9.3D-14, -1.2D-14, r^2= 3.3D+00
   Bfn.  Coefficient  Atom+Function         Bfn.  Coefficient  Atom+Function  
  ----- ------------  ---------------      ----- ------------  ---------------
     6      8.239414  1 Cl s                  5     -2.793860  1 Cl s          
    38     -2.398642  1 Cl dxx               41     -2.398642  1 Cl dyy        
    43     -2.397648  1 Cl dzz               22      1.281655  1 Cl s          
    32     -1.219845  1 Cl dxx               35     -1.219846  1 Cl dyy        
    37     -1.224428  1 Cl dzz               26     -0.267449  1 Cl dxx        
 
 Vector   29  Occ=0.000000D+00  E= 1.130227D+00
              MO Center=  3.7D-15,  3.6D-15, -1.3D-14, r^2= 3.0D+00
   Bfn.  Coefficient  Atom+Function         Bfn.  Coefficient  Atom+Function  
  ----- ------------  ---------------      ----- ------------  ---------------
    18      6.978873  1 Cl pz                46     -2.740179  1 Cl fxxz       
    51     -2.740182  1 Cl fyyz              53     -2.742841  1 Cl fzzz       
    15     -2.435600  1 Cl pz                16     -2.084378  1 Cl px         
    17     -2.087766  1 Cl py                21     -1.967528  1 Cl pz         
    52      0.822710  1 Cl fyzz              44      0.818215  1 Cl fxxx       
 
 Vector   30  Occ=0.000000D+00  E= 1.137159D+00
              MO Center= -4.3D-14,  4.3D-14,  3.2D-17, r^2= 3.0D+00
   Bfn.  Coefficient  Atom+Function         Bfn.  Coefficient  Atom+Function  
  ----- ------------  ---------------      ----- ------------  ---------------
    16      5.334261  1 Cl px                17     -5.328301  1 Cl py         
    44     -2.092650  1 Cl fxxx              45      2.091647  1 Cl fxxy       
    47     -2.093982  1 Cl fxyy              49     -2.085840  1 Cl fxzz       
    50      2.090309  1 Cl fyyy              52      2.083511  1 Cl fyzz       
    13     -1.869188  1 Cl px                14      1.867100  1 Cl py         
 
 Vector   31  Occ=0.000000D+00  E= 1.137159D+00
              MO Center=  4.6D-14,  4.7D-14,  2.8D-14, r^2= 3.0D+00
   Bfn.  Coefficient  Atom+Function         Bfn.  Coefficient  Atom+Function  
  ----- ------------  ---------------      ----- ------------  ---------------
    16      4.908030  1 Cl px                17      4.913076  1 Cl py         
    18      2.935652  1 Cl pz                44     -1.925438  1 Cl fxxx       
    45     -1.926188  1 Cl fxxy              47     -1.924205  1 Cl fxyy       
    49     -1.921631  1 Cl fxzz              50     -1.927415  1 Cl fyyy       
    52     -1.923608  1 Cl fyzz              13     -1.719832  1 Cl px         
 
 Vector   32  Occ=0.000000D+00  E= 1.638474D+00
              MO Center=  7.7D-17, -1.2D-16, -2.3D-16, r^2= 9.0D-01
   Bfn.  Coefficient  Atom+Function         Bfn.  Coefficient  Atom+Function  
  ----- ------------  ---------------      ----- ------------  ---------------
    48      2.755971  1 Cl fxyz              45     -0.948511  1 Cl fxxy       
    47     -0.941596  1 Cl fxyy              49      0.833306  1 Cl fxzz       
    52      0.814283  1 Cl fyzz              51     -0.417355  1 Cl fyyz       
    46     -0.393858  1 Cl fxxz              53      0.270404  1 Cl fzzz       
    50      0.044743  1 Cl fyyy              44      0.036097  1 Cl fxxx       
 
 Vector   33  Occ=0.000000D+00  E= 1.638474D+00
              MO Center= -8.0D-16,  1.2D-16, -6.3D-18, r^2= 9.0D-01
   Bfn.  Coefficient  Atom+Function         Bfn.  Coefficient  Atom+Function  
  ----- ------------  ---------------      ----- ------------  ---------------
    46      1.353467  1 Cl fxxz              51     -1.345058  1 Cl fyyz       
    52     -0.989878  1 Cl fyzz              49      0.974394  1 Cl fxzz       
    47      0.498877  1 Cl fxyy              44     -0.491090  1 Cl fxxx       
    50      0.491050  1 Cl fyyy              45     -0.483272  1 Cl fxxy       
 
 Vector   34  Occ=0.000000D+00  E= 1.648534D+00
              MO Center= -6.3D-16,  4.7D-17, -1.7D-16, r^2= 9.0D-01
   Bfn.  Coefficient  Atom+Function         Bfn.  Coefficient  Atom+Function  
  ----- ------------  ---------------      ----- ------------  ---------------
    45      1.547324  1 Cl fxxy              47     -1.552465  1 Cl fxyy       
    46      0.850938  1 Cl fxxz              51     -0.850336  1 Cl fyyz       
    44      0.433025  1 Cl fxxx              50     -0.430778  1 Cl fyyy       
    52     -0.254988  1 Cl fyzz              49      0.253388  1 Cl fxzz       
 
 Vector   35  Occ=0.000000D+00  E= 1.648534D+00
              MO Center= -4.8D-16,  1.4D-16, -1.0D-16, r^2= 9.0D-01
   Bfn.  Coefficient  Atom+Function         Bfn.  Coefficient  Atom+Function  
  ----- ------------  ---------------      ----- ------------  ---------------
    48      1.706819  1 Cl fxyz              45      1.430575  1 Cl fxxy       
    47      1.424578  1 Cl fxyy              44     -0.553270  1 Cl fxxx       
    50     -0.554667  1 Cl fyyy              49      0.235228  1 Cl fxzz       
    52      0.233420  1 Cl fyzz              51     -0.072197  1 Cl fyyz       
    46     -0.067655  1 Cl fxxz              53      0.046623  1 Cl fzzz       
 
 Vector   36  Occ=0.000000D+00  E= 1.648708D+00
              MO Center= -6.1D-16, -1.9D-16,  9.7D-16, r^2= 9.0D-01
   Bfn.  Coefficient  Atom+Function         Bfn.  Coefficient  Atom+Function  
  ----- ------------  ---------------      ----- ------------  ---------------
    49      1.327004  1 Cl fxzz              52      1.329158  1 Cl fyzz       
    48     -1.047522  1 Cl fxyz              46      0.894757  1 Cl fxxz       
    51      0.893060  1 Cl fyyz              53     -0.535905  1 Cl fzzz       
    44     -0.371305  1 Cl fxxx              50     -0.371737  1 Cl fyyy       
    45     -0.267824  1 Cl fxxy              47     -0.266881  1 Cl fxyy       
 
 Vector   37  Occ=0.000000D+00  E= 1.648851D+00
              MO Center=  6.4D-16,  7.6D-16,  3.0D-16, r^2= 9.0D-01
   Bfn.  Coefficient  Atom+Function         Bfn.  Coefficient  Atom+Function  
  ----- ------------  ---------------      ----- ------------  ---------------
    48      1.842028  1 Cl fxyz              46      1.163539  1 Cl fxxz       
    51      1.149556  1 Cl fyyz              53     -0.775910  1 Cl fzzz       
    49     -0.703487  1 Cl fxzz              52     -0.682830  1 Cl fyzz       
    44      0.244827  1 Cl fxxx              50      0.240656  1 Cl fyyy       
    45     -0.063448  1 Cl fxxy              47     -0.055675  1 Cl fxyy       
 
 Vector   38  Occ=0.000000D+00  E= 1.648851D+00
              MO Center= -8.6D-16,  6.2D-16,  5.1D-16, r^2= 9.0D-01
   Bfn.  Coefficient  Atom+Function         Bfn.  Coefficient  Atom+Function  
  ----- ------------  ---------------      ----- ------------  ---------------
    52     -1.413268  1 Cl fyzz              49      1.404837  1 Cl fxzz       
    51      1.106953  1 Cl fyyz              46     -1.089076  1 Cl fxxz       
    45      0.591712  1 Cl fxxy              47     -0.591996  1 Cl fxyy       
    50      0.264932  1 Cl fyyy              44     -0.262139  1 Cl fxxx       
 
 Vector   39  Occ=0.000000D+00  E= 3.500436D+00
              MO Center=  7.3D-15, -6.7D-15,  4.1D-16, r^2= 1.4D+00
   Bfn.  Coefficient  Atom+Function         Bfn.  Coefficient  Atom+Function  
  ----- ------------  ---------------      ----- ------------  ---------------
    16      5.772811  1 Cl px                17     -5.400164  1 Cl py         
    44     -3.337167  1 Cl fxxx              47     -3.336756  1 Cl fxyy       
    49     -3.339380  1 Cl fxzz              45      3.121306  1 Cl fxxy       
    50      3.121746  1 Cl fyyy              52      3.123869  1 Cl fyzz       
    19     -0.901893  1 Cl px                20      0.843674  1 Cl py         
 
 Vector   40  Occ=0.000000D+00  E= 3.500436D+00
              MO Center=  1.0D-14,  1.0D-14,  6.4D-15, r^2= 1.4D+00
   Bfn.  Coefficient  Atom+Function         Bfn.  Coefficient  Atom+Function  
  ----- ------------  ---------------      ----- ------------  ---------------
    17      5.347129  1 Cl py                16      4.944045  1 Cl px         
    52     -3.092378  1 Cl fyzz              18      3.076291  1 Cl pz         
    45     -3.091463  1 Cl fxxy              50     -3.091087  1 Cl fyyy       
    44     -2.858071  1 Cl fxxx              47     -2.858479  1 Cl fxyy       
    49     -2.859207  1 Cl fxzz              46     -1.777094  1 Cl fxxz       
 
 Vector   41  Occ=0.000000D+00  E= 3.544446D+00
              MO Center= -1.7D-14, -1.7D-14,  5.8D-14, r^2= 1.4D+00
   Bfn.  Coefficient  Atom+Function         Bfn.  Coefficient  Atom+Function  
  ----- ------------  ---------------      ----- ------------  ---------------
    18      7.253114  1 Cl pz                46     -4.191341  1 Cl fxxz       
    51     -4.191354  1 Cl fyyz              53     -4.201970  1 Cl fzzz       
    16     -2.166310  1 Cl px                17     -2.169830  1 Cl py         
    49      1.263684  1 Cl fxzz              52      1.265738  1 Cl fyzz       
    44      1.251067  1 Cl fxxx              45      1.253875  1 Cl fxxy       
 
 Vector   42  Occ=0.000000D+00  E= 3.756071D+00
              MO Center=  3.3D-16,  1.3D-14, -6.6D-14, r^2= 1.4D+00
   Bfn.  Coefficient  Atom+Function         Bfn.  Coefficient  Atom+Function  
  ----- ------------  ---------------      ----- ------------  ---------------
     6      7.205642  1 Cl s                  5      6.524385  1 Cl s          
    32     -4.220211  1 Cl dxx               35     -4.220202  1 Cl dyy        
    37     -4.192058  1 Cl dzz                4     -1.947241  1 Cl s          
    43     -1.690257  1 Cl dzz               38     -1.680545  1 Cl dxx        
    41     -1.680549  1 Cl dyy                3     -1.069177  1 Cl s          
 
 Vector   43  Occ=0.000000D+00  E= 4.593893D+00
              MO Center= -6.5D-16, -5.7D-17, -4.1D-16, r^2= 4.2D-01
   Bfn.  Coefficient  Atom+Function         Bfn.  Coefficient  Atom+Function  
  ----- ------------  ---------------      ----- ------------  ---------------
    26      0.895028  1 Cl dxx               29     -0.893446  1 Cl dyy        
    32     -0.653359  1 Cl dxx               35      0.652204  1 Cl dyy        
    30     -0.539455  1 Cl dyz               28      0.529740  1 Cl dxz        
    36      0.393795  1 Cl dyz               34     -0.386703  1 Cl dxz        
    38      0.216969  1 Cl dxx               41     -0.216586  1 Cl dyy        
 
 Vector   44  Occ=0.000000D+00  E= 4.593893D+00
              MO Center= -5.9D-16,  9.7D-16, -2.4D-17, r^2= 4.2D-01
   Bfn.  Coefficient  Atom+Function         Bfn.  Coefficient  Atom+Function  
  ----- ------------  ---------------      ----- ------------  ---------------
    27      1.794520  1 Cl dxy               33     -1.309976  1 Cl dxy        
    28      0.497754  1 Cl dxz               30      0.487064  1 Cl dyz        
    39      0.435021  1 Cl dxy               34     -0.363354  1 Cl dxz        
    36     -0.355551  1 Cl dyz               31      0.147188  1 Cl dzz        
    40      0.120664  1 Cl dxz               42      0.118072  1 Cl dyz        
 
 Vector   45  Occ=0.000000D+00  E= 4.617196D+00
              MO Center= -1.8D-16, -8.3D-17, -5.4D-16, r^2= 4.2D-01
   Bfn.  Coefficient  Atom+Function         Bfn.  Coefficient  Atom+Function  
  ----- ------------  ---------------      ----- ------------  ---------------
    30      0.964651  1 Cl dyz               28      0.949701  1 Cl dxz        
    36     -0.701724  1 Cl dyz               27     -0.696736  1 Cl dxy        
    31      0.696746  1 Cl dzz               34     -0.690849  1 Cl dxz        
    33      0.506832  1 Cl dxy               37     -0.506840  1 Cl dzz        
    29     -0.350940  1 Cl dyy               26     -0.345805  1 Cl dxx        
 
 Vector   46  Occ=0.000000D+00  E= 4.617196D+00
              MO Center= -5.6D-16,  6.2D-16, -9.2D-17, r^2= 4.2D-01
   Bfn.  Coefficient  Atom+Function         Bfn.  Coefficient  Atom+Function  
  ----- ------------  ---------------      ----- ------------  ---------------
    28      1.271397  1 Cl dxz               30     -1.259210  1 Cl dyz        
    34     -0.924863  1 Cl dxz               36      0.915998  1 Cl dyz        
    26     -0.380060  1 Cl dxx               29      0.376372  1 Cl dyy        
    40      0.307525  1 Cl dxz               42     -0.304577  1 Cl dyz        
    32      0.276470  1 Cl dxx               35     -0.273787  1 Cl dyy        
 
 Vector   47  Occ=0.000000D+00  E= 4.631202D+00
              MO Center= -1.4D-15, -6.2D-16, -1.5D-15, r^2= 4.2D-01
   Bfn.  Coefficient  Atom+Function         Bfn.  Coefficient  Atom+Function  
  ----- ------------  ---------------      ----- ------------  ---------------
    28      0.852359  1 Cl dxz               30      0.853744  1 Cl dyz        
    31     -0.839821  1 Cl dzz               37      0.752215  1 Cl dzz        
    34     -0.619789  1 Cl dxz               36     -0.620796  1 Cl dyz        
    26      0.459794  1 Cl dxx               29      0.459380  1 Cl dyy        
    27     -0.254991  1 Cl dxy               40      0.205829  1 Cl dxz        
 
 Vector   48  Occ=0.000000D+00  E= 1.063230D+01
              MO Center= -2.9D-16,  4.2D-17, -1.5D-15, r^2= 6.1D-01
   Bfn.  Coefficient  Atom+Function         Bfn.  Coefficient  Atom+Function  
  ----- ------------  ---------------      ----- ------------  ---------------
     5     14.057591  1 Cl s                 32     -5.105961  1 Cl dxx        
    35     -5.105962  1 Cl dyy               37     -5.106429  1 Cl dzz        
     6      3.871503  1 Cl s                 26     -3.183689  1 Cl dxx        
    29     -3.183689  1 Cl dyy               31     -3.185046  1 Cl dzz        
     3     -1.763819  1 Cl s                 38     -0.893219  1 Cl dxx        
 
 Vector   49  Occ=0.000000D+00  E= 2.752773D+01
              MO Center= -1.1D-15,  2.0D-15, -1.7D-15, r^2= 2.5D-01
   Bfn.  Coefficient  Atom+Function         Bfn.  Coefficient  Atom+Function  
  ----- ------------  ---------------      ----- ------------  ---------------
     4     13.760751  1 Cl s                  5     11.640178  1 Cl s          
     3    -10.828776  1 Cl s                 26     -5.932582  1 Cl dxx        
    29     -5.932582  1 Cl dyy               31     -5.932985  1 Cl dzz        
    32     -3.747816  1 Cl dxx               35     -3.747815  1 Cl dyy        
    37     -3.747133  1 Cl dzz                6      2.046772  1 Cl s          
 
 Vector   50  Occ=0.000000D+00  E= 3.140656D+01
              MO Center=  1.7D-15, -1.7D-15, -9.6D-19, r^2= 4.1D-01
   Bfn.  Coefficient  Atom+Function         Bfn.  Coefficient  Atom+Function  
  ----- ------------  ---------------      ----- ------------  ---------------
    16     -3.028678  1 Cl px                17      3.007462  1 Cl py         
     7      2.924309  1 Cl px                 8     -2.903825  1 Cl py         
    10      2.821068  1 Cl px                11     -2.801307  1 Cl py         
    44      2.037907  1 Cl fxxx              47      2.037914  1 Cl fxyy       
    49      2.037872  1 Cl fxzz              45     -2.023639  1 Cl fxxy       
 
 Vector   51  Occ=0.000000D+00  E= 3.140656D+01
              MO Center=  2.1D-16,  2.2D-16,  1.5D-16, r^2= 4.1D-01
   Bfn.  Coefficient  Atom+Function         Bfn.  Coefficient  Atom+Function  
  ----- ------------  ---------------      ----- ------------  ---------------
    17     -2.791001  1 Cl py                16     -2.768774  1 Cl px         
     8      2.694823  1 Cl py                 7      2.673362  1 Cl px         
    11      2.599683  1 Cl py                10      2.578980  1 Cl px         
    45      1.877976  1 Cl fxxy              50      1.877982  1 Cl fyyy       
    52      1.877962  1 Cl fyzz              44      1.863026  1 Cl fxxx       
 
 Vector   52  Occ=0.000000D+00  E= 3.144410D+01
              MO Center= -4.3D-16, -4.1D-16,  1.3D-15, r^2= 4.1D-01
   Bfn.  Coefficient  Atom+Function         Bfn.  Coefficient  Atom+Function  
  ----- ------------  ---------------      ----- ------------  ---------------
    18     -3.932771  1 Cl pz                 9      3.795958  1 Cl pz         
    12      3.661917  1 Cl pz                46      2.646147  1 Cl fxxz       
    51      2.646147  1 Cl fyyz              53      2.646406  1 Cl fzzz       
    15     -1.621049  1 Cl pz                16      1.174613  1 Cl px         
    17      1.176521  1 Cl py                 7     -1.133750  1 Cl px         
 
 Vector   53  Occ=0.000000D+00  E= 2.471875D+02
              MO Center=  4.7D-17,  2.5D-18, -7.8D-18, r^2= 3.3D-02
   Bfn.  Coefficient  Atom+Function         Bfn.  Coefficient  Atom+Function  
  ----- ------------  ---------------      ----- ------------  ---------------
     4      6.651593  1 Cl s                  3     -5.787378  1 Cl s          
     5      3.950533  1 Cl s                 26     -2.393245  1 Cl dxx        
    29     -2.393245  1 Cl dyy               31     -2.393260  1 Cl dzz        
     2      2.311923  1 Cl s                  1     -1.623885  1 Cl s          
    32     -1.286919  1 Cl dxx               35     -1.286919  1 Cl dyy        
 

   alpha - beta orbital overlaps 
   ----------------------------- 


   alpha      1      2      3      4      5      6      7      8      9     10
    beta      1      2      4      3      5      6      8      9      7     10
 overlap   1.000  1.000  1.000  1.000  1.000  0.998  0.997  0.997  1.000  0.999


   alpha     11     12     13     14     15     16     17     18     19     20
    beta     18     17     13     12     11     15     14     16     19     22
 overlap   0.997  0.997  0.997  0.997  1.000  0.999  0.999  0.998  0.999  0.997


   alpha     21     22     23     24     25     26     27     28     29     30
    beta     21     20     27     26     24     23     25     28     31     30
 overlap   0.997  1.000  0.997  0.997  0.999  0.999  0.998  1.000  1.000  1.000


   alpha     31     32     33     34     35     36     37     38     39     40
    beta     29     35     34     32     33     38     37     36     40     39
 overlap   1.000  1.000  1.000  1.000  1.000  1.000  1.000  1.000  1.000  1.000


   alpha     41     42     43     44     45     46     47     48     49     50
    beta     41     42     44     43     46     45     47     48     49     50
 overlap   1.000  1.000  1.000  1.000  1.000  1.000  1.000  1.000  1.000  0.979


   alpha     51     52     53
    beta     51     52     53
 overlap   0.979  1.000  1.000

     --------------------------
     Expectation value of S2:  
     --------------------------
      <S2> =      2.0044 (Exact =     2.0000)
 

 Parallel integral file used      16 records with       0 large values


 Task  times  cpu:        3.6s     wall:        4.6s
 
 
                                NWChem Input Module
                                -------------------
 
 
 Summary of allocated global arrays
-----------------------------------
  No active global arrays



                         GA Statistics for process    0
                         ------------------------------

       create   destroy   get      put      acc     scatter   gather  read&inc
calls:  221      221      881      753      154        0        0       58     
number of processes/call 1.55e+00 1.27e+00 3.84e+00 0.00e+00 0.00e+00
bytes total:             1.03e+07 3.88e+06 3.46e+06 0.00e+00 0.00e+00 4.64e+02
bytes remote:            7.72e+05 1.23e+05 8.70e+05 0.00e+00 0.00e+00 0.00e+00
Max memory consumed for GA by this process: 1460680 bytes
 
MA_summarize_allocated_blocks: starting scan ...
MA_summarize_allocated_blocks: scan completed: 0 heap blocks, 0 stack blocks
MA usage statistics:

	allocation statistics:
					      heap	     stack
					      ----	     -----
	current number of blocks	         0	         0
	maximum number of blocks	        21	        53
	current total bytes		         0	         0
	maximum total bytes		   2415272	  22513048
	maximum total K-bytes		      2416	     22514
	maximum total M-bytes		         3	        23
 
 
                                     CITATION
                                     --------
                Please cite the following reference when publishing
                           results obtained with NWChem:
 
                 M. Valiev, E.J. Bylaska, N. Govind, K. Kowalski,
              T.P. Straatsma, H.J.J. van Dam, D. Wang, J. Nieplocha,
                        E. Apra, T.L. Windus, W.A. de Jong
                 "NWChem: a comprehensive and scalable open-source
                  solution for large scale molecular simulations"
                      Comput. Phys. Commun. 181, 1477 (2010)
                           doi:10.1016/j.cpc.2010.04.018
 
                                      AUTHORS
                                      -------
          E. Apra, E. J. Bylaska, W. A. de Jong, N. Govind, K. Kowalski,
       T. P. Straatsma, M. Valiev, H. J. J. van Dam, D. Wang, T. L. Windus,
        J. Hammond, J. Autschbach, K. Bhaskaran-Nair, J. Brabec, K. Lopata,
    S. A. Fischer, S. Krishnamoorthy, M. Jacquelin, W. Ma, M. Klemm, O. Villa,
      Y. Chen, V. Anisimov, F. Aquino, S. Hirata, M. T. Hackler, V. Konjkov,
            D. Mejia-Rodriguez, T. Risthaus, M. Malagoli, A. Marenich,
   A. Otero-de-la-Roza, J. Mullin, P. Nichols, R. Peverati, J. Pittner, Y. Zhao,
        P.-D. Fan, A. Fonari, M. J. Williamson, R. J. Harrison, J. R. Rehr,
      M. Dupuis, D. Silverstein, D. M. A. Smith, J. Nieplocha, V. Tipparaju,
    M. Krishnan, B. E. Van Kuiken, A. Vazquez-Mayagoitia, L. Jensen, M. Swart,
      Q. Wu, T. Van Voorhis, A. A. Auer, M. Nooijen, L. D. Crosby, E. Brown,
      G. Cisneros, G. I. Fann, H. Fruchtl, J. Garza, K. Hirao, R. A. Kendall,
      J. A. Nichols, K. Tsemekhman, K. Wolinski, J. Anchell, D. E. Bernholdt,
      P. Borowski, T. Clark, D. Clerc, H. Dachsel, M. J. O. Deegan, K. Dyall,
    D. Elwood, E. Glendening, M. Gutowski, A. C. Hess, J. Jaffe, B. G. Johnson,
     J. Ju, R. Kobayashi, R. Kutteh, Z. Lin, R. Littlefield, X. Long, B. Meng,
      T. Nakajima, S. Niu, L. Pollack, M. Rosing, K. Glaesemann, G. Sandrone,
      M. Stave, H. Taylor, G. Thomas, J. H. van Lenthe, A. T. Wong, Z. Zhang.

 Total times  cpu:        4.0s     wall:        5.3s
