 argument  1 = /storage/home/rabeet/work/nwc/ip13/nwtpss/O.nw
  NWChem w/ OpenMP: maximum threads =  1
                                         
                                         
 
 
              Northwest Computational Chemistry Package (NWChem) 6.8
              ------------------------------------------------------
 
 
                    Environmental Molecular Sciences Laboratory
                       Pacific Northwest National Laboratory
                                Richland, WA 99352
 
                              Copyright (c) 1994-2018
                       Pacific Northwest National Laboratory
                            Battelle Memorial Institute
 
             NWChem is an open-source computational chemistry package
                        distributed under the terms of the
                      Educational Community License (ECL) 2.0
             A copy of the license is included with this distribution
                              in the LICENSE.TXT file
 
                                  ACKNOWLEDGMENT
                                  --------------

            This software and its documentation were developed at the
            EMSL at Pacific Northwest National Laboratory, a multiprogram
            national laboratory, operated for the U.S. Department of Energy
            by Battelle under Contract Number DE-AC05-76RL01830. Support
            for this work was provided by the Department of Energy Office
            of Biological and Environmental Research, Office of Basic
            Energy Sciences, and the Office of Advanced Scientific Computing.


           Job information
           ---------------

    hostname        = r8n4.niserhpc.org
    program         = /home/rabeet/nwchem-6.8/bin/LINUX64/nwchem
    date            = Sun Oct 27 10:43:58 2019

    compiled        = Fri_Jun_28_18:24:12_2019
    source          = /home/rabeet/nwchem-6.8
    nwchem branch   = Development
    nwchem revision = N/A
    ga revision     = 5.6.5
    use scalapack   = T
    input           = /storage/home/rabeet/work/nwc/ip13/nwtpss/O.nw
    prefix          = O.
    data base       = ./O.db
    status          = startup
    nproc           =       16
    time left       =     -1s



           Memory information
           ------------------

    heap     =   13107196 doubles =    100.0 Mbytes
    stack    =   13107201 doubles =    100.0 Mbytes
    global   =   26214400 doubles =    200.0 Mbytes (distinct from heap & stack)
    total    =   52428797 doubles =    400.0 Mbytes
    verify   = yes
    hardfail = no 


           Directory information
           ---------------------
 
  0 permanent = .
  0 scratch   = .
 
 
 
 
                                NWChem Input Module
                                -------------------
 
 

 Scaling coordinates for geometry "geometry" by  1.889725989
 (inverse scale =  0.529177249)

 
 
                             Geometry "geometry" -> ""
                             -------------------------
 
 Output coordinates in angstroms (scale by  1.889725989 to convert to a.u.)
 
  No.       Tag          Charge          X              Y              Z
 ---- ---------------- ---------- -------------- -------------- --------------
    1 O                    8.0000     0.00000000     0.00000000     0.00000000
 
      Atomic Mass 
      ----------- 
 
      O                 15.994910
 

 Effective nuclear repulsion energy (a.u.)       0.0000000000

            Nuclear Dipole moment (a.u.) 
            ----------------------------
        X                 Y               Z
 ---------------- ---------------- ----------------
     0.0000000000     0.0000000000     0.0000000000
 
 
            XYZ format geometry
            -------------------
     1
 geometry
 O                     0.00000000     0.00000000     0.00000000
 


 Summary of "ao basis" -> "" (cartesian)
 ------------------------------------------------------------------------------
       Tag                 Description            Shells   Functions and Types
 ---------------- ------------------------------  ------  ---------------------
 *                     6-311++G(3df,3pd)              on all atoms 


 
                                 NWChem DFT Module
                                 -----------------
 
 
                      Basis "ao basis" -> "ao basis" (cartesian)
                      -----
  O (Oxygen)
  ----------
            Exponent  Coefficients 
       -------------- ---------------------------------------------------------
  1 S  8.58850000E+03  0.001895
  1 S  1.29723000E+03  0.014386
  1 S  2.99296000E+02  0.070732
  1 S  8.73771000E+01  0.240001
  1 S  2.56789000E+01  0.594797
  1 S  3.74004000E+00  0.280802
 
  2 S  4.21175000E+01  0.113889
  2 S  9.62837000E+00  0.920811
  2 S  2.85332000E+00 -0.003274
 
  3 P  4.21175000E+01  0.036511
  3 P  9.62837000E+00  0.237153
  3 P  2.85332000E+00  0.819702
 
  4 S  9.05661000E-01  1.000000
 
  5 P  9.05661000E-01  1.000000
 
  6 S  2.55611000E-01  1.000000
 
  7 P  2.55611000E-01  1.000000
 
  8 S  8.45000000E-02  1.000000
 
  9 P  8.45000000E-02  1.000000
 
 10 D  5.16000000E+00  1.000000
 
 11 D  1.29200000E+00  1.000000
 
 12 D  3.22500000E-01  1.000000
 
 13 F  1.40000000E+00  1.000000
 


 Summary of "ao basis" -> "ao basis" (cartesian)
 ------------------------------------------------------------------------------
       Tag                 Description            Shells   Functions and Types
 ---------------- ------------------------------  ------  ---------------------
 O                     6-311++G(3df,3pd)            13       45   5s4p3d1f




 Summary of "ao basis" -> "ao basis" (cartesian)
 ------------------------------------------------------------------------------
       Tag                 Description            Shells   Functions and Types
 ---------------- ------------------------------  ------  ---------------------
 O                     6-311++G(3df,3pd)            13       45   5s4p3d1f


  Caching 1-el integrals 
 
            General Information
            -------------------
          SCF calculation type: DFT
          Wavefunction type:  spin polarized.
          No. of atoms     :     1
          No. of electrons :     8
           Alpha electrons :     5
            Beta electrons :     3
          Charge           :     0
          Spin multiplicity:     3
          Use of symmetry is: off; symmetry adaption is: off
          Maximum number of iterations: ***
          AO basis - number of functions:    45
                     number of shells:    13
          Convergence on energy requested:  1.00D-06
          Convergence on density requested:  1.00D-05
          Convergence on gradient requested:  5.00D-04
 
              XC Information
              --------------
                  TPSS metaGGA Exchange Functional  1.000          
             TPSS03 metaGGA Correlation Functional  1.000          
 
             Grid Information
             ----------------
          Grid used for XC integration:  medium    
          Radial quadrature: Mura-Knowles        
          Angular quadrature: Lebedev. 
          Tag              B.-S. Rad. Rad. Pts. Rad. Cut. Ang. Pts.
          ---              ---------- --------- --------- ---------
          O                   0.60       49           6.0       434
          Grid pruning is: on 
          Number of quadrature shells:    49
          Spatial weights used:  Erf1
 
          Convergence Information
          -----------------------
          Convergence aids based upon iterative change in 
          total energy or number of iterations. 
          Levelshifting, if invoked, occurs when the 
          HOMO/LUMO gap drops below (HL_TOL):  1.00D-02
          DIIS, if invoked, will attempt to extrapolate 
          using up to (NFOCK): 10 stored Fock matrices.

                    Damping( 0%)  Levelshifting(0.5)       DIIS
                  --------------- ------------------- ---------------
          dE  on:    start            ASAP                start   
          dE off:    2 iters        *** iters           *** iters 

 
      Screening Tolerance Information
      -------------------------------
          Density screening/tol_rho:  1.00D-10
          AO Gaussian exp screening on grid/accAOfunc:  14
          CD Gaussian exp screening on grid/accCDfunc:  20
          XC Gaussian exp screening on grid/accXCfunc:  20
          Schwarz screening/accCoul:  1.00D-08

 
      Superposition of Atomic Density Guess
      -------------------------------------
 
 Sum of atomic energies:         -74.77778571
 
      Non-variational initial energy
      ------------------------------

 Total energy =     -74.276656
 1-e energy   =    -103.202565
 2-e energy   =      28.925909
 HOMO         =      -0.377599
 LUMO         =      -0.377599
 
   Time after variat. SCF:      0.5
   Time prior to 1st pass:      0.5

 #quartets = 4.186D+03 #integrals = 9.141D+04 #direct =  0.0% #cached =100.0%


 Integral file          = ./O.aoints.00
 Record size in doubles =    65536    No. of integs per rec  =    43688
 Max. records in memory =        3    Max. records in file   =  8902994
 No. of bits per label  =        8    No. of bits per value  =       64


File balance: exchanges=     0  moved=     0  time=   0.0


 Grid_pts file          = ./O.gridpts.00
 Record size in doubles =  12289        No. of grid_pts per rec  =   3070
 Max. records in memory =      2        Max. recs in file   =   6843689


           Memory utilization after 1st SCF pass: 
           Heap Space remaining (MW):       12.88            12883804
          Stack Space remaining (MW):       13.11            13106724

   convergence    iter        energy       DeltaE   RMS-Dens  Diis-err    time
 ---------------- ----- ----------------- --------- --------- ---------  ------
 d= 0,ls=0.0,diis     1    -75.0724517948 -7.51D+01  5.09D-03  1.61D-01     3.3
                                                     1.88D-03  5.88D-02
 d= 0,ls=0.0,diis     2    -75.0819964206 -9.54D-03  2.74D-03  7.44D-02     3.4
                                                     2.37D-03  4.62D-02
 d= 0,ls=0.0,diis     3    -75.1006725771 -1.87D-02  5.21D-04  3.20D-03     3.5
                                                     2.74D-04  1.08D-03
 d= 0,ls=0.0,diis     4    -75.1014275946 -7.55D-04  1.83D-05  4.24D-06     3.6
                                                     5.29D-05  1.04D-05
 d= 0,ls=0.0,diis     5    -75.1014307257 -3.13D-06  6.94D-06  2.93D-07     3.6
                                                     2.68D-06  2.84D-08
 d= 0,ls=0.0,diis     6    -75.1014307996 -7.38D-08  3.45D-07  1.53D-09     3.7
                                                     8.32D-07  3.08D-09


         Total DFT energy =      -75.101430799582
      One electron energy =     -103.202561046735
           Coulomb energy =       36.584646011502
          Exchange energy =       -8.247184462214
       Correlation energy =       -0.236331302135
 Nuclear repulsion energy =        0.000000000000

 Numeric. integr. density =        7.999999976014

     Total iterative time =      3.2s


 
                    DFT Final Alpha Molecular Orbital Analysis
                    ------------------------------------------
 
 Vector    1  Occ=1.000000D+00  E=-1.903121D+01
              MO Center=  2.5D-17, -1.4D-17,  6.7D-18, r^2= 1.5D-02
   Bfn.  Coefficient  Atom+Function         Bfn.  Coefficient  Atom+Function  
  ----- ------------  ---------------      ----- ------------  ---------------
     1      0.551108  1 O  s                  2      0.470427  1 O  s          
 
 Vector    2  Occ=1.000000D+00  E=-9.499074D-01
              MO Center= -6.3D-16, -1.1D-15,  1.3D-16, r^2= 4.3D-01
   Bfn.  Coefficient  Atom+Function         Bfn.  Coefficient  Atom+Function  
  ----- ------------  ---------------      ----- ------------  ---------------
    10      0.682007  1 O  s                  6      0.668957  1 O  s          
     2     -0.234882  1 O  s                  1     -0.129963  1 O  s          
    30     -0.081854  1 O  dxx               35     -0.073871  1 O  dzz        
    33     -0.072322  1 O  dyy               24     -0.059224  1 O  dxx        
    29     -0.043792  1 O  dzz               27     -0.040798  1 O  dyy        
 
 Vector    3  Occ=1.000000D+00  E=-4.057883D-01
              MO Center=  4.7D-16,  1.8D-15,  5.8D-16, r^2= 5.4D-01
   Bfn.  Coefficient  Atom+Function         Bfn.  Coefficient  Atom+Function  
  ----- ------------  ---------------      ----- ------------  ---------------
     8      0.442371  1 O  py                12      0.348386  1 O  py         
     4      0.304258  1 O  py                 9      0.138506  1 O  pz         
     7      0.130809  1 O  px                13      0.109079  1 O  pz         
    11      0.103018  1 O  px                 5      0.095263  1 O  pz         
     3      0.089969  1 O  px                16      0.035302  1 O  py         
 
 Vector    4  Occ=1.000000D+00  E=-4.057882D-01
              MO Center= -6.5D-17,  5.5D-17, -2.5D-16, r^2= 5.4D-01
   Bfn.  Coefficient  Atom+Function         Bfn.  Coefficient  Atom+Function  
  ----- ------------  ---------------      ----- ------------  ---------------
     9      0.421290  1 O  pz                13      0.331784  1 O  pz         
     5      0.289759  1 O  pz                 8     -0.176939  1 O  py         
     7      0.152298  1 O  px                12     -0.139347  1 O  py         
     4     -0.121697  1 O  py                11      0.119941  1 O  px         
     3      0.104749  1 O  px                17      0.033620  1 O  pz         
 
 Vector    5  Occ=1.000000D+00  E=-3.263835D-01
              MO Center=  3.5D-16,  1.4D-17, -4.1D-16, r^2= 6.0D-01
   Bfn.  Coefficient  Atom+Function         Bfn.  Coefficient  Atom+Function  
  ----- ------------  ---------------      ----- ------------  ---------------
     7      0.412108  1 O  px                11      0.361212  1 O  px         
     3      0.294394  1 O  px                 9     -0.176897  1 O  pz         
    13     -0.155050  1 O  pz                 5     -0.126369  1 O  pz         
     8     -0.066474  1 O  py                15      0.061021  1 O  px         
    12     -0.058265  1 O  py                 4     -0.047487  1 O  py         
 
 Vector    6  Occ=0.000000D+00  E= 6.158803D-02
              MO Center= -1.7D-15,  1.8D-16, -6.9D-15, r^2= 4.2D+00
   Bfn.  Coefficient  Atom+Function         Bfn.  Coefficient  Atom+Function  
  ----- ------------  ---------------      ----- ------------  ---------------
    14      1.760873  1 O  s                  6     -0.363433  1 O  s          
    30     -0.310692  1 O  dxx               33     -0.302118  1 O  dyy        
    35     -0.303511  1 O  dzz               10     -0.211382  1 O  s          
    27     -0.069160  1 O  dyy               29     -0.068210  1 O  dzz        
    24     -0.063316  1 O  dxx                2      0.043068  1 O  s          
 
 Vector    7  Occ=0.000000D+00  E= 1.310183D-01
              MO Center=  2.2D-15, -4.6D-15,  7.3D-15, r^2= 4.9D+00
   Bfn.  Coefficient  Atom+Function         Bfn.  Coefficient  Atom+Function  
  ----- ------------  ---------------      ----- ------------  ---------------
    17      0.984981  1 O  pz                16     -0.626581  1 O  py         
    13     -0.327021  1 O  pz                15      0.321732  1 O  px         
    12      0.208029  1 O  py                 9     -0.123144  1 O  pz         
    11     -0.106817  1 O  px                 5     -0.098118  1 O  pz         
     8      0.078336  1 O  py                 4      0.062416  1 O  py         
 
 Vector    8  Occ=0.000000D+00  E= 1.310184D-01
              MO Center=  1.1D-15,  4.8D-16,  4.0D-16, r^2= 4.9D+00
   Bfn.  Coefficient  Atom+Function         Bfn.  Coefficient  Atom+Function  
  ----- ------------  ---------------      ----- ------------  ---------------
    16      1.020869  1 O  py                17      0.522380  1 O  pz         
    15      0.388903  1 O  px                12     -0.338936  1 O  py         
    13     -0.173434  1 O  pz                11     -0.129119  1 O  px         
     8     -0.127631  1 O  py                 4     -0.101693  1 O  py         
     9     -0.065309  1 O  pz                 5     -0.052036  1 O  pz         
 
 Vector    9  Occ=0.000000D+00  E= 1.425027D-01
              MO Center=  1.2D-15, -4.8D-17, -4.4D-16, r^2= 4.9D+00
   Bfn.  Coefficient  Atom+Function         Bfn.  Coefficient  Atom+Function  
  ----- ------------  ---------------      ----- ------------  ---------------
    15      1.112065  1 O  px                17     -0.477354  1 O  pz         
    11     -0.404975  1 O  px                16     -0.179382  1 O  py         
    13      0.173835  1 O  pz                 7     -0.139255  1 O  px         
     3     -0.116854  1 O  px                12      0.065325  1 O  py         
     9      0.059775  1 O  pz                 5      0.050160  1 O  pz         
 
 Vector   10  Occ=0.000000D+00  E= 6.946162D-01
              MO Center= -2.1D-16, -7.8D-16, -8.5D-17, r^2= 1.5D+00
   Bfn.  Coefficient  Atom+Function         Bfn.  Coefficient  Atom+Function  
  ----- ------------  ---------------      ----- ------------  ---------------
    34      1.551802  1 O  dyz               31      0.615648  1 O  dxy        
    32      0.288766  1 O  dxz               33     -0.156416  1 O  dyy        
    30      0.111632  1 O  dxx               35      0.044795  1 O  dzz        
    22      0.026066  1 O  dyz        
 
 Vector   11  Occ=0.000000D+00  E= 6.946163D-01
              MO Center= -3.3D-16,  4.8D-16, -9.4D-16, r^2= 1.5D+00
   Bfn.  Coefficient  Atom+Function         Bfn.  Coefficient  Atom+Function  
  ----- ------------  ---------------      ----- ------------  ---------------
    33      0.825398  1 O  dyy               35     -0.726449  1 O  dzz        
    32     -0.592351  1 O  dxz               31      0.349597  1 O  dxy        
    34      0.194099  1 O  dyz               30     -0.098934  1 O  dxx        
 
 Vector   12  Occ=0.000000D+00  E= 7.009644D-01
              MO Center= -5.7D-15,  2.7D-15, -3.9D-15, r^2= 2.9D+00
   Bfn.  Coefficient  Atom+Function         Bfn.  Coefficient  Atom+Function  
  ----- ------------  ---------------      ----- ------------  ---------------
    10      2.243034  1 O  s                 33     -1.753981  1 O  dyy        
    14      1.691734  1 O  s                 35     -1.696485  1 O  dzz        
    30     -1.400052  1 O  dxx               24     -0.352889  1 O  dxx        
    27     -0.345135  1 O  dyy               29     -0.346395  1 O  dzz        
    32     -0.311969  1 O  dxz                2     -0.244566  1 O  s          
 
 Vector   13  Occ=0.000000D+00  E= 7.159332D-01
              MO Center=  1.9D-15,  2.5D-16, -3.8D-16, r^2= 1.5D+00
   Bfn.  Coefficient  Atom+Function         Bfn.  Coefficient  Atom+Function  
  ----- ------------  ---------------      ----- ------------  ---------------
    31      1.148709  1 O  dxy               34     -0.658817  1 O  dyz        
    32      0.563221  1 O  dxz               30      0.540760  1 O  dxx        
    35     -0.341402  1 O  dzz               33     -0.199364  1 O  dyy        
 
 Vector   14  Occ=0.000000D+00  E= 7.159333D-01
              MO Center=  1.9D-16, -3.8D-16,  5.1D-16, r^2= 1.5D+00
   Bfn.  Coefficient  Atom+Function         Bfn.  Coefficient  Atom+Function  
  ----- ------------  ---------------      ----- ------------  ---------------
    32     -1.045794  1 O  dxz               31      0.992930  1 O  dxy        
    35      0.516275  1 O  dzz               30     -0.365627  1 O  dxx        
    34     -0.206892  1 O  dyz               33     -0.150652  1 O  dyy        
 
 Vector   15  Occ=0.000000D+00  E= 7.262286D-01
              MO Center= -1.8D-15, -1.1D-16,  6.9D-16, r^2= 1.6D+00
   Bfn.  Coefficient  Atom+Function         Bfn.  Coefficient  Atom+Function  
  ----- ------------  ---------------      ----- ------------  ---------------
    30      1.208129  1 O  dxx               32     -1.012593  1 O  dxz        
    10     -0.721115  1 O  s                 14     -0.509618  1 O  s          
    31     -0.380512  1 O  dxy               35      0.245966  1 O  dzz        
    34      0.163336  1 O  dyz               24      0.113781  1 O  dxx        
    29      0.105666  1 O  dzz               27      0.104092  1 O  dyy        
 
 Vector   16  Occ=0.000000D+00  E= 8.990652D-01
              MO Center= -2.7D-15, -2.2D-15,  6.1D-16, r^2= 2.2D+00
   Bfn.  Coefficient  Atom+Function         Bfn.  Coefficient  Atom+Function  
  ----- ------------  ---------------      ----- ------------  ---------------
    12      1.572103  1 O  py                16     -0.792904  1 O  py         
     8     -0.650127  1 O  py                11      0.402096  1 O  px         
    13      0.345974  1 O  pz                 4     -0.274131  1 O  py         
    15     -0.202801  1 O  px                17     -0.174495  1 O  pz         
     7     -0.166283  1 O  px                 9     -0.143074  1 O  pz         
 
 Vector   17  Occ=0.000000D+00  E= 8.990652D-01
              MO Center=  2.9D-15, -1.3D-15,  7.5D-15, r^2= 2.2D+00
   Bfn.  Coefficient  Atom+Function         Bfn.  Coefficient  Atom+Function  
  ----- ------------  ---------------      ----- ------------  ---------------
    13      1.487979  1 O  pz                17     -0.750475  1 O  pz         
     9     -0.615338  1 O  pz                11      0.562680  1 O  px         
    12     -0.471377  1 O  py                15     -0.283792  1 O  px         
     5     -0.259462  1 O  pz                16      0.237743  1 O  py         
     7     -0.232690  1 O  px                 8      0.194933  1 O  py         
 
 Vector   18  Occ=0.000000D+00  E= 9.373558D-01
              MO Center=  6.9D-15, -1.3D-15, -4.9D-15, r^2= 2.1D+00
   Bfn.  Coefficient  Atom+Function         Bfn.  Coefficient  Atom+Function  
  ----- ------------  ---------------      ----- ------------  ---------------
    11      1.497045  1 O  px                15     -0.743320  1 O  px         
    13     -0.642606  1 O  pz                 7     -0.624949  1 O  px         
    17      0.319070  1 O  pz                 3     -0.269945  1 O  px         
     9      0.268259  1 O  pz                12     -0.241479  1 O  py         
    16      0.119901  1 O  py                 5      0.115874  1 O  pz         
 
 Vector   19  Occ=0.000000D+00  E= 2.416347D+00
              MO Center=  7.9D-16, -1.0D-16, -2.9D-16, r^2= 1.6D+00
   Bfn.  Coefficient  Atom+Function         Bfn.  Coefficient  Atom+Function  
  ----- ------------  ---------------      ----- ------------  ---------------
    10     10.261572  1 O  s                  6     -3.442667  1 O  s          
    30     -3.320260  1 O  dxx               33     -3.320095  1 O  dyy        
    35     -3.320122  1 O  dzz               14      1.039325  1 O  s          
    27     -0.986061  1 O  dyy               29     -0.983977  1 O  dzz        
    24     -0.973237  1 O  dxx               21     -0.233559  1 O  dyy        
 
 Vector   20  Occ=0.000000D+00  E= 3.143251D+00
              MO Center= -1.8D-16,  1.5D-15, -1.8D-16, r^2= 5.8D-01
   Bfn.  Coefficient  Atom+Function         Bfn.  Coefficient  Atom+Function  
  ----- ------------  ---------------      ----- ------------  ---------------
    28      1.763219  1 O  dyz               34     -0.841935  1 O  dyz        
    25      0.748134  1 O  dxy               31     -0.357233  1 O  dxy        
    26      0.216034  1 O  dxz               24      0.106704  1 O  dxx        
    32     -0.103156  1 O  dxz               29     -0.079651  1 O  dzz        
    30     -0.050951  1 O  dxx               35      0.038033  1 O  dzz        
 
 Vector   21  Occ=0.000000D+00  E= 3.143251D+00
              MO Center=  3.0D-16, -6.3D-16,  1.6D-16, r^2= 5.8D-01
   Bfn.  Coefficient  Atom+Function         Bfn.  Coefficient  Atom+Function  
  ----- ------------  ---------------      ----- ------------  ---------------
    27      0.947327  1 O  dyy               29     -0.817210  1 O  dzz        
    26     -0.711334  1 O  dxz               33     -0.452348  1 O  dyy        
    35      0.390217  1 O  dzz               32      0.339661  1 O  dxz        
    25      0.279640  1 O  dxy               31     -0.133528  1 O  dxy        
    24     -0.130117  1 O  dxx               30      0.062131  1 O  dxx        
 
 Vector   22  Occ=0.000000D+00  E= 3.202432D+00
              MO Center=  1.7D-16,  4.9D-16,  2.2D-16, r^2= 5.7D-01
   Bfn.  Coefficient  Atom+Function         Bfn.  Coefficient  Atom+Function  
  ----- ------------  ---------------      ----- ------------  ---------------
    25      1.475804  1 O  dxy               28     -0.771289  1 O  dyz        
    31     -0.696393  1 O  dxy               24      0.522137  1 O  dxx        
    26      0.406043  1 O  dxz               34      0.363951  1 O  dyz        
    29     -0.270500  1 O  dzz               27     -0.251637  1 O  dyy        
    30     -0.246383  1 O  dxx               32     -0.191601  1 O  dxz        
 
 Vector   23  Occ=0.000000D+00  E= 3.202432D+00
              MO Center=  2.6D-17, -5.6D-17,  1.3D-15, r^2= 5.7D-01
   Bfn.  Coefficient  Atom+Function         Bfn.  Coefficient  Atom+Function  
  ----- ------------  ---------------      ----- ------------  ---------------
    26      1.272981  1 O  dxz               25     -0.859826  1 O  dxy        
    29     -0.641558  1 O  dzz               32     -0.600686  1 O  dxz        
    24      0.516298  1 O  dxx               31      0.405729  1 O  dxy        
    35      0.302734  1 O  dzz               30     -0.243628  1 O  dxx        
    27      0.125259  1 O  dyy               28      0.092247  1 O  dyz        
 
 Vector   24  Occ=0.000000D+00  E= 3.224020D+00
              MO Center=  1.7D-16, -3.7D-17,  2.3D-16, r^2= 5.7D-01
   Bfn.  Coefficient  Atom+Function         Bfn.  Coefficient  Atom+Function  
  ----- ------------  ---------------      ----- ------------  ---------------
    26      1.190539  1 O  dxz               24     -0.822303  1 O  dxx        
    32     -0.559499  1 O  dxz               27      0.528381  1 O  dyy        
    25      0.447378  1 O  dxy               30      0.376640  1 O  dxx        
    29      0.308945  1 O  dzz               33     -0.258120  1 O  dyy        
    31     -0.210248  1 O  dxy               28     -0.192038  1 O  dyz        
 
 Vector   25  Occ=0.000000D+00  E= 4.437218D+00
              MO Center= -3.6D-17,  2.0D-16,  1.1D-16, r^2= 5.7D-01
   Bfn.  Coefficient  Atom+Function         Bfn.  Coefficient  Atom+Function  
  ----- ------------  ---------------      ----- ------------  ---------------
    42      1.059910  1 O  fyyy              44      1.042875  1 O  fyzz       
    37      0.974212  1 O  fxxy              12     -0.733868  1 O  py         
     4     -0.720977  1 O  py                 8     -0.432714  1 O  py         
    16      0.281699  1 O  py                39      0.270236  1 O  fxyy       
    41      0.248460  1 O  fxzz              36      0.218617  1 O  fxxx       
 
 Vector   26  Occ=0.000000D+00  E= 4.437218D+00
              MO Center= -6.3D-17, -6.8D-16,  9.4D-16, r^2= 5.7D-01
   Bfn.  Coefficient  Atom+Function         Bfn.  Coefficient  Atom+Function  
  ----- ------------  ---------------      ----- ------------  ---------------
    43      1.001536  1 O  fyyz              45      0.984391  1 O  fzzz       
    38      0.941351  1 O  fxxz              13     -0.691397  1 O  pz         
     5     -0.679252  1 O  pz                41      0.461517  1 O  fxzz       
     9     -0.407671  1 O  pz                39      0.383221  1 O  fxyy       
    36      0.356035  1 O  fxxx              11     -0.270122  1 O  px         
 
 Vector   27  Occ=0.000000D+00  E= 4.506667D+00
              MO Center= -3.7D-16, -7.2D-17, -1.4D-15, r^2= 5.6D-01
   Bfn.  Coefficient  Atom+Function         Bfn.  Coefficient  Atom+Function  
  ----- ------------  ---------------      ----- ------------  ---------------
    39      1.042421  1 O  fxyy              41      0.992984  1 O  fxzz       
    36      0.946409  1 O  fxxx               3     -0.681173  1 O  px         
    11     -0.684193  1 O  px                43     -0.447459  1 O  fyyz       
    45     -0.442712  1 O  fzzz               7     -0.404211  1 O  px         
    38     -0.316840  1 O  fxxz               5      0.292393  1 O  pz         
 
 Vector   28  Occ=0.000000D+00  E= 4.857463D+00
              MO Center= -1.0D-16,  1.1D-16, -2.8D-16, r^2= 4.5D-01
   Bfn.  Coefficient  Atom+Function         Bfn.  Coefficient  Atom+Function  
  ----- ------------  ---------------      ----- ------------  ---------------
    44      1.978742  1 O  fyzz              40      1.586219  1 O  fxyz       
    42     -0.745611  1 O  fyyy              39     -0.510539  1 O  fxyy       
    41      0.349581  1 O  fxzz              43     -0.348816  1 O  fyyz       
    38      0.277989  1 O  fxxz              37      0.258091  1 O  fxxy       
    36      0.053652  1 O  fxxx       
 
 Vector   29  Occ=0.000000D+00  E= 4.857463D+00
              MO Center= -2.1D-16, -4.7D-16, -3.2D-16, r^2= 4.5D-01
   Bfn.  Coefficient  Atom+Function         Bfn.  Coefficient  Atom+Function  
  ----- ------------  ---------------      ----- ------------  ---------------
    43      2.108111  1 O  fyyz              40      0.852463  1 O  fxyz       
    39      0.821630  1 O  fxyy              41     -0.761686  1 O  fxzz       
    45     -0.616637  1 O  fzzz              37      0.315491  1 O  fxxy       
    38     -0.258202  1 O  fxxz              44      0.200782  1 O  fyzz       
    42     -0.172091  1 O  fyyy       
 
 Vector   30  Occ=0.000000D+00  E= 4.900727D+00
              MO Center= -4.6D-16, -1.8D-16, -1.1D-16, r^2= 4.5D-01
   Bfn.  Coefficient  Atom+Function         Bfn.  Coefficient  Atom+Function  
  ----- ------------  ---------------      ----- ------------  ---------------
    39      1.659464  1 O  fxyy              38     -1.218417  1 O  fxxz       
    41     -0.889425  1 O  fxzz              43     -0.661342  1 O  fyyz       
    45      0.626586  1 O  fzzz              44      0.436174  1 O  fyzz       
    40     -0.404816  1 O  fxyz              37      0.394412  1 O  fxxy       
    42     -0.276862  1 O  fyyy              36     -0.256680  1 O  fxxx       
 
 Vector   31  Occ=0.000000D+00  E= 4.900727D+00
              MO Center=  5.0D-16, -1.1D-15,  4.0D-16, r^2= 4.5D-01
   Bfn.  Coefficient  Atom+Function         Bfn.  Coefficient  Atom+Function  
  ----- ------------  ---------------      ----- ------------  ---------------
    40      2.528146  1 O  fxyz              37      1.381164  1 O  fxxy       
    44     -1.311650  1 O  fyzz              43     -0.573339  1 O  fyyz       
    41     -0.415348  1 O  fxzz              38      0.174240  1 O  fxxz       
    36      0.166270  1 O  fxxx              45      0.133033  1 O  fzzz       
    39     -0.083462  1 O  fxyy       
 
 Vector   32  Occ=0.000000D+00  E= 4.928509D+00
              MO Center= -1.3D-16, -2.5D-16, -2.8D-16, r^2= 4.5D-01
   Bfn.  Coefficient  Atom+Function         Bfn.  Coefficient  Atom+Function  
  ----- ------------  ---------------      ----- ------------  ---------------
    40      2.130769  1 O  fxyz              37     -1.569808  1 O  fxxy       
    39      0.883970  1 O  fxyy              41      0.669551  1 O  fxzz       
    36     -0.538085  1 O  fxxx              42      0.459214  1 O  fyyy       
    43     -0.171942  1 O  fyyz              45      0.030114  1 O  fzzz       
    12      0.026802  1 O  py         
 
 Vector   33  Occ=0.000000D+00  E= 4.928509D+00
              MO Center=  6.8D-17, -1.9D-16, -4.9D-16, r^2= 4.5D-01
   Bfn.  Coefficient  Atom+Function         Bfn.  Coefficient  Atom+Function  
  ----- ------------  ---------------      ----- ------------  ---------------
    41      1.924330  1 O  fxzz              38     -1.028577  1 O  fxxz       
    37      0.992539  1 O  fxxy              36     -0.614886  1 O  fxxx       
    43      0.569183  1 O  fyyz              44     -0.343530  1 O  fyzz       
    40     -0.214323  1 O  fxyz              42     -0.188618  1 O  fyyy       
    39     -0.149076  1 O  fxyy              45      0.088821  1 O  fzzz       
 
 Vector   34  Occ=0.000000D+00  E= 4.938206D+00
              MO Center= -8.8D-16,  1.6D-16, -1.2D-16, r^2= 4.5D-01
   Bfn.  Coefficient  Atom+Function         Bfn.  Coefficient  Atom+Function  
  ----- ------------  ---------------      ----- ------------  ---------------
    38      1.854051  1 O  fxxz              39      1.158404  1 O  fxyy       
    40     -0.778810  1 O  fxyz              37      0.696714  1 O  fxxy       
    36     -0.569937  1 O  fxxx              43     -0.497244  1 O  fyyz       
    45     -0.411787  1 O  fzzz              41      0.268481  1 O  fxzz       
    42     -0.202590  1 O  fyyy              44     -0.043306  1 O  fyzz       
 
 Vector   35  Occ=0.000000D+00  E= 6.761667D+00
              MO Center=  7.0D-16,  1.9D-15, -3.9D-15, r^2= 7.7D-01
   Bfn.  Coefficient  Atom+Function         Bfn.  Coefficient  Atom+Function  
  ----- ------------  ---------------      ----- ------------  ---------------
    10      9.327627  1 O  s                  6      4.163824  1 O  s          
    24     -3.694964  1 O  dxx               27     -3.693556  1 O  dyy        
    29     -3.693784  1 O  dzz               30     -2.654185  1 O  dxx        
    33     -2.654954  1 O  dyy               35     -2.654829  1 O  dzz        
     2     -1.567115  1 O  s                 18     -0.813083  1 O  dxx        
 
 Vector   36  Occ=0.000000D+00  E= 1.396136D+01
              MO Center= -3.6D-16, -8.4D-16, -7.2D-16, r^2= 1.7D-01
   Bfn.  Coefficient  Atom+Function         Bfn.  Coefficient  Atom+Function  
  ----- ------------  ---------------      ----- ------------  ---------------
    22     -0.903749  1 O  dyz               21      0.866803  1 O  dyy        
    20     -0.745134  1 O  dxz               23     -0.698145  1 O  dzz        
    28      0.495285  1 O  dyz               27     -0.475037  1 O  dyy        
    26      0.408358  1 O  dxz               29      0.382607  1 O  dzz        
    18     -0.168658  1 O  dxx               34     -0.150478  1 O  dyz        
 
 Vector   37  Occ=0.000000D+00  E= 1.396136D+01
              MO Center= -2.1D-17,  2.3D-15, -1.3D-15, r^2= 1.7D-01
   Bfn.  Coefficient  Atom+Function         Bfn.  Coefficient  Atom+Function  
  ----- ------------  ---------------      ----- ------------  ---------------
    22      1.559947  1 O  dyz               28     -0.854903  1 O  dyz        
    19      0.808935  1 O  dxy               23     -0.465376  1 O  dzz        
    25     -0.443323  1 O  dxy               21      0.431875  1 O  dyy        
    34      0.259738  1 O  dyz               29      0.255041  1 O  dzz        
    27     -0.236682  1 O  dyy               20     -0.147901  1 O  dxz        
 
 Vector   38  Occ=0.000000D+00  E= 1.402289D+01
              MO Center= -8.5D-17,  8.4D-17,  9.4D-17, r^2= 1.7D-01
   Bfn.  Coefficient  Atom+Function         Bfn.  Coefficient  Atom+Function  
  ----- ------------  ---------------      ----- ------------  ---------------
    19      1.565356  1 O  dxy               25     -0.856681  1 O  dxy        
    22     -0.792440  1 O  dyz               18      0.494881  1 O  dxx        
    28      0.433682  1 O  dyz               20      0.322240  1 O  dxz        
    24     -0.270836  1 O  dxx               21     -0.265375  1 O  dyy        
    31      0.259837  1 O  dxy               23     -0.229506  1 O  dzz        
 
 Vector   39  Occ=0.000000D+00  E= 1.402289D+01
              MO Center=  3.6D-16, -2.3D-16,  6.8D-17, r^2= 1.7D-01
   Bfn.  Coefficient  Atom+Function         Bfn.  Coefficient  Atom+Function  
  ----- ------------  ---------------      ----- ------------  ---------------
    20      1.326119  1 O  dxz               19     -0.769999  1 O  dxy        
    26     -0.725752  1 O  dxz               23     -0.673069  1 O  dzz        
    18      0.563528  1 O  dxx               25      0.421401  1 O  dxy        
    29      0.368354  1 O  dzz               24     -0.308405  1 O  dxx        
    32      0.220125  1 O  dxz               31     -0.127814  1 O  dxy        
 
 Vector   40  Occ=0.000000D+00  E= 1.404372D+01
              MO Center=  2.3D-15,  2.7D-17, -6.8D-16, r^2= 1.7D-01
   Bfn.  Coefficient  Atom+Function         Bfn.  Coefficient  Atom+Function  
  ----- ------------  ---------------      ----- ------------  ---------------
    20      1.215945  1 O  dxz               18     -0.826809  1 O  dxx        
    26     -0.665153  1 O  dxz               21      0.552700  1 O  dyy        
    24      0.508009  1 O  dxx               19      0.456931  1 O  dxy        
    23      0.328579  1 O  dzz               25     -0.249953  1 O  dxy        
    27     -0.246618  1 O  dyy               32      0.201628  1 O  dxz        
 
 Vector   41  Occ=0.000000D+00  E= 1.618079D+01
              MO Center=  3.1D-15,  1.6D-14,  2.0D-15, r^2= 3.2D-01
   Bfn.  Coefficient  Atom+Function         Bfn.  Coefficient  Atom+Function  
  ----- ------------  ---------------      ----- ------------  ---------------
     8     12.347648  1 O  py                37     -6.675984  1 O  fxxy       
    42     -6.676659  1 O  fyyy              44     -6.676524  1 O  fyzz       
     4     -3.323589  1 O  py                 7      2.839167  1 O  px         
     9      1.974248  1 O  pz                36     -1.535035  1 O  fxxx       
    39     -1.535445  1 O  fxyy              41     -1.535279  1 O  fxzz       
 
 Vector   42  Occ=0.000000D+00  E= 1.618079D+01
              MO Center= -1.3D-14,  7.2D-15, -3.1D-14, r^2= 3.2D-01
   Bfn.  Coefficient  Atom+Function         Bfn.  Coefficient  Atom+Function  
  ----- ------------  ---------------      ----- ------------  ---------------
     9     11.640149  1 O  pz                38     -6.293646  1 O  fxxz       
    43     -6.294123  1 O  fyyz              45     -6.293986  1 O  fzzz       
     7      4.528372  1 O  px                 5     -3.133153  1 O  pz         
     8     -2.902362  1 O  py                36     -2.448328  1 O  fxxx       
    39     -2.448538  1 O  fxyy              41     -2.449158  1 O  fxzz       
 
 Vector   43  Occ=0.000000D+00  E= 1.624541D+01
              MO Center= -4.4D-16, -5.9D-17,  3.6D-16, r^2= 3.2D-01
   Bfn.  Coefficient  Atom+Function         Bfn.  Coefficient  Atom+Function  
  ----- ------------  ---------------      ----- ------------  ---------------
     7     11.656683  1 O  px                36     -6.302615  1 O  fxxx       
    39     -6.303224  1 O  fxyy              41     -6.302910  1 O  fxzz       
     9     -5.003630  1 O  pz                 3     -3.136593  1 O  px         
    38      2.704830  1 O  fxxz              43      2.705658  1 O  fyyz       
    45      2.705628  1 O  fzzz               8     -1.880266  1 O  py         
 
 Vector   44  Occ=0.000000D+00  E= 1.846393D+01
              MO Center=  7.8D-15, -3.5D-14,  4.9D-14, r^2= 4.6D-01
   Bfn.  Coefficient  Atom+Function         Bfn.  Coefficient  Atom+Function  
  ----- ------------  ---------------      ----- ------------  ---------------
     6     16.465563  1 O  s                 24     -6.280658  1 O  dxx        
    27     -6.284559  1 O  dyy               29     -6.283926  1 O  dzz        
    10      5.540938  1 O  s                  2     -3.629158  1 O  s          
    18     -3.343543  1 O  dxx               21     -3.337944  1 O  dyy        
    23     -3.338853  1 O  dzz               30     -1.616866  1 O  dxx        
 
 Vector   45  Occ=0.000000D+00  E= 6.100641D+01
              MO Center=  9.4D-17,  3.6D-16, -3.2D-16, r^2= 4.3D-02
   Bfn.  Coefficient  Atom+Function         Bfn.  Coefficient  Atom+Function  
  ----- ------------  ---------------      ----- ------------  ---------------
     6      5.295442  1 O  s                  1     -2.203785  1 O  s          
     2      1.606527  1 O  s                 24     -1.556653  1 O  dxx        
    27     -1.556741  1 O  dyy               29     -1.556727  1 O  dzz        
    18     -1.206001  1 O  dxx               21     -1.205705  1 O  dyy        
    23     -1.205753  1 O  dzz               10      0.185532  1 O  s          
 
 
                     DFT Final Beta Molecular Orbital Analysis
                     -----------------------------------------
 
 Vector    1  Occ=1.000000D+00  E=-1.897766D+01
              MO Center=  1.0D-18, -1.5D-17,  3.5D-18, r^2= 1.5D-02
   Bfn.  Coefficient  Atom+Function         Bfn.  Coefficient  Atom+Function  
  ----- ------------  ---------------      ----- ------------  ---------------
     1      0.552782  1 O  s                  2      0.468851  1 O  s          
 
 Vector    2  Occ=1.000000D+00  E=-8.048014D-01
              MO Center=  9.6D-16, -1.2D-15, -2.1D-15, r^2= 4.6D-01
   Bfn.  Coefficient  Atom+Function         Bfn.  Coefficient  Atom+Function  
  ----- ------------  ---------------      ----- ------------  ---------------
    10      0.679250  1 O  s                  6      0.613670  1 O  s          
     2     -0.220796  1 O  s                  1     -0.126556  1 O  s          
    33     -0.069428  1 O  dyy               35     -0.067861  1 O  dzz        
    30     -0.059786  1 O  dxx               14      0.042693  1 O  s          
    27     -0.041026  1 O  dyy               29     -0.039175  1 O  dzz        
 
 Vector    3  Occ=1.000000D+00  E=-2.904496D-01
              MO Center= -1.8D-15,  1.8D-16,  4.0D-16, r^2= 6.4D-01
   Bfn.  Coefficient  Atom+Function         Bfn.  Coefficient  Atom+Function  
  ----- ------------  ---------------      ----- ------------  ---------------
     7      0.382004  1 O  px                11      0.369420  1 O  px         
     3      0.290149  1 O  px                 9     -0.163976  1 O  pz         
    13     -0.158574  1 O  pz                 5     -0.124547  1 O  pz         
    15      0.076780  1 O  px                 8     -0.061622  1 O  py         
    12     -0.059591  1 O  py                 4     -0.046804  1 O  py         
 
 Vector    4  Occ=0.000000D+00  E=-2.155407D-01
              MO Center=  1.9D-15,  9.1D-16,  4.3D-15, r^2= 7.5D-01
   Bfn.  Coefficient  Atom+Function         Bfn.  Coefficient  Atom+Function  
  ----- ------------  ---------------      ----- ------------  ---------------
    13      0.367857  1 O  pz                 9      0.330631  1 O  pz         
     5      0.264486  1 O  pz                11      0.174854  1 O  px         
     7      0.157158  1 O  px                 3      0.125719  1 O  px         
    17      0.117835  1 O  pz                12      0.105083  1 O  py         
     8      0.094441  1 O  py                 4      0.075556  1 O  py         
 
 Vector    5  Occ=0.000000D+00  E=-2.155399D-01
              MO Center=  3.5D-16, -2.5D-16,  5.9D-17, r^2= 7.5D-01
   Bfn.  Coefficient  Atom+Function         Bfn.  Coefficient  Atom+Function  
  ----- ------------  ---------------      ----- ------------  ---------------
    12      0.402603  1 O  py                 8      0.361853  1 O  py         
     4      0.289470  1 O  py                16      0.128966  1 O  py         
    13     -0.121157  1 O  pz                 9     -0.108901  1 O  pz         
     5     -0.087109  1 O  pz                17     -0.038810  1 O  pz         
    37      0.034264  1 O  fxxy              44      0.028049  1 O  fyzz       
 
 Vector    6  Occ=0.000000D+00  E= 8.279037D-02
              MO Center= -8.1D-16,  8.8D-15,  1.7D-15, r^2= 4.3D+00
   Bfn.  Coefficient  Atom+Function         Bfn.  Coefficient  Atom+Function  
  ----- ------------  ---------------      ----- ------------  ---------------
    14      1.794087  1 O  s                  6     -0.350160  1 O  s          
    33     -0.321411  1 O  dyy               30     -0.319578  1 O  dxx        
    35     -0.321113  1 O  dzz               10     -0.243699  1 O  s          
    24     -0.073071  1 O  dxx               29     -0.069912  1 O  dzz        
    27     -0.069298  1 O  dyy                1      0.042648  1 O  s          
 
 Vector    7  Occ=0.000000D+00  E= 1.487080D-01
              MO Center=  3.1D-15, -5.1D-16, -9.4D-16, r^2= 4.9D+00
   Bfn.  Coefficient  Atom+Function         Bfn.  Coefficient  Atom+Function  
  ----- ------------  ---------------      ----- ------------  ---------------
    15      1.117867  1 O  px                17     -0.479844  1 O  pz         
    11     -0.427567  1 O  px                13      0.183533  1 O  pz         
    16     -0.180322  1 O  py                 7     -0.133610  1 O  px         
     3     -0.120473  1 O  px                12      0.068970  1 O  py         
     9      0.057352  1 O  pz                 5      0.051713  1 O  pz         
 
 Vector    8  Occ=0.000000D+00  E= 1.659163D-01
              MO Center= -2.6D-15, -7.7D-15, -3.3D-15, r^2= 4.9D+00
   Bfn.  Coefficient  Atom+Function         Bfn.  Coefficient  Atom+Function  
  ----- ------------  ---------------      ----- ------------  ---------------
    16      1.064703  1 O  py                17      0.493867  1 O  pz         
    12     -0.446031  1 O  py                15      0.383739  1 O  px         
    13     -0.206893  1 O  pz                11     -0.160758  1 O  px         
     8     -0.134331  1 O  py                 4     -0.125116  1 O  py         
     9     -0.062311  1 O  pz                 5     -0.058035  1 O  pz         
 
 Vector    9  Occ=0.000000D+00  E= 1.659178D-01
              MO Center=  6.7D-17, -6.6D-16, -1.0D-15, r^2= 4.9D+00
   Bfn.  Coefficient  Atom+Function         Bfn.  Coefficient  Atom+Function  
  ----- ------------  ---------------      ----- ------------  ---------------
    17      1.024068  1 O  pz                16     -0.598647  1 O  py         
    13     -0.429007  1 O  pz                15      0.343013  1 O  px         
    12      0.250788  1 O  py                11     -0.143696  1 O  px         
     9     -0.129211  1 O  pz                 5     -0.120339  1 O  pz         
     8      0.075533  1 O  py                 4      0.070348  1 O  py         
 
 Vector   10  Occ=0.000000D+00  E= 7.463609D-01
              MO Center= -3.0D-16, -1.0D-15, -2.1D-15, r^2= 2.8D+00
   Bfn.  Coefficient  Atom+Function         Bfn.  Coefficient  Atom+Function  
  ----- ------------  ---------------      ----- ------------  ---------------
    10      2.425371  1 O  s                 30     -1.910523  1 O  dxx        
    14      1.631707  1 O  s                 35     -1.543853  1 O  dzz        
    33     -1.472735  1 O  dyy               32      0.385868  1 O  dxz        
    27     -0.355353  1 O  dyy               29     -0.353914  1 O  dzz        
    24     -0.346497  1 O  dxx                2     -0.241321  1 O  s          
 
 Vector   11  Occ=0.000000D+00  E= 7.477491D-01
              MO Center=  2.2D-15,  4.3D-16, -7.1D-16, r^2= 1.5D+00
   Bfn.  Coefficient  Atom+Function         Bfn.  Coefficient  Atom+Function  
  ----- ------------  ---------------      ----- ------------  ---------------
    31      1.430273  1 O  dxy               34     -0.693287  1 O  dyz        
    30      0.381445  1 O  dxx               33     -0.240750  1 O  dyy        
    32      0.164407  1 O  dxz               35     -0.140970  1 O  dzz        
 
 Vector   12  Occ=0.000000D+00  E= 7.477494D-01
              MO Center=  2.0D-15, -5.0D-16, -9.9D-17, r^2= 1.5D+00
   Bfn.  Coefficient  Atom+Function         Bfn.  Coefficient  Atom+Function  
  ----- ------------  ---------------      ----- ------------  ---------------
    32      1.182812  1 O  dxz               35     -0.606063  1 O  dzz        
    30      0.533968  1 O  dxx               31     -0.533301  1 O  dxy        
    33      0.072177  1 O  dyy               34     -0.035809  1 O  dyz        
 
 Vector   13  Occ=0.000000D+00  E= 7.498266D-01
              MO Center= -7.5D-16, -7.6D-16, -6.9D-16, r^2= 1.7D+00
   Bfn.  Coefficient  Atom+Function         Bfn.  Coefficient  Atom+Function  
  ----- ------------  ---------------      ----- ------------  ---------------
    33      1.082524  1 O  dyy               32      0.992486  1 O  dxz        
    10     -0.971035  1 O  s                 35      0.899640  1 O  dzz        
    14     -0.632296  1 O  s                 31      0.373035  1 O  dxy        
    34     -0.160146  1 O  dyz               24      0.144705  1 O  dxx        
    27      0.141761  1 O  dyy               29      0.142239  1 O  dzz        
 
 Vector   14  Occ=0.000000D+00  E= 7.619568D-01
              MO Center=  4.7D-16, -3.3D-16,  1.0D-15, r^2= 1.5D+00
   Bfn.  Coefficient  Atom+Function         Bfn.  Coefficient  Atom+Function  
  ----- ------------  ---------------      ----- ------------  ---------------
    33      0.842963  1 O  dyy               35     -0.735428  1 O  dzz        
    32     -0.617256  1 O  dxz               31      0.309480  1 O  dxy        
    30     -0.107537  1 O  dxx               34      0.087382  1 O  dyz        
 
 Vector   15  Occ=0.000000D+00  E= 7.619574D-01
              MO Center= -4.1D-16,  1.1D-15, -1.4D-15, r^2= 1.5D+00
   Bfn.  Coefficient  Atom+Function         Bfn.  Coefficient  Atom+Function  
  ----- ------------  ---------------      ----- ------------  ---------------
    34      1.577853  1 O  dyz               31      0.644996  1 O  dxy        
    32      0.249774  1 O  dxz               30      0.105613  1 O  dxx        
    33     -0.100083  1 O  dyy               22      0.025570  1 O  dyz        
 
 Vector   16  Occ=0.000000D+00  E= 9.639434D-01
              MO Center= -9.1D-16, -1.2D-16, -9.6D-16, r^2= 2.1D+00
   Bfn.  Coefficient  Atom+Function         Bfn.  Coefficient  Atom+Function  
  ----- ------------  ---------------      ----- ------------  ---------------
    11      1.493512  1 O  px                15     -0.734624  1 O  px         
    13     -0.641095  1 O  pz                 7     -0.609090  1 O  px         
    17      0.315339  1 O  pz                 3     -0.273225  1 O  px         
     9      0.261454  1 O  pz                12     -0.240924  1 O  py         
    16      0.118505  1 O  py                 5      0.117283  1 O  pz         
 
 Vector   17  Occ=0.000000D+00  E= 1.002143D+00
              MO Center= -2.0D-16,  3.5D-15,  2.1D-15, r^2= 2.0D+00
   Bfn.  Coefficient  Atom+Function         Bfn.  Coefficient  Atom+Function  
  ----- ------------  ---------------      ----- ------------  ---------------
    12      1.127707  1 O  py                13      1.002124  1 O  pz         
    11      0.612079  1 O  px                16     -0.550203  1 O  py         
    17     -0.488932  1 O  pz                 8     -0.470339  1 O  py         
     9     -0.417967  1 O  pz                15     -0.298631  1 O  px         
     7     -0.255285  1 O  px                 4     -0.213130  1 O  py         
 
 Vector   18  Occ=0.000000D+00  E= 1.002144D+00
              MO Center= -2.7D-15, -1.5D-15,  2.1D-15, r^2= 2.0D+00
   Bfn.  Coefficient  Atom+Function         Bfn.  Coefficient  Atom+Function  
  ----- ------------  ---------------      ----- ------------  ---------------
    12      1.149740  1 O  py                13     -1.114822  1 O  pz         
    16     -0.560953  1 O  py                17      0.543916  1 O  pz         
     8     -0.479536  1 O  py                 9      0.464977  1 O  pz         
    11     -0.293072  1 O  px                 4     -0.217291  1 O  py         
     5      0.210689  1 O  pz                15      0.142988  1 O  px         
 
 Vector   19  Occ=0.000000D+00  E= 2.496354D+00
              MO Center=  1.2D-16,  1.8D-16, -3.0D-17, r^2= 1.6D+00
   Bfn.  Coefficient  Atom+Function         Bfn.  Coefficient  Atom+Function  
  ----- ------------  ---------------      ----- ------------  ---------------
    10     10.303447  1 O  s                  6     -3.420297  1 O  s          
    30     -3.303883  1 O  dxx               33     -3.313712  1 O  dyy        
    35     -3.312113  1 O  dzz               24     -1.028181  1 O  dxx        
    14      1.015163  1 O  s                 27     -0.999707  1 O  dyy        
    29     -1.004337  1 O  dzz               18     -0.235978  1 O  dxx        
 
 Vector   20  Occ=0.000000D+00  E= 3.313456D+00
              MO Center= -2.1D-16, -5.9D-16, -3.0D-16, r^2= 5.6D-01
   Bfn.  Coefficient  Atom+Function         Bfn.  Coefficient  Atom+Function  
  ----- ------------  ---------------      ----- ------------  ---------------
    25      1.588700  1 O  dxy               28     -0.778338  1 O  dyz        
    31     -0.734622  1 O  dxy               24      0.443130  1 O  dxx        
    34      0.359907  1 O  dyz               27     -0.267848  1 O  dyy        
    26      0.217956  1 O  dxz               30     -0.204913  1 O  dxx        
    29     -0.175289  1 O  dzz               33      0.123846  1 O  dyy        
 
 Vector   21  Occ=0.000000D+00  E= 3.313460D+00
              MO Center= -6.1D-16,  2.6D-16, -4.5D-16, r^2= 5.6D-01
   Bfn.  Coefficient  Atom+Function         Bfn.  Coefficient  Atom+Function  
  ----- ------------  ---------------      ----- ------------  ---------------
    26      1.321649  1 O  dxz               29     -0.675694  1 O  dzz        
    25     -0.638804  1 O  dxy               32     -0.611136  1 O  dxz        
    24      0.587856  1 O  dxx               35      0.312447  1 O  dzz        
    31      0.295386  1 O  dxy               30     -0.271824  1 O  dxx        
    27      0.087840  1 O  dyy               33     -0.040614  1 O  dyy        
 
 Vector   22  Occ=0.000000D+00  E= 3.321735D+00
              MO Center=  5.0D-17, -3.3D-16,  6.1D-17, r^2= 5.6D-01
   Bfn.  Coefficient  Atom+Function         Bfn.  Coefficient  Atom+Function  
  ----- ------------  ---------------      ----- ------------  ---------------
    26      1.192227  1 O  dxz               24     -0.798086  1 O  dxx        
    27      0.552812  1 O  dyy               32     -0.550101  1 O  dxz        
    30      0.459244  1 O  dxx               25      0.447006  1 O  dxy        
    29      0.335165  1 O  dzz               10     -0.255705  1 O  s          
    31     -0.206254  1 O  dxy               28     -0.193933  1 O  dyz        
 
 Vector   23  Occ=0.000000D+00  E= 3.325645D+00
              MO Center=  3.0D-16,  5.7D-16,  2.0D-16, r^2= 5.6D-01
   Bfn.  Coefficient  Atom+Function         Bfn.  Coefficient  Atom+Function  
  ----- ------------  ---------------      ----- ------------  ---------------
    27      0.868645  1 O  dyy               28     -0.828064  1 O  dyz        
    26     -0.737328  1 O  dxz               29     -0.703667  1 O  dzz        
    33     -0.398664  1 O  dyy               34      0.380092  1 O  dyz        
    32      0.338442  1 O  dxz               35      0.323048  1 O  dzz        
    24     -0.164922  1 O  dxx               30      0.075758  1 O  dxx        
 
 Vector   24  Occ=0.000000D+00  E= 3.325648D+00
              MO Center=  4.1D-17,  8.3D-16, -2.2D-17, r^2= 5.6D-01
   Bfn.  Coefficient  Atom+Function         Bfn.  Coefficient  Atom+Function  
  ----- ------------  ---------------      ----- ------------  ---------------
    28      1.567399  1 O  dyz               25      0.799503  1 O  dxy        
    34     -0.719456  1 O  dyz               29     -0.429948  1 O  dzz        
    27      0.391734  1 O  dyy               31     -0.366983  1 O  dxy        
    35      0.197484  1 O  dzz               33     -0.179679  1 O  dyy        
    26     -0.115019  1 O  dxz               32      0.052792  1 O  dxz        
 
 Vector   25  Occ=0.000000D+00  E= 4.608955D+00
              MO Center= -3.8D-16, -1.9D-16, -2.3D-16, r^2= 5.4D-01
   Bfn.  Coefficient  Atom+Function         Bfn.  Coefficient  Atom+Function  
  ----- ------------  ---------------      ----- ------------  ---------------
    42      0.963631  1 O  fyyy              44      0.950863  1 O  fyzz       
    37      0.912098  1 O  fxxy               4     -0.669648  1 O  py         
    12     -0.649516  1 O  py                 8     -0.410416  1 O  py         
    45      0.387579  1 O  fzzz              38      0.385019  1 O  fxxz       
    43      0.383183  1 O  fyyz              39      0.342668  1 O  fxyy       
 
 Vector   26  Occ=0.000000D+00  E= 4.608974D+00
              MO Center= -5.5D-16, -7.6D-16,  4.0D-16, r^2= 5.4D-01
   Bfn.  Coefficient  Atom+Function         Bfn.  Coefficient  Atom+Function  
  ----- ------------  ---------------      ----- ------------  ---------------
    43      0.927504  1 O  fyyz              45      0.914350  1 O  fzzz       
    38      0.884739  1 O  fxxz               5     -0.641661  1 O  pz         
    13     -0.622374  1 O  pz                44     -0.485175  1 O  fyzz       
    42     -0.481991  1 O  fyyy              37     -0.446661  1 O  fxxy       
     9     -0.393295  1 O  pz                41      0.364395  1 O  fxzz       
 
 Vector   27  Occ=0.000000D+00  E= 4.623738D+00
              MO Center=  3.1D-16,  9.7D-17,  2.9D-16, r^2= 5.5D-01
   Bfn.  Coefficient  Atom+Function         Bfn.  Coefficient  Atom+Function  
  ----- ------------  ---------------      ----- ------------  ---------------
    39      1.062632  1 O  fxyy              41      0.990290  1 O  fxzz       
    36      0.922101  1 O  fxxx               3     -0.688196  1 O  px         
    11     -0.671924  1 O  px                43     -0.456108  1 O  fyyz       
    45     -0.449166  1 O  fzzz               7     -0.395148  1 O  px         
     5      0.295388  1 O  pz                13      0.288404  1 O  pz         
 
 Vector   28  Occ=0.000000D+00  E= 5.003516D+00
              MO Center= -5.9D-17, -1.6D-16, -7.8D-17, r^2= 4.5D-01
   Bfn.  Coefficient  Atom+Function         Bfn.  Coefficient  Atom+Function  
  ----- ------------  ---------------      ----- ------------  ---------------
    43      2.135958  1 O  fyyz              39      0.889827  1 O  fxyy       
    41     -0.806413  1 O  fxzz              45     -0.612826  1 O  fzzz       
    40      0.604751  1 O  fxyz              38     -0.297496  1 O  fxxz       
    37      0.274063  1 O  fxxy              44     -0.100288  1 O  fyzz       
    42     -0.057927  1 O  fyyy              36     -0.027807  1 O  fxxx       
 
 Vector   29  Occ=0.000000D+00  E= 5.003518D+00
              MO Center=  6.6D-17, -2.2D-16,  2.4D-16, r^2= 4.5D-01
   Bfn.  Coefficient  Atom+Function         Bfn.  Coefficient  Atom+Function  
  ----- ------------  ---------------      ----- ------------  ---------------
    44      1.987220  1 O  fyzz              40      1.695374  1 O  fxyz       
    42     -0.763203  1 O  fyyy              39     -0.379654  1 O  fxyy       
    37      0.302393  1 O  fxxy              38      0.234964  1 O  fxxz       
    41      0.230293  1 O  fxzz              45     -0.069197  1 O  fzzz       
    36      0.049789  1 O  fxxx              43     -0.027377  1 O  fyyz       
 
 Vector   30  Occ=0.000000D+00  E= 5.005131D+00
              MO Center=  3.5D-16, -3.5D-16,  6.7D-16, r^2= 4.5D-01
   Bfn.  Coefficient  Atom+Function         Bfn.  Coefficient  Atom+Function  
  ----- ------------  ---------------      ----- ------------  ---------------
    40      2.300475  1 O  fxyz              37      1.436017  1 O  fxxy       
    44     -1.127350  1 O  fyzz              43     -0.742612  1 O  fyyz       
    41     -0.655807  1 O  fxzz              39      0.402970  1 O  fxyy       
    45      0.310139  1 O  fzzz              38     -0.187811  1 O  fxxz       
    42     -0.102889  1 O  fyyy              36      0.084285  1 O  fxxx       
 
 Vector   31  Occ=0.000000D+00  E= 5.005133D+00
              MO Center= -1.1D-16,  3.1D-16,  3.2D-16, r^2= 4.5D-01
   Bfn.  Coefficient  Atom+Function         Bfn.  Coefficient  Atom+Function  
  ----- ------------  ---------------      ----- ------------  ---------------
    39      1.611947  1 O  fxyy              38     -1.216417  1 O  fxxz       
    40     -1.125184  1 O  fxyz              44      0.797733  1 O  fyzz       
    41     -0.729761  1 O  fxzz              45      0.560865  1 O  fzzz       
    43     -0.466172  1 O  fyyz              36     -0.294058  1 O  fxxx       
    42     -0.257512  1 O  fyyy              37     -0.025213  1 O  fxxy       
 
 Vector   32  Occ=0.000000D+00  E= 5.034867D+00
              MO Center=  9.2D-16, -1.8D-16, -1.6D-16, r^2= 4.5D-01
   Bfn.  Coefficient  Atom+Function         Bfn.  Coefficient  Atom+Function  
  ----- ------------  ---------------      ----- ------------  ---------------
    41      1.948255  1 O  fxzz              38     -1.016220  1 O  fxxz       
    37      0.941967  1 O  fxxy              36     -0.626454  1 O  fxxx       
    43      0.575841  1 O  fyyz              44     -0.348478  1 O  fyzz       
    42     -0.179788  1 O  fyyy              40     -0.151740  1 O  fxyz       
    39     -0.118811  1 O  fxyy              45      0.101280  1 O  fzzz       
 
 Vector   33  Occ=0.000000D+00  E= 5.034874D+00
              MO Center=  3.9D-16,  4.2D-16,  1.0D-16, r^2= 4.5D-01
   Bfn.  Coefficient  Atom+Function         Bfn.  Coefficient  Atom+Function  
  ----- ------------  ---------------      ----- ------------  ---------------
    40      2.137173  1 O  fxyz              37     -1.586858  1 O  fxxy       
    39      0.891677  1 O  fxyy              41      0.616487  1 O  fxzz       
    36     -0.516417  1 O  fxxx              42      0.477047  1 O  fyyy       
    43     -0.184773  1 O  fyyz              38      0.049507  1 O  fxxz       
    45      0.031114  1 O  fzzz       
 
 Vector   34  Occ=0.000000D+00  E= 5.038354D+00
              MO Center= -5.7D-16, -9.6D-17,  8.6D-17, r^2= 4.5D-01
   Bfn.  Coefficient  Atom+Function         Bfn.  Coefficient  Atom+Function  
  ----- ------------  ---------------      ----- ------------  ---------------
    38      1.859150  1 O  fxxz              39      1.137610  1 O  fxyy       
    40     -0.777118  1 O  fxyz              37      0.698012  1 O  fxxy       
    36     -0.587880  1 O  fxxx              43     -0.488366  1 O  fyyz       
    45     -0.403009  1 O  fzzz              41      0.249195  1 O  fxzz       
    42     -0.199066  1 O  fyyy               3      0.058207  1 O  px         
 
 Vector   35  Occ=0.000000D+00  E= 6.880535D+00
              MO Center= -2.5D-16,  3.7D-16,  6.8D-16, r^2= 7.6D-01
   Bfn.  Coefficient  Atom+Function         Bfn.  Coefficient  Atom+Function  
  ----- ------------  ---------------      ----- ------------  ---------------
    10      9.246453  1 O  s                  6      4.358997  1 O  s          
    24     -3.741524  1 O  dxx               27     -3.734013  1 O  dyy        
    29     -3.735234  1 O  dzz               30     -2.627888  1 O  dxx        
    33     -2.630001  1 O  dyy               35     -2.629658  1 O  dzz        
     2     -1.595169  1 O  s                 18     -0.838117  1 O  dxx        
 
 Vector   36  Occ=0.000000D+00  E= 1.427462D+01
              MO Center=  7.7D-17, -2.6D-16,  2.9D-16, r^2= 1.6D-01
   Bfn.  Coefficient  Atom+Function         Bfn.  Coefficient  Atom+Function  
  ----- ------------  ---------------      ----- ------------  ---------------
    21      0.901897  1 O  dyy               23     -0.813596  1 O  dzz        
    20     -0.609531  1 O  dxz               22      0.550642  1 O  dyz        
    19      0.526736  1 O  dxy               27     -0.486630  1 O  dyy        
    29      0.439021  1 O  dzz               26      0.328894  1 O  dxz        
    28     -0.297118  1 O  dyz               25     -0.284215  1 O  dxy        
 
 Vector   37  Occ=0.000000D+00  E= 1.427463D+01
              MO Center=  1.1D-16,  1.1D-16,  2.9D-16, r^2= 1.6D-01
   Bfn.  Coefficient  Atom+Function         Bfn.  Coefficient  Atom+Function  
  ----- ------------  ---------------      ----- ------------  ---------------
    22      1.716715  1 O  dyz               28     -0.926310  1 O  dyz        
    19      0.623224  1 O  dxy               20      0.453627  1 O  dxz        
    21     -0.352997  1 O  dyy               25     -0.336282  1 O  dxy        
    34      0.279452  1 O  dyz               26     -0.244770  1 O  dxz        
    23      0.205430  1 O  dzz               27      0.190503  1 O  dyy        
 
 Vector   38  Occ=0.000000D+00  E= 1.430531D+01
              MO Center=  1.8D-17, -8.9D-17,  1.6D-18, r^2= 1.7D-01
   Bfn.  Coefficient  Atom+Function         Bfn.  Coefficient  Atom+Function  
  ----- ------------  ---------------      ----- ------------  ---------------
    19      1.679475  1 O  dxy               25     -0.911730  1 O  dxy        
    22     -0.786245  1 O  dyz               28      0.426825  1 O  dyz        
    18      0.384038  1 O  dxx               21     -0.280747  1 O  dyy        
    31      0.275379  1 O  dxy               24     -0.208510  1 O  dxx        
    27      0.152381  1 O  dyy               34     -0.128918  1 O  dyz        
 
 Vector   39  Occ=0.000000D+00  E= 1.430534D+01
              MO Center=  1.6D-16, -5.0D-17,  1.6D-16, r^2= 1.7D-01
   Bfn.  Coefficient  Atom+Function         Bfn.  Coefficient  Atom+Function  
  ----- ------------  ---------------      ----- ------------  ---------------
    20      1.362717  1 O  dxz               26     -0.739771  1 O  dxz        
    23     -0.703556  1 O  dzz               18      0.644256  1 O  dxx        
    19     -0.472062  1 O  dxy               29      0.381938  1 O  dzz        
    24     -0.349742  1 O  dxx               25      0.256265  1 O  dxy        
    32      0.223440  1 O  dxz               35     -0.115360  1 O  dzz        
 
 Vector   40  Occ=0.000000D+00  E= 1.434134D+01
              MO Center= -8.6D-18,  2.9D-17,  5.7D-17, r^2= 1.7D-01
   Bfn.  Coefficient  Atom+Function         Bfn.  Coefficient  Atom+Function  
  ----- ------------  ---------------      ----- ------------  ---------------
    20      1.215716  1 O  dxz               18     -0.783381  1 O  dxx        
    26     -0.662641  1 O  dxz               21      0.595957  1 O  dyy        
    24      0.583176  1 O  dxx               19      0.457148  1 O  dxy        
    23      0.371770  1 O  dzz                6     -0.296238  1 O  s          
    25     -0.249172  1 O  dxy               32      0.199995  1 O  dxz        
 
 Vector   41  Occ=0.000000D+00  E= 1.631349D+01
              MO Center=  1.1D-15, -2.8D-15,  4.1D-15, r^2= 3.2D-01
   Bfn.  Coefficient  Atom+Function         Bfn.  Coefficient  Atom+Function  
  ----- ------------  ---------------      ----- ------------  ---------------
     9     10.370706  1 O  pz                 8     -6.756834  1 O  py         
    38     -5.605716  1 O  fxxz              43     -5.606309  1 O  fyyz       
    45     -5.606122  1 O  fzzz              37      3.652081  1 O  fxxy       
    42      3.652638  1 O  fyyy              44      3.652666  1 O  fyzz       
     7      3.361504  1 O  px                 5     -2.789146  1 O  pz         
 
 Vector   42  Occ=0.000000D+00  E= 1.631350D+01
              MO Center=  1.9D-16,  1.2D-15,  2.7D-17, r^2= 3.2D-01
   Bfn.  Coefficient  Atom+Function         Bfn.  Coefficient  Atom+Function  
  ----- ------------  ---------------      ----- ------------  ---------------
     8     10.738354  1 O  py                37     -5.804323  1 O  fxxy       
    42     -5.804986  1 O  fyyy              44     -5.804806  1 O  fyzz       
     9      5.648750  1 O  pz                 7      4.157583  1 O  px         
    38     -3.053486  1 O  fxxz              43     -3.053517  1 O  fyyz       
    45     -3.053561  1 O  fzzz               4     -2.888020  1 O  py         
 
 Vector   43  Occ=0.000000D+00  E= 1.635787D+01
              MO Center= -5.4D-15,  1.0D-15,  2.3D-15, r^2= 3.2D-01
   Bfn.  Coefficient  Atom+Function         Bfn.  Coefficient  Atom+Function  
  ----- ------------  ---------------      ----- ------------  ---------------
     7     11.658751  1 O  px                36     -6.304221  1 O  fxxx       
    39     -6.303381  1 O  fxyy              41     -6.303814  1 O  fxzz       
     9     -5.004715  1 O  pz                 3     -3.134627  1 O  px         
    38      2.706975  1 O  fxxz              43      2.705832  1 O  fyyz       
    45      2.705874  1 O  fzzz               8     -1.881278  1 O  py         
 
 Vector   44  Occ=0.000000D+00  E= 1.868853D+01
              MO Center=  4.1D-15,  7.1D-16, -7.9D-15, r^2= 4.6D-01
   Bfn.  Coefficient  Atom+Function         Bfn.  Coefficient  Atom+Function  
  ----- ------------  ---------------      ----- ------------  ---------------
     6     16.412564  1 O  s                 24     -6.239156  1 O  dxx        
    27     -6.255627  1 O  dyy               29     -6.252949  1 O  dzz        
    10      5.475732  1 O  s                  2     -3.618867  1 O  s          
    18     -3.345146  1 O  dxx               21     -3.321745  1 O  dyy        
    23     -3.325550  1 O  dzz               30     -1.600968  1 O  dxx        
 
 Vector   45  Occ=0.000000D+00  E= 6.114161D+01
              MO Center= -9.2D-18, -9.1D-18,  6.2D-17, r^2= 4.4D-02
   Bfn.  Coefficient  Atom+Function         Bfn.  Coefficient  Atom+Function  
  ----- ------------  ---------------      ----- ------------  ---------------
     6      5.316173  1 O  s                  1     -2.201994  1 O  s          
     2      1.602335  1 O  s                 24     -1.562504  1 O  dxx        
    27     -1.564301  1 O  dyy               29     -1.564009  1 O  dzz        
    18     -1.212013  1 O  dxx               21     -1.210118  1 O  dyy        
    23     -1.210425  1 O  dzz               10      0.189571  1 O  s          
 

   alpha - beta orbital overlaps 
   ----------------------------- 


   alpha      1      2      3      4      5      6      7      8      9     10
    beta      1      2      5      4      3      6      9      8      7     15
 overlap   1.000  0.999  0.798  0.798  1.000  0.999  0.991  0.991  1.000  0.997


   alpha     11     12     13     14     15     16     17     18     19     20
    beta     14     10     11     12     13     17     18     16     19     24
 overlap   0.997  0.787  0.937  0.937  0.788  0.873  0.873  1.000  0.999  0.900


   alpha     21     22     23     24     25     26     27     28     29     30
    beta     23     20     21     22     25     26     27     29     28     31
 overlap   0.900  0.989  0.989  0.999  0.970  0.970  1.000  0.989  0.989  0.957


   alpha     31     32     33     34     35     36     37     38     39     40
    beta     30     33     32     34     35     37     36     38     39     40
 overlap   0.957  0.999  0.999  1.000  1.000  0.742  0.742  0.983  0.983  1.000


   alpha     41     42     43     44     45
    beta     42     41     43     44     45
 overlap   0.946  0.946  1.000  1.000  1.000

     --------------------------
     Expectation value of S2:  
     --------------------------
      <S2> =      2.0035 (Exact =     2.0000)
 

 Parallel integral file used      16 records with       0 large values


 Task  times  cpu:        2.8s     wall:        3.8s
 
 
                                NWChem Input Module
                                -------------------
 
 
 Summary of allocated global arrays
-----------------------------------
  No active global arrays



                         GA Statistics for process    0
                         ------------------------------

       create   destroy   get      put      acc     scatter   gather  read&inc
calls:  221      221      813      500      154        0        0       34     
number of processes/call 1.62e+00 1.45e+00 3.84e+00 0.00e+00 0.00e+00
bytes total:             7.38e+06 2.80e+06 2.49e+06 0.00e+00 0.00e+00 2.72e+02
bytes remote:            5.01e+05 8.93e+04 5.71e+05 0.00e+00 0.00e+00 0.00e+00
Max memory consumed for GA by this process: 1053000 bytes
 
MA_summarize_allocated_blocks: starting scan ...
MA_summarize_allocated_blocks: scan completed: 0 heap blocks, 0 stack blocks
MA usage statistics:

	allocation statistics:
					      heap	     stack
					      ----	     -----
	current number of blocks	         0	         0
	maximum number of blocks	        21	        53
	current total bytes		         0	         0
	maximum total bytes		   1787160	  22512552
	maximum total K-bytes		      1788	     22513
	maximum total M-bytes		         2	        23
 
 
                                     CITATION
                                     --------
                Please cite the following reference when publishing
                           results obtained with NWChem:
 
                 M. Valiev, E.J. Bylaska, N. Govind, K. Kowalski,
              T.P. Straatsma, H.J.J. van Dam, D. Wang, J. Nieplocha,
                        E. Apra, T.L. Windus, W.A. de Jong
                 "NWChem: a comprehensive and scalable open-source
                  solution for large scale molecular simulations"
                      Comput. Phys. Commun. 181, 1477 (2010)
                           doi:10.1016/j.cpc.2010.04.018
 
                                      AUTHORS
                                      -------
          E. Apra, E. J. Bylaska, W. A. de Jong, N. Govind, K. Kowalski,
       T. P. Straatsma, M. Valiev, H. J. J. van Dam, D. Wang, T. L. Windus,
        J. Hammond, J. Autschbach, K. Bhaskaran-Nair, J. Brabec, K. Lopata,
    S. A. Fischer, S. Krishnamoorthy, M. Jacquelin, W. Ma, M. Klemm, O. Villa,
      Y. Chen, V. Anisimov, F. Aquino, S. Hirata, M. T. Hackler, V. Konjkov,
            D. Mejia-Rodriguez, T. Risthaus, M. Malagoli, A. Marenich,
   A. Otero-de-la-Roza, J. Mullin, P. Nichols, R. Peverati, J. Pittner, Y. Zhao,
        P.-D. Fan, A. Fonari, M. J. Williamson, R. J. Harrison, J. R. Rehr,
      M. Dupuis, D. Silverstein, D. M. A. Smith, J. Nieplocha, V. Tipparaju,
    M. Krishnan, B. E. Van Kuiken, A. Vazquez-Mayagoitia, L. Jensen, M. Swart,
      Q. Wu, T. Van Voorhis, A. A. Auer, M. Nooijen, L. D. Crosby, E. Brown,
      G. Cisneros, G. I. Fann, H. Fruchtl, J. Garza, K. Hirao, R. A. Kendall,
      J. A. Nichols, K. Tsemekhman, K. Wolinski, J. Anchell, D. E. Bernholdt,
      P. Borowski, T. Clark, D. Clerc, H. Dachsel, M. J. O. Deegan, K. Dyall,
    D. Elwood, E. Glendening, M. Gutowski, A. C. Hess, J. Jaffe, B. G. Johnson,
     J. Ju, R. Kobayashi, R. Kutteh, Z. Lin, R. Littlefield, X. Long, B. Meng,
      T. Nakajima, S. Niu, L. Pollack, M. Rosing, K. Glaesemann, G. Sandrone,
      M. Stave, H. Taylor, G. Thomas, J. H. van Lenthe, A. T. Wong, Z. Zhang.

 Total times  cpu:        2.9s     wall:        4.1s
