 argument  1 = /storage/home/rabeet/work/nwc/ip13/nwtpss/P.nw
  NWChem w/ OpenMP: maximum threads =  1
                                         
                                         
 
 
              Northwest Computational Chemistry Package (NWChem) 6.8
              ------------------------------------------------------
 
 
                    Environmental Molecular Sciences Laboratory
                       Pacific Northwest National Laboratory
                                Richland, WA 99352
 
                              Copyright (c) 1994-2018
                       Pacific Northwest National Laboratory
                            Battelle Memorial Institute
 
             NWChem is an open-source computational chemistry package
                        distributed under the terms of the
                      Educational Community License (ECL) 2.0
             A copy of the license is included with this distribution
                              in the LICENSE.TXT file
 
                                  ACKNOWLEDGMENT
                                  --------------

            This software and its documentation were developed at the
            EMSL at Pacific Northwest National Laboratory, a multiprogram
            national laboratory, operated for the U.S. Department of Energy
            by Battelle under Contract Number DE-AC05-76RL01830. Support
            for this work was provided by the Department of Energy Office
            of Biological and Environmental Research, Office of Basic
            Energy Sciences, and the Office of Advanced Scientific Computing.


           Job information
           ---------------

    hostname        = r8n4.niserhpc.org
    program         = /home/rabeet/nwchem-6.8/bin/LINUX64/nwchem
    date            = Sun Oct 27 10:44:19 2019

    compiled        = Fri_Jun_28_18:24:12_2019
    source          = /home/rabeet/nwchem-6.8
    nwchem branch   = Development
    nwchem revision = N/A
    ga revision     = 5.6.5
    use scalapack   = T
    input           = /storage/home/rabeet/work/nwc/ip13/nwtpss/P.nw
    prefix          = P.
    data base       = ./P.db
    status          = startup
    nproc           =       16
    time left       =     -1s



           Memory information
           ------------------

    heap     =   13107198 doubles =    100.0 Mbytes
    stack    =   13107195 doubles =    100.0 Mbytes
    global   =   26214400 doubles =    200.0 Mbytes (distinct from heap & stack)
    total    =   52428793 doubles =    400.0 Mbytes
    verify   = yes
    hardfail = no 


           Directory information
           ---------------------
 
  0 permanent = .
  0 scratch   = .
 
 
 
 
                                NWChem Input Module
                                -------------------
 
 

 Scaling coordinates for geometry "geometry" by  1.889725989
 (inverse scale =  0.529177249)

 
 
                             Geometry "geometry" -> ""
                             -------------------------
 
 Output coordinates in angstroms (scale by  1.889725989 to convert to a.u.)
 
  No.       Tag          Charge          X              Y              Z
 ---- ---------------- ---------- -------------- -------------- --------------
    1 P                   15.0000     0.00000000     0.00000000     0.00000000
 
      Atomic Mass 
      ----------- 
 
      P                 30.973760
 

 Effective nuclear repulsion energy (a.u.)       0.0000000000

            Nuclear Dipole moment (a.u.) 
            ----------------------------
        X                 Y               Z
 ---------------- ---------------- ----------------
     0.0000000000     0.0000000000     0.0000000000
 
 
            XYZ format geometry
            -------------------
     1
 geometry
 P                     0.00000000     0.00000000     0.00000000
 


 Summary of "ao basis" -> "" (cartesian)
 ------------------------------------------------------------------------------
       Tag                 Description            Shells   Functions and Types
 ---------------- ------------------------------  ------  ---------------------
 *                     6-311++G(3df,3pd)              on all atoms 


 
                                 NWChem DFT Module
                                 -----------------
 
 
                      Basis "ao basis" -> "ao basis" (cartesian)
                      -----
  P (Phosphorous)
  ---------------
            Exponent  Coefficients 
       -------------- ---------------------------------------------------------
  1 S  7.74924000E+04  0.000781
  1 S  1.16058000E+04  0.006068
  1 S  2.64596000E+03  0.031160
  1 S  7.54976000E+02  0.123431
  1 S  2.48755000E+02  0.378209
  1 S  9.11565000E+01  0.563262
 
  2 S  9.11565000E+01  0.160255
  2 S  3.62257000E+01  0.627647
  2 S  1.52113000E+01  0.263849
 
  3 S  4.79417000E+00  1.000000
 
  4 S  1.80793000E+00  1.000000
 
  5 S  3.56816000E-01  1.000000
 
  6 S  1.14783000E-01  1.000000
 
  7 P  3.84843000E+02  0.009206
  7 P  9.05521000E+01  0.069874
  7 P  2.91339000E+01  0.292470
  7 P  1.08862000E+01  0.728103
 
  8 P  4.35259000E+00  0.628349
  8 P  1.77706000E+00  0.428044
 
  9 P  6.97005000E-01  1.000000
 
 10 P  2.53532000E-01  1.000000
 
 11 P  6.84930000E-02  1.000000
 
 12 S  3.48000000E-02  1.000000
 
 13 P  3.48000000E-02  1.000000
 
 14 D  2.20000000E+00  1.000000
 
 15 D  5.50000000E-01  1.000000
 
 16 D  1.37500000E-01  1.000000
 
 17 F  4.50000000E-01  1.000000
 


 Summary of "ao basis" -> "ao basis" (cartesian)
 ------------------------------------------------------------------------------
       Tag                 Description            Shells   Functions and Types
 ---------------- ------------------------------  ------  ---------------------
 P                     6-311++G(3df,3pd)            17       53   7s6p3d1f




 Summary of "ao basis" -> "ao basis" (cartesian)
 ------------------------------------------------------------------------------
       Tag                 Description            Shells   Functions and Types
 ---------------- ------------------------------  ------  ---------------------
 P                     6-311++G(3df,3pd)            17       53   7s6p3d1f


  Caching 1-el integrals 
 
            General Information
            -------------------
          SCF calculation type: DFT
          Wavefunction type:  spin polarized.
          No. of atoms     :     1
          No. of electrons :    15
           Alpha electrons :     9
            Beta electrons :     6
          Charge           :     0
          Spin multiplicity:     4
          Use of symmetry is: off; symmetry adaption is: off
          Maximum number of iterations: ***
          AO basis - number of functions:    53
                     number of shells:    17
          Convergence on energy requested:  1.00D-06
          Convergence on density requested:  1.00D-05
          Convergence on gradient requested:  5.00D-04
 
              XC Information
              --------------
                  TPSS metaGGA Exchange Functional  1.000          
             TPSS03 metaGGA Correlation Functional  1.000          
 
             Grid Information
             ----------------
          Grid used for XC integration:  medium    
          Radial quadrature: Mura-Knowles        
          Angular quadrature: Lebedev. 
          Tag              B.-S. Rad. Rad. Pts. Rad. Cut. Ang. Pts.
          ---              ---------- --------- --------- ---------
          P                   1.00       88           9.0       590
          Grid pruning is: on 
          Number of quadrature shells:    88
          Spatial weights used:  Erf1
 
          Convergence Information
          -----------------------
          Convergence aids based upon iterative change in 
          total energy or number of iterations. 
          Levelshifting, if invoked, occurs when the 
          HOMO/LUMO gap drops below (HL_TOL):  1.00D-02
          DIIS, if invoked, will attempt to extrapolate 
          using up to (NFOCK): 10 stored Fock matrices.

                    Damping( 0%)  Levelshifting(0.5)       DIIS
                  --------------- ------------------- ---------------
          dE  on:    start            ASAP                start   
          dE off:    2 iters        *** iters           *** iters 

 
      Screening Tolerance Information
      -------------------------------
          Density screening/tol_rho:  1.00D-10
          AO Gaussian exp screening on grid/accAOfunc:  14
          CD Gaussian exp screening on grid/accCDfunc:  20
          XC Gaussian exp screening on grid/accXCfunc:  20
          Schwarz screening/accCoul:  1.00D-08

 
      Superposition of Atomic Density Guess
      -------------------------------------
 
 Sum of atomic energies:        -340.65047561
 
      Non-variational initial energy
      ------------------------------

 Total energy =    -340.362186
 1-e energy   =    -471.309908
 2-e energy   =     130.947721
 HOMO         =      -0.168937
 LUMO         =      -0.168937
 
   Time after variat. SCF:      0.5
   Time prior to 1st pass:      0.5

 #quartets = 1.177D+04 #integrals = 1.644D+05 #direct =  0.0% #cached =100.0%


 Integral file          = ./P.aoints.00
 Record size in doubles =    65536    No. of integs per rec  =    43688
 Max. records in memory =        4    Max. records in file   =  8902757
 No. of bits per label  =        8    No. of bits per value  =       64


File balance: exchanges=     0  moved=     0  time=   0.0


 Grid_pts file          = ./P.gridpts.00
 Record size in doubles =  12289        No. of grid_pts per rec  =   3070
 Max. records in memory =      3        Max. recs in file   =   1186932


           Memory utilization after 1st SCF pass: 
           Heap Space remaining (MW):       12.81            12805262
          Stack Space remaining (MW):       13.11            13106652

   convergence    iter        energy       DeltaE   RMS-Dens  Diis-err    time
 ---------------- ----- ----------------- --------- --------- ---------  ------
 d= 0,ls=0.0,diis     1   -341.2614785498 -3.41D+02  7.79D-03  1.47D-01     1.5
                                                     1.66D-03  9.99D-02
 d= 0,ls=0.0,diis     2   -341.2827143951 -2.12D-02  3.31D-03  1.04D-02     1.6
                                                     2.56D-03  6.25D-03
 d= 0,ls=0.0,diis     3   -341.2865480459 -3.83D-03  8.84D-04  3.34D-03     1.7
                                                     4.73D-04  2.52D-03
 d= 0,ls=0.0,diis     4   -341.2874009476 -8.53D-04  1.68D-04  2.69D-05     1.7
                                                     6.62D-05  1.03D-05
 d= 0,ls=0.0,diis     5   -341.2874157897 -1.48D-05  1.24D-05  6.44D-08     1.8
                                                     9.87D-06  5.96D-08
 d= 0,ls=0.0,diis     6   -341.2874158205 -3.08D-08  4.36D-07  2.87D-11     1.9
                                                     4.25D-07  1.93D-11


         Total DFT energy =     -341.287415820535
      One electron energy =     -471.608311172555
           Coulomb energy =      153.526785174391
          Exchange energy =      -22.674891931922
       Correlation energy =       -0.530997890449
 Nuclear repulsion energy =        0.000000000000

 Numeric. integr. density =       14.999999999730

     Total iterative time =      1.4s


 
                    DFT Final Alpha Molecular Orbital Analysis
                    ------------------------------------------
 
 Vector    1  Occ=1.000000D+00  E=-7.662315D+01
              MO Center= -2.2D-18, -3.3D-18, -2.0D-18, r^2= 4.1D-03
   Bfn.  Coefficient  Atom+Function         Bfn.  Coefficient  Atom+Function  
  ----- ------------  ---------------      ----- ------------  ---------------
     2      0.645124  1 P  s                  1      0.419593  1 P  s          
 
 Vector    2  Occ=1.000000D+00  E=-6.401905D+00
              MO Center= -1.0D-15, -7.6D-16, -9.6D-16, r^2= 9.0D-02
   Bfn.  Coefficient  Atom+Function         Bfn.  Coefficient  Atom+Function  
  ----- ------------  ---------------      ----- ------------  ---------------
     4      0.589094  1 P  s                  3      0.508041  1 P  s          
     2     -0.312741  1 P  s                  5      0.131014  1 P  s          
     1     -0.119872  1 P  s                  6     -0.050506  1 P  s          
 
 Vector    3  Occ=1.000000D+00  E=-4.581415D+00
              MO Center= -1.4D-16, -1.0D-16, -2.1D-16, r^2= 8.3D-02
   Bfn.  Coefficient  Atom+Function         Bfn.  Coefficient  Atom+Function  
  ----- ------------  ---------------      ----- ------------  ---------------
    10      0.535858  1 P  px                12     -0.372025  1 P  pz         
     7      0.321181  1 P  px                 9     -0.222983  1 P  pz         
    11     -0.194462  1 P  py                 8     -0.116556  1 P  py         
    13      0.042595  1 P  px                15     -0.029572  1 P  pz         
 
 Vector    4  Occ=1.000000D+00  E=-4.581415D+00
              MO Center= -1.6D-16,  2.9D-17, -2.6D-16, r^2= 8.3D-02
   Bfn.  Coefficient  Atom+Function         Bfn.  Coefficient  Atom+Function  
  ----- ------------  ---------------      ----- ------------  ---------------
    11      0.623509  1 P  py                 8      0.373717  1 P  py         
    12     -0.270392  1 P  pz                 9     -0.162067  1 P  pz         
    14      0.049562  1 P  py                10      0.038548  1 P  px         
 
 Vector    5  Occ=1.000000D+00  E=-4.581415D+00
              MO Center=  5.3D-16,  1.8D-16,  6.8D-16, r^2= 8.3D-02
   Bfn.  Coefficient  Atom+Function         Bfn.  Coefficient  Atom+Function  
  ----- ------------  ---------------      ----- ------------  ---------------
    12      0.501844  1 P  pz                10      0.418010  1 P  px         
     9      0.300793  1 P  pz                 7      0.250545  1 P  px         
    11      0.191787  1 P  py                 8      0.114953  1 P  py         
    15      0.039891  1 P  pz                13      0.033227  1 P  px         
 
 Vector    6  Occ=1.000000D+00  E=-5.557584D-01
              MO Center= -3.5D-14, -2.8D-14, -3.5D-14, r^2= 1.2D+00
   Bfn.  Coefficient  Atom+Function         Bfn.  Coefficient  Atom+Function  
  ----- ------------  ---------------      ----- ------------  ---------------
     6      0.778764  1 P  s                  5      0.537704  1 P  s          
     4     -0.358329  1 P  s                  3     -0.217585  1 P  s          
     2      0.097356  1 P  s                 38     -0.085269  1 P  dxx        
    41     -0.085269  1 P  dyy               43     -0.085269  1 P  dzz        
     1      0.035154  1 P  s          
 
 Vector    7  Occ=1.000000D+00  E=-2.358444D-01
              MO Center= -1.7D-14, -1.6D-14, -1.5D-14, r^2= 1.8D+00
   Bfn.  Coefficient  Atom+Function         Bfn.  Coefficient  Atom+Function  
  ----- ------------  ---------------      ----- ------------  ---------------
    17      0.631598  1 P  py                18     -0.466987  1 P  pz         
    20      0.259546  1 P  py                21     -0.191902  1 P  pz         
    11     -0.148938  1 P  py                14      0.136564  1 P  py         
    16     -0.131933  1 P  px                12      0.110121  1 P  pz         
    15     -0.100972  1 P  pz                 8     -0.086541  1 P  py         
 
 Vector    8  Occ=1.000000D+00  E=-2.358444D-01
              MO Center=  1.3D-14,  1.6D-14,  1.4D-14, r^2= 1.8D+00
   Bfn.  Coefficient  Atom+Function         Bfn.  Coefficient  Atom+Function  
  ----- ------------  ---------------      ----- ------------  ---------------
    16      0.476213  1 P  px                18      0.461770  1 P  pz         
    17      0.440896  1 P  py                19      0.195693  1 P  px         
    21      0.189758  1 P  pz                20      0.181180  1 P  py         
    10     -0.112296  1 P  px                12     -0.108891  1 P  pz         
    11     -0.103968  1 P  py                13      0.102967  1 P  px         
 
 Vector    9  Occ=1.000000D+00  E=-2.358444D-01
              MO Center= -1.6D-14, -1.2D-14, -1.8D-14, r^2= 1.8D+00
   Bfn.  Coefficient  Atom+Function         Bfn.  Coefficient  Atom+Function  
  ----- ------------  ---------------      ----- ------------  ---------------
    16      0.624672  1 P  px                18     -0.450656  1 P  pz         
    19      0.256700  1 P  px                17     -0.202717  1 P  py         
    21     -0.185191  1 P  pz                10     -0.147305  1 P  px         
    13      0.135067  1 P  px                12      0.106270  1 P  pz         
    15     -0.097441  1 P  pz                 7     -0.085591  1 P  px         
 
 Vector   10  Occ=0.000000D+00  E= 2.708748D-04
              MO Center= -2.3D-13, -1.4D-13, -2.1D-13, r^2= 9.9D+00
   Bfn.  Coefficient  Atom+Function         Bfn.  Coefficient  Atom+Function  
  ----- ------------  ---------------      ----- ------------  ---------------
    22      1.653672  1 P  s                  5     -0.348092  1 P  s          
     6     -0.272454  1 P  s                 38     -0.237054  1 P  dxx        
    41     -0.237054  1 P  dyy               43     -0.237054  1 P  dzz        
     4      0.109796  1 P  s                 32     -0.069312  1 P  dxx        
    35     -0.069312  1 P  dyy               37     -0.069312  1 P  dzz        
 
 Vector   11  Occ=0.000000D+00  E= 3.688342D-02
              MO Center=  8.4D-15,  3.3D-16, -7.7D-15, r^2= 1.4D+01
   Bfn.  Coefficient  Atom+Function         Bfn.  Coefficient  Atom+Function  
  ----- ------------  ---------------      ----- ------------  ---------------
    23      1.190579  1 P  px                25     -1.119634  1 P  pz         
    19     -0.643979  1 P  px                21      0.605605  1 P  pz         
    13     -0.133723  1 P  px                16      0.132220  1 P  px         
    15      0.125754  1 P  pz                18     -0.124341  1 P  pz         
    24     -0.111686  1 P  py                44     -0.109972  1 P  fxxx       
 
 Vector   12  Occ=0.000000D+00  E= 3.688342D-02
              MO Center=  2.0D-13,  1.9D-13,  2.0D-13, r^2= 1.4D+01
   Bfn.  Coefficient  Atom+Function         Bfn.  Coefficient  Atom+Function  
  ----- ------------  ---------------      ----- ------------  ---------------
    23      0.979479  1 P  px                25      0.951255  1 P  pz         
    24      0.905133  1 P  py                19     -0.529796  1 P  px         
    21     -0.514529  1 P  pz                20     -0.489582  1 P  py         
    13     -0.110013  1 P  px                16      0.108776  1 P  px         
    15     -0.106842  1 P  pz                18      0.105642  1 P  pz         
 
 Vector   13  Occ=0.000000D+00  E= 3.688342D-02
              MO Center=  3.1D-15, -3.1D-13,  5.3D-14, r^2= 1.4D+01
   Bfn.  Coefficient  Atom+Function         Bfn.  Coefficient  Atom+Function  
  ----- ------------  ---------------      ----- ------------  ---------------
    24      1.360805  1 P  py                20     -0.736054  1 P  py         
    25     -0.724615  1 P  pz                23     -0.553781  1 P  px         
    21      0.391941  1 P  pz                19      0.299538  1 P  px         
    14     -0.152842  1 P  py                17      0.151124  1 P  py         
    45     -0.125695  1 P  fxxy              50     -0.125695  1 P  fyyy       
 
 Vector   14  Occ=0.000000D+00  E= 1.408959D-01
              MO Center=  1.0D-13,  2.6D-14, -6.3D-14, r^2= 3.0D+00
   Bfn.  Coefficient  Atom+Function         Bfn.  Coefficient  Atom+Function  
  ----- ------------  ---------------      ----- ------------  ---------------
    38      0.771430  1 P  dxx               43     -0.720058  1 P  dzz        
    32      0.196296  1 P  dxx               37     -0.183224  1 P  dzz        
    39      0.165704  1 P  dxy               41     -0.051372  1 P  dyy        
    26      0.049446  1 P  dxx               31     -0.046153  1 P  dzz        
    33      0.042165  1 P  dxy               40     -0.041887  1 P  dxz        
 
 Vector   15  Occ=0.000000D+00  E= 1.408959D-01
              MO Center=  1.7D-15,  5.8D-13, -2.0D-14, r^2= 3.0D+00
   Bfn.  Coefficient  Atom+Function         Bfn.  Coefficient  Atom+Function  
  ----- ------------  ---------------      ----- ------------  ---------------
    41      0.823814  1 P  dyy               43     -0.471182  1 P  dzz        
    38     -0.352632  1 P  dxx               39     -0.305342  1 P  dxy        
    42     -0.296693  1 P  dyz               35      0.209625  1 P  dyy        
    40      0.176334  1 P  dxz               37     -0.119896  1 P  dzz        
    32     -0.089730  1 P  dxx               33     -0.077696  1 P  dxy        
 
 Vector   16  Occ=0.000000D+00  E= 1.408959D-01
              MO Center=  1.5D-14,  3.0D-15, -2.3D-15, r^2= 3.0D+00
   Bfn.  Coefficient  Atom+Function         Bfn.  Coefficient  Atom+Function  
  ----- ------------  ---------------      ----- ------------  ---------------
    39      1.264229  1 P  dxy               40     -0.696921  1 P  dxz        
    33      0.321692  1 P  dxy               41      0.224111  1 P  dyy        
    38     -0.179594  1 P  dxx               34     -0.177337  1 P  dxz        
    42      0.097581  1 P  dyz               27      0.081032  1 P  dxy        
    35      0.057027  1 P  dyy               32     -0.045699  1 P  dxx        
 
 Vector   17  Occ=0.000000D+00  E= 1.408959D-01
              MO Center= -3.0D-15,  1.2D-14,  8.6D-15, r^2= 3.0D+00
   Bfn.  Coefficient  Atom+Function         Bfn.  Coefficient  Atom+Function  
  ----- ------------  ---------------      ----- ------------  ---------------
    42      1.468869  1 P  dyz               36      0.373764  1 P  dyz        
    40      0.153366  1 P  dxz               41      0.149956  1 P  dyy        
    43     -0.104058  1 P  dzz               39     -0.102366  1 P  dxy        
    30      0.094148  1 P  dyz               38     -0.045897  1 P  dxx        
    34      0.039025  1 P  dxz               35      0.038157  1 P  dyy        
 
 Vector   18  Occ=0.000000D+00  E= 1.408959D-01
              MO Center=  9.6D-15,  4.9D-15,  1.2D-14, r^2= 3.0D+00
   Bfn.  Coefficient  Atom+Function         Bfn.  Coefficient  Atom+Function  
  ----- ------------  ---------------      ----- ------------  ---------------
    40      1.311621  1 P  dxz               39      0.730051  1 P  dxy        
    34      0.333751  1 P  dxz               33      0.185767  1 P  dxy        
    28      0.084070  1 P  dxz               42     -0.080892  1 P  dyz        
    27      0.046793  1 P  dxy               43      0.028864  1 P  dzz        
 
 Vector   19  Occ=0.000000D+00  E= 2.560859D-01
              MO Center= -1.3D-13, -2.8D-13,  3.6D-14, r^2= 9.7D+00
   Bfn.  Coefficient  Atom+Function         Bfn.  Coefficient  Atom+Function  
  ----- ------------  ---------------      ----- ------------  ---------------
    20     -2.404918  1 P  py                17      2.374355  1 P  py         
    19      1.697809  1 P  px                16     -1.676233  1 P  px         
    24      1.483451  1 P  py                23     -1.047278  1 P  px         
    45     -0.704669  1 P  fxxy              50     -0.704669  1 P  fyyy       
    52     -0.704669  1 P  fyzz              21      0.561750  1 P  pz         
 
 Vector   20  Occ=0.000000D+00  E= 2.560859D-01
              MO Center= -6.3D-13, -6.1D-13, -6.3D-13, r^2= 9.7D+00
   Bfn.  Coefficient  Atom+Function         Bfn.  Coefficient  Atom+Function  
  ----- ------------  ---------------      ----- ------------  ---------------
    19     -1.787649  1 P  px                16      1.764931  1 P  px         
    21     -1.734044  1 P  pz                18      1.712007  1 P  pz         
    20     -1.667079  1 P  py                17      1.645893  1 P  py         
    23      1.102694  1 P  px                25      1.069629  1 P  pz         
    24      1.028322  1 P  py                44     -0.523802  1 P  fxxx       
 
 Vector   21  Occ=0.000000D+00  E= 2.560859D-01
              MO Center=  5.2D-14,  1.1D-14, -8.3D-14, r^2= 9.7D+00
   Bfn.  Coefficient  Atom+Function         Bfn.  Coefficient  Atom+Function  
  ----- ------------  ---------------      ----- ------------  ---------------
    21     -2.378923  1 P  pz                18      2.348691  1 P  pz         
    19      1.703967  1 P  px                16     -1.682312  1 P  px         
    25      1.467416  1 P  pz                23     -1.051076  1 P  px         
    46     -0.697052  1 P  fxxz              51     -0.697052  1 P  fyyz       
    53     -0.697052  1 P  fzzz              20      0.647278  1 P  py         
 
 Vector   22  Occ=0.000000D+00  E= 2.702332D-01
              MO Center=  6.0D-13,  5.1D-13,  7.1D-13, r^2= 7.7D+00
   Bfn.  Coefficient  Atom+Function         Bfn.  Coefficient  Atom+Function  
  ----- ------------  ---------------      ----- ------------  ---------------
     6      2.592054  1 P  s                 22      1.796382  1 P  s          
    38     -1.732820  1 P  dxx               41     -1.732820  1 P  dyy        
    43     -1.732820  1 P  dzz               32     -0.343518  1 P  dxx        
    35     -0.343518  1 P  dyy               37     -0.343518  1 P  dzz        
     4     -0.308717  1 P  s                  3     -0.186612  1 P  s          
 
 Vector   23  Occ=0.000000D+00  E= 8.037740D-01
              MO Center= -2.4D-14,  3.6D-15, -7.5D-15, r^2= 1.8D+00
   Bfn.  Coefficient  Atom+Function         Bfn.  Coefficient  Atom+Function  
  ----- ------------  ---------------      ----- ------------  ---------------
    32      0.886117  1 P  dxx               33     -0.678133  1 P  dxy        
    35     -0.621908  1 P  dyy               38     -0.614202  1 P  dxx        
    39      0.470040  1 P  dxy               41      0.431069  1 P  dyy        
    37     -0.264209  1 P  dzz               36      0.244375  1 P  dyz        
    34      0.242987  1 P  dxz               43      0.183133  1 P  dzz        
 
 Vector   24  Occ=0.000000D+00  E= 8.037740D-01
              MO Center=  7.7D-15, -2.3D-14, -6.6D-14, r^2= 1.8D+00
   Bfn.  Coefficient  Atom+Function         Bfn.  Coefficient  Atom+Function  
  ----- ------------  ---------------      ----- ------------  ---------------
    37      0.907051  1 P  dzz               35     -0.783766  1 P  dyy        
    43     -0.628712  1 P  dzz               41      0.543259  1 P  dyy        
    33      0.273616  1 P  dxy               34     -0.265992  1 P  dxz        
    39     -0.189654  1 P  dxy               40      0.184369  1 P  dxz        
    31      0.127105  1 P  dzz               32     -0.123285  1 P  dxx        
 
 Vector   25  Occ=0.000000D+00  E= 8.037740D-01
              MO Center= -7.9D-15, -4.6D-15, -4.5D-15, r^2= 1.8D+00
   Bfn.  Coefficient  Atom+Function         Bfn.  Coefficient  Atom+Function  
  ----- ------------  ---------------      ----- ------------  ---------------
    34      1.154144  1 P  dxz               36      1.130518  1 P  dyz        
    40     -0.799982  1 P  dxz               42     -0.783606  1 P  dyz        
    33      0.649525  1 P  dxy               39     -0.450211  1 P  dxy        
    28      0.161730  1 P  dxz               30      0.158419  1 P  dyz        
    37      0.099265  1 P  dzz               27      0.091018  1 P  dxy        
 
 Vector   26  Occ=0.000000D+00  E= 8.037740D-01
              MO Center= -5.7D-15,  1.6D-15, -3.8D-15, r^2= 1.8D+00
   Bfn.  Coefficient  Atom+Function         Bfn.  Coefficient  Atom+Function  
  ----- ------------  ---------------      ----- ------------  ---------------
    34      1.255967  1 P  dxz               36     -1.178061  1 P  dyz        
    40     -0.870559  1 P  dxz               42      0.816560  1 P  dyz        
    33     -0.235246  1 P  dxy               28      0.175998  1 P  dxz        
    30     -0.165081  1 P  dyz               39      0.163058  1 P  dxy        
    37      0.112853  1 P  dzz               32     -0.085396  1 P  dxx        
 
 Vector   27  Occ=0.000000D+00  E= 8.037740D-01
              MO Center= -8.6D-15,  5.8D-15, -1.5D-15, r^2= 1.8D+00
   Bfn.  Coefficient  Atom+Function         Bfn.  Coefficient  Atom+Function  
  ----- ------------  ---------------      ----- ------------  ---------------
    33      1.431863  1 P  dxy               39     -0.992480  1 P  dxy        
    36     -0.569614  1 P  dyz               32      0.457360  1 P  dxx        
    42      0.394821  1 P  dyz               37     -0.324947  1 P  dzz        
    38     -0.317014  1 P  dxx               43      0.225233  1 P  dzz        
    27      0.200647  1 P  dxy               34     -0.151290  1 P  dxz        
 
 Vector   28  Occ=0.000000D+00  E= 9.076983D-01
              MO Center=  5.0D-14, -3.4D-14,  1.9D-15, r^2= 4.5D+00
   Bfn.  Coefficient  Atom+Function         Bfn.  Coefficient  Atom+Function  
  ----- ------------  ---------------      ----- ------------  ---------------
    16      6.442405  1 P  px                17     -6.165530  1 P  py         
    44     -2.718773  1 P  fxxx              47     -2.718773  1 P  fxyy       
    49     -2.718773  1 P  fxzz              45      2.601928  1 P  fxxy       
    50      2.601928  1 P  fyyy              52      2.601928  1 P  fyzz       
    13     -2.201272  1 P  px                14      2.106668  1 P  py         
 
 Vector   29  Occ=0.000000D+00  E= 9.076983D-01
              MO Center= -7.7D-14, -7.6D-14, -7.9D-14, r^2= 4.5D+00
   Bfn.  Coefficient  Atom+Function         Bfn.  Coefficient  Atom+Function  
  ----- ------------  ---------------      ----- ------------  ---------------
    16      5.373608  1 P  px                18      5.186504  1 P  pz         
    17      4.938557  1 P  py                44     -2.267727  1 P  fxxx       
    47     -2.267727  1 P  fxyy              49     -2.267727  1 P  fxzz       
    46     -2.188767  1 P  fxxz              51     -2.188767  1 P  fyyz       
    53     -2.188767  1 P  fzzz              45     -2.084130  1 P  fxxy       
 
 Vector   30  Occ=0.000000D+00  E= 9.076983D-01
              MO Center=  1.8D-14,  4.4D-14,  3.9D-14, r^2= 4.5D+00
   Bfn.  Coefficient  Atom+Function         Bfn.  Coefficient  Atom+Function  
  ----- ------------  ---------------      ----- ------------  ---------------
    18      7.253863  1 P  pz                17     -4.214465  1 P  py         
    16     -3.128031  1 P  px                46     -3.061217  1 P  fxxz       
    51     -3.061217  1 P  fyyz              53     -3.061217  1 P  fzzz       
    15     -2.478535  1 P  pz                21     -1.876984  1 P  pz         
    45      1.778555  1 P  fxxy              50      1.778555  1 P  fyyy       
 
 Vector   31  Occ=0.000000D+00  E= 1.038401D+00
              MO Center=  3.4D-14,  1.0D-13,  1.3D-13, r^2= 4.0D+00
   Bfn.  Coefficient  Atom+Function         Bfn.  Coefficient  Atom+Function  
  ----- ------------  ---------------      ----- ------------  ---------------
     6     10.746658  1 P  s                  5     -3.892373  1 P  s          
    38     -3.249331  1 P  dxx               41     -3.249331  1 P  dyy        
    43     -3.249331  1 P  dzz               32     -1.142956  1 P  dxx        
    35     -1.142956  1 P  dyy               37     -1.142956  1 P  dzz        
    22      1.076460  1 P  s                 26     -0.227202  1 P  dxx        
 
 Vector   32  Occ=0.000000D+00  E= 1.266326D+00
              MO Center=  1.1D-14,  5.5D-15,  1.2D-14, r^2= 1.4D+00
   Bfn.  Coefficient  Atom+Function         Bfn.  Coefficient  Atom+Function  
  ----- ------------  ---------------      ----- ------------  ---------------
    47      1.590365  1 P  fxyy              49     -1.308911  1 P  fxzz       
    46     -1.161382  1 P  fxxz              48      1.065703  1 P  fxyz       
    52     -0.644620  1 P  fyzz              45      0.544799  1 P  fxxy       
    53      0.437980  1 P  fzzz              51     -0.152558  1 P  fyyz       
    44     -0.093818  1 P  fxxx              50      0.033274  1 P  fyyy       
 
 Vector   33  Occ=0.000000D+00  E= 1.266326D+00
              MO Center=  8.7D-15,  3.4D-15,  6.0D-15, r^2= 1.4D+00
   Bfn.  Coefficient  Atom+Function         Bfn.  Coefficient  Atom+Function  
  ----- ------------  ---------------      ----- ------------  ---------------
    51      1.610861  1 P  fyyz              47      0.900273  1 P  fxyy       
    45      0.776881  1 P  fxxy              48      0.769698  1 P  fxyz       
    52      0.616325  1 P  fyzz              49      0.613100  1 P  fxzz       
    53     -0.580659  1 P  fzzz              44     -0.504458  1 P  fxxx       
    50     -0.464402  1 P  fyyy              46      0.131116  1 P  fxxz       
 
 Vector   34  Occ=0.000000D+00  E= 1.266326D+00
              MO Center=  9.0D-15,  3.1D-15,  7.0D-15, r^2= 1.4D+00
   Bfn.  Coefficient  Atom+Function         Bfn.  Coefficient  Atom+Function  
  ----- ------------  ---------------      ----- ------------  ---------------
    49      1.491208  1 P  fxzz              46     -1.108502  1 P  fxxz       
    45     -1.000592  1 P  fxxy              52      0.690770  1 P  fyzz       
    44     -0.653391  1 P  fxxx              53      0.523105  1 P  fzzz       
    47      0.468964  1 P  fxyy              51     -0.460814  1 P  fyyz       
    50      0.103274  1 P  fyyy              48     -0.080313  1 P  fxyz       
 
 Vector   35  Occ=0.000000D+00  E= 1.266326D+00
              MO Center= -7.9D-16, -2.6D-15,  6.6D-15, r^2= 1.4D+00
   Bfn.  Coefficient  Atom+Function         Bfn.  Coefficient  Atom+Function  
  ----- ------------  ---------------      ----- ------------  ---------------
    52      1.801879  1 P  fyzz              51     -1.088663  1 P  fyyz       
    46      0.954415  1 P  fxxz              49     -0.828724  1 P  fxzz       
    47      0.781277  1 P  fxyy              50     -0.503166  1 P  fyyy       
    45     -0.292381  1 P  fxxy              48     -0.127972  1 P  fxyz       
    53      0.044749  1 P  fzzz       
 
 Vector   36  Occ=0.000000D+00  E= 1.266326D+00
              MO Center=  1.7D-14,  2.7D-15,  6.5D-15, r^2= 1.4D+00
   Bfn.  Coefficient  Atom+Function         Bfn.  Coefficient  Atom+Function  
  ----- ------------  ---------------      ----- ------------  ---------------
    48      2.887273  1 P  fxyz              47     -1.222359  1 P  fxyy       
    52      0.722347  1 P  fyzz              46     -0.621983  1 P  fxxz       
    44      0.370913  1 P  fxxx              50     -0.314653  1 P  fyyy       
    53      0.227042  1 P  fzzz              45      0.221611  1 P  fxxy       
    49      0.109620  1 P  fxzz              51     -0.059144  1 P  fyyz       
 
 Vector   37  Occ=0.000000D+00  E= 1.266326D+00
              MO Center=  5.9D-15,  4.2D-15,  6.3D-15, r^2= 1.4D+00
   Bfn.  Coefficient  Atom+Function         Bfn.  Coefficient  Atom+Function  
  ----- ------------  ---------------      ----- ------------  ---------------
    45      1.737593  1 P  fxxy              51     -1.345082  1 P  fyyz       
    49      0.968086  1 P  fxzz              52     -0.706898  1 P  fyzz       
    46      0.636823  1 P  fxxz              50     -0.343565  1 P  fyyy       
    44     -0.316093  1 P  fxxx              53      0.236086  1 P  fzzz       
    48      0.123558  1 P  fxyz       
 
 Vector   38  Occ=0.000000D+00  E= 1.266326D+00
              MO Center=  4.1D-15,  1.4D-14, -1.6D-15, r^2= 1.4D+00
   Bfn.  Coefficient  Atom+Function         Bfn.  Coefficient  Atom+Function  
  ----- ------------  ---------------      ----- ------------  ---------------
    48      2.213008  1 P  fxyz              46      1.304573  1 P  fxxz       
    45     -0.971926  1 P  fxxy              52     -0.677635  1 P  fyzz       
    47      0.579113  1 P  fxyy              50      0.549853  1 P  fyyy       
    51     -0.414215  1 P  fyyz              53     -0.296786  1 P  fzzz       
    44     -0.268440  1 P  fxxx              49      0.226208  1 P  fxzz       
 
 Vector   39  Occ=0.000000D+00  E= 2.501144D+00
              MO Center= -1.6D-14, -1.5D-14, -1.7D-14, r^2= 2.0D+00
   Bfn.  Coefficient  Atom+Function         Bfn.  Coefficient  Atom+Function  
  ----- ------------  ---------------      ----- ------------  ---------------
    16      5.176828  1 P  px                18      5.041878  1 P  pz         
    17      4.842180  1 P  py                44     -2.960495  1 P  fxxx       
    47     -2.960495  1 P  fxyy              49     -2.960495  1 P  fxzz       
    46     -2.883320  1 P  fxxz              51     -2.883320  1 P  fyyz       
    53     -2.883320  1 P  fzzz              45     -2.769118  1 P  fxxy       
 
 Vector   40  Occ=0.000000D+00  E= 2.501144D+00
              MO Center= -1.6D-15, -9.6D-16, -2.8D-15, r^2= 2.0D+00
   Bfn.  Coefficient  Atom+Function         Bfn.  Coefficient  Atom+Function  
  ----- ------------  ---------------      ----- ------------  ---------------
    16      6.413001  1 P  px                18     -5.823393  1 P  pz         
    44     -3.667430  1 P  fxxx              47     -3.667430  1 P  fxyy       
    49     -3.667430  1 P  fxzz              46      3.330249  1 P  fxxz       
    51      3.330249  1 P  fyyz              53      3.330249  1 P  fzzz       
    19     -0.952193  1 P  px                21      0.864649  1 P  pz         
 
 Vector   41  Occ=0.000000D+00  E= 2.501144D+00
              MO Center=  1.5D-15, -6.5D-15, -1.6D-16, r^2= 2.0D+00
   Bfn.  Coefficient  Atom+Function         Bfn.  Coefficient  Atom+Function  
  ----- ------------  ---------------      ----- ------------  ---------------
    17      7.182742  1 P  py                45     -4.107625  1 P  fxxy       
    50     -4.107625  1 P  fyyy              52     -4.107625  1 P  fyzz       
    18     -4.041578  1 P  pz                16     -2.782204  1 P  px         
    46      2.311274  1 P  fxxz              51      2.311274  1 P  fyyz       
    53      2.311274  1 P  fzzz              44      1.591071  1 P  fxxx       
 
 Vector   42  Occ=0.000000D+00  E= 3.181026D+00
              MO Center=  3.9D-15,  1.8D-14,  1.2D-14, r^2= 1.7D+00
   Bfn.  Coefficient  Atom+Function         Bfn.  Coefficient  Atom+Function  
  ----- ------------  ---------------      ----- ------------  ---------------
     5      8.595411  1 P  s                  6      6.785851  1 P  s          
    32     -4.667436  1 P  dxx               35     -4.667436  1 P  dyy        
    37     -4.667436  1 P  dzz                4     -2.261058  1 P  s          
    38     -1.914992  1 P  dxx               41     -1.914992  1 P  dyy        
    43     -1.914992  1 P  dzz                3     -1.065106  1 P  s          
 
 Vector   43  Occ=0.000000D+00  E= 3.977455D+00
              MO Center=  3.8D-15,  3.9D-16,  2.9D-15, r^2= 5.1D-01
   Bfn.  Coefficient  Atom+Function         Bfn.  Coefficient  Atom+Function  
  ----- ------------  ---------------      ----- ------------  ---------------
    26      0.988971  1 P  dxx               31     -0.905737  1 P  dzz        
    32     -0.661529  1 P  dxx               37      0.605853  1 P  dzz        
    28     -0.346442  1 P  dxz               30     -0.271282  1 P  dyz        
    34      0.231737  1 P  dxz               38      0.215287  1 P  dxx        
    27     -0.205312  1 P  dxy               43     -0.197168  1 P  dzz        
 
 Vector   44  Occ=0.000000D+00  E= 3.977455D+00
              MO Center= -7.2D-16,  3.1D-15,  2.8D-15, r^2= 5.1D-01
   Bfn.  Coefficient  Atom+Function         Bfn.  Coefficient  Atom+Function  
  ----- ------------  ---------------      ----- ------------  ---------------
    29      1.016234  1 P  dyy               35     -0.679765  1 P  dyy        
    30      0.614521  1 P  dyz               31     -0.564551  1 P  dzz        
    27     -0.526273  1 P  dxy               26     -0.451682  1 P  dxx        
    36     -0.411057  1 P  dyz               37      0.377632  1 P  dzz        
    33      0.352027  1 P  dxy               32      0.302133  1 P  dxx        
 
 Vector   45  Occ=0.000000D+00  E= 3.977455D+00
              MO Center=  1.6D-15,  3.4D-15,  2.2D-15, r^2= 5.1D-01
   Bfn.  Coefficient  Atom+Function         Bfn.  Coefficient  Atom+Function  
  ----- ------------  ---------------      ----- ------------  ---------------
    27      1.216424  1 P  dxy               28      1.132301  1 P  dxz        
    30      0.900415  1 P  dyz               33     -0.813673  1 P  dxy        
    34     -0.757403  1 P  dxz               36     -0.602293  1 P  dyz        
    31     -0.299679  1 P  dzz               39      0.264801  1 P  dxy        
    40      0.246488  1 P  dxz               37      0.200457  1 P  dzz        
 
 Vector   46  Occ=0.000000D+00  E= 3.977455D+00
              MO Center= -3.3D-16,  4.7D-16,  1.3D-15, r^2= 5.1D-01
   Bfn.  Coefficient  Atom+Function         Bfn.  Coefficient  Atom+Function  
  ----- ------------  ---------------      ----- ------------  ---------------
    30      1.518423  1 P  dyz               36     -1.015682  1 P  dyz        
    27     -0.924804  1 P  dxy               33      0.618607  1 P  dxy        
    29     -0.475027  1 P  dyy               42      0.330542  1 P  dyz        
    35      0.317749  1 P  dyy               26      0.257098  1 P  dxx        
    31      0.217929  1 P  dzz               39     -0.201318  1 P  dxy        
 
 Vector   47  Occ=0.000000D+00  E= 3.977455D+00
              MO Center= -3.3D-16, -3.1D-16,  8.1D-16, r^2= 5.1D-01
   Bfn.  Coefficient  Atom+Function         Bfn.  Coefficient  Atom+Function  
  ----- ------------  ---------------      ----- ------------  ---------------
    28      1.535022  1 P  dxz               27     -1.091973  1 P  dxy        
    34     -1.026786  1 P  dxz               33      0.730427  1 P  dxy        
    30     -0.528096  1 P  dyz               36      0.353246  1 P  dyz        
    40      0.334155  1 P  dxz               39     -0.237709  1 P  dxy        
    42     -0.114960  1 P  dyz               31     -0.076020  1 P  dzz        
 
 Vector   48  Occ=0.000000D+00  E= 8.552016D+00
              MO Center= -7.3D-15,  1.2D-15,  2.1D-16, r^2= 7.1D-01
   Bfn.  Coefficient  Atom+Function         Bfn.  Coefficient  Atom+Function  
  ----- ------------  ---------------      ----- ------------  ---------------
     5     18.818756  1 P  s                 32     -6.199981  1 P  dxx        
    35     -6.199981  1 P  dyy               37     -6.199981  1 P  dzz        
    26     -3.313065  1 P  dxx               29     -3.313065  1 P  dyy        
    31     -3.313065  1 P  dzz                3     -1.815083  1 P  s          
     6      1.154375  1 P  s                  4     -0.755498  1 P  s          
 
 Vector   49  Occ=0.000000D+00  E= 1.450144D+01
              MO Center=  5.4D-15, -2.8D-15, -2.7D-15, r^2= 2.5D-01
   Bfn.  Coefficient  Atom+Function         Bfn.  Coefficient  Atom+Function  
  ----- ------------  ---------------      ----- ------------  ---------------
    16      2.153935  1 P  px                44     -1.359808  1 P  fxxx       
    47     -1.359808  1 P  fxyy              49     -1.359808  1 P  fxzz       
    10     -1.292667  1 P  px                17     -1.135852  1 P  py         
    18     -1.042952  1 P  pz                 7      0.996452  1 P  px         
    45      0.717079  1 P  fxxy              50      0.717079  1 P  fyyy       
 
 Vector   50  Occ=0.000000D+00  E= 1.450144D+01
              MO Center=  8.7D-16,  9.3D-16,  7.0D-16, r^2= 2.5D-01
   Bfn.  Coefficient  Atom+Function         Bfn.  Coefficient  Atom+Function  
  ----- ------------  ---------------      ----- ------------  ---------------
    16      1.540338  1 P  px                18      1.547017  1 P  pz         
    17      1.500481  1 P  py                44     -0.972436  1 P  fxxx       
    46     -0.976653  1 P  fxxz              47     -0.972436  1 P  fxyy       
    49     -0.972436  1 P  fxzz              51     -0.976653  1 P  fyyz       
    53     -0.976653  1 P  fzzz              45     -0.947274  1 P  fxxy       
 
 Vector   51  Occ=0.000000D+00  E= 1.450144D+01
              MO Center=  3.9D-18,  2.3D-17, -4.5D-18, r^2= 2.5D-01
   Bfn.  Coefficient  Atom+Function         Bfn.  Coefficient  Atom+Function  
  ----- ------------  ---------------      ----- ------------  ---------------
    18     -1.880515  1 P  pz                17      1.864335  1 P  py         
    46      1.187194  1 P  fxxz              51      1.187194  1 P  fyyz       
    53      1.187194  1 P  fzzz              45     -1.176979  1 P  fxxy       
    50     -1.176979  1 P  fyyy              52     -1.176979  1 P  fyzz       
    12      1.128575  1 P  pz                11     -1.118865  1 P  py         
 
 Vector   52  Occ=0.000000D+00  E= 2.118606D+01
              MO Center= -2.7D-15,  7.2D-16,  2.0D-16, r^2= 3.0D-01
   Bfn.  Coefficient  Atom+Function         Bfn.  Coefficient  Atom+Function  
  ----- ------------  ---------------      ----- ------------  ---------------
     5     15.858698  1 P  s                  4     14.695255  1 P  s          
     3    -11.350474  1 P  s                 26     -6.542010  1 P  dxx        
    29     -6.542010  1 P  dyy               31     -6.542010  1 P  dzz        
    32     -4.740783  1 P  dxx               35     -4.740783  1 P  dyy        
    37     -4.740783  1 P  dzz                2      0.649081  1 P  s          
 
 Vector   53  Occ=0.000000D+00  E= 1.885575D+02
              MO Center= -1.8D-16, -2.8D-17, -9.8D-19, r^2= 3.8D-02
   Bfn.  Coefficient  Atom+Function         Bfn.  Coefficient  Atom+Function  
  ----- ------------  ---------------      ----- ------------  ---------------
     4      7.146789  1 P  s                  3     -5.993860  1 P  s          
     5      5.289559  1 P  s                 26     -2.648544  1 P  dxx        
    29     -2.648544  1 P  dyy               31     -2.648544  1 P  dzz        
     2      2.298576  1 P  s                  1     -1.636081  1 P  s          
    32     -1.594565  1 P  dxx               35     -1.594565  1 P  dyy        
 
 
                     DFT Final Beta Molecular Orbital Analysis
                     -----------------------------------------
 
 Vector    1  Occ=1.000000D+00  E=-7.661074D+01
              MO Center= -2.4D-18, -7.5D-19, -7.6D-19, r^2= 4.1D-03
   Bfn.  Coefficient  Atom+Function         Bfn.  Coefficient  Atom+Function  
  ----- ------------  ---------------      ----- ------------  ---------------
     2      0.645151  1 P  s                  1      0.419643  1 P  s          
 
 Vector    2  Occ=1.000000D+00  E=-6.391184D+00
              MO Center= -1.3D-15, -6.4D-16, -1.6D-15, r^2= 9.0D-02
   Bfn.  Coefficient  Atom+Function         Bfn.  Coefficient  Atom+Function  
  ----- ------------  ---------------      ----- ------------  ---------------
     4      0.596065  1 P  s                  3      0.505244  1 P  s          
     2     -0.312396  1 P  s                  1     -0.119788  1 P  s          
     5      0.120217  1 P  s                  6     -0.049847  1 P  s          
 
 Vector    3  Occ=1.000000D+00  E=-4.565576D+00
              MO Center=  4.0D-16, -2.7D-16, -2.3D-16, r^2= 8.3D-02
   Bfn.  Coefficient  Atom+Function         Bfn.  Coefficient  Atom+Function  
  ----- ------------  ---------------      ----- ------------  ---------------
    10      0.628161  1 P  px                 7      0.374727  1 P  px         
    12     -0.201718  1 P  pz                11     -0.175208  1 P  py         
     9     -0.120334  1 P  pz                 8     -0.104520  1 P  py         
    13      0.047465  1 P  px         
 
 Vector    4  Occ=1.000000D+00  E=-4.565576D+00
              MO Center= -1.8D-16, -4.1D-16,  1.7D-16, r^2= 8.3D-02
   Bfn.  Coefficient  Atom+Function         Bfn.  Coefficient  Atom+Function  
  ----- ------------  ---------------      ----- ------------  ---------------
    11      0.494189  1 P  py                12     -0.470716  1 P  pz         
     8      0.294807  1 P  py                 9     -0.280804  1 P  pz         
    14      0.037342  1 P  py                15     -0.035568  1 P  pz         
 
 Vector    5  Occ=1.000000D+00  E=-4.565576D+00
              MO Center=  5.3D-16,  1.1D-15,  1.0D-15, r^2= 8.3D-02
   Bfn.  Coefficient  Atom+Function         Bfn.  Coefficient  Atom+Function  
  ----- ------------  ---------------      ----- ------------  ---------------
    12      0.451343  1 P  pz                11      0.437096  1 P  py         
     9      0.269247  1 P  pz                10      0.266853  1 P  px         
     8      0.260748  1 P  py                 7      0.159190  1 P  px         
    15      0.034104  1 P  pz                14      0.033028  1 P  py         
 
 Vector    6  Occ=1.000000D+00  E=-4.374092D-01
              MO Center= -1.4D-14, -4.2D-15, -1.3D-14, r^2= 1.2D+00
   Bfn.  Coefficient  Atom+Function         Bfn.  Coefficient  Atom+Function  
  ----- ------------  ---------------      ----- ------------  ---------------
     6      0.711162  1 P  s                  5      0.504121  1 P  s          
     4     -0.375965  1 P  s                  3     -0.199443  1 P  s          
     2      0.096929  1 P  s                 38     -0.054973  1 P  dxx        
    41     -0.054973  1 P  dyy               43     -0.054973  1 P  dzz        
     1      0.035177  1 P  s                 22      0.029778  1 P  s          
 
 Vector    7  Occ=0.000000D+00  E=-1.342572D-01
              MO Center= -5.9D-15, -6.9D-15, -1.2D-14, r^2= 2.2D+00
   Bfn.  Coefficient  Atom+Function         Bfn.  Coefficient  Atom+Function  
  ----- ------------  ---------------      ----- ------------  ---------------
    16      0.579881  1 P  px                17     -0.368826  1 P  py         
    19      0.319481  1 P  px                18     -0.276706  1 P  pz         
    20     -0.203202  1 P  py                21     -0.152449  1 P  pz         
    10     -0.135121  1 P  px                13      0.120458  1 P  px         
    11      0.085942  1 P  py                 7     -0.080001  1 P  px         
 
 Vector    8  Occ=0.000000D+00  E=-1.342572D-01
              MO Center= -7.5D-15, -1.6D-15, -7.1D-15, r^2= 2.2D+00
   Bfn.  Coefficient  Atom+Function         Bfn.  Coefficient  Atom+Function  
  ----- ------------  ---------------      ----- ------------  ---------------
    16      0.457947  1 P  px                18      0.414642  1 P  pz         
    17      0.408921  1 P  py                19      0.252303  1 P  px         
    21      0.228444  1 P  pz                20      0.225292  1 P  py         
    10     -0.106709  1 P  px                12     -0.096618  1 P  pz         
    11     -0.095285  1 P  py                13      0.095129  1 P  px         
 
 Vector    9  Occ=0.000000D+00  E=-1.342572D-01
              MO Center= -9.3D-15, -6.3D-15, -7.7D-15, r^2= 2.2D+00
   Bfn.  Coefficient  Atom+Function         Bfn.  Coefficient  Atom+Function  
  ----- ------------  ---------------      ----- ------------  ---------------
    18      0.548057  1 P  pz                17     -0.495591  1 P  py         
    21      0.301948  1 P  pz                20     -0.273042  1 P  py         
    12     -0.127706  1 P  pz                11      0.115480  1 P  py         
    15      0.113847  1 P  pz                14     -0.102949  1 P  py         
     9     -0.075610  1 P  pz                 8      0.068372  1 P  py         
 
 Vector   10  Occ=0.000000D+00  E= 2.927600D-02
              MO Center= -1.7D-13, -2.8D-14, -8.7D-14, r^2= 1.0D+01
   Bfn.  Coefficient  Atom+Function         Bfn.  Coefficient  Atom+Function  
  ----- ------------  ---------------      ----- ------------  ---------------
    22      1.674035  1 P  s                  6     -0.333279  1 P  s          
     5     -0.313366  1 P  s                 38     -0.238538  1 P  dxx        
    41     -0.238538  1 P  dyy               43     -0.238538  1 P  dzz        
     4      0.116759  1 P  s                 32     -0.072111  1 P  dxx        
    35     -0.072111  1 P  dyy               37     -0.072111  1 P  dzz        
 
 Vector   11  Occ=0.000000D+00  E= 6.429253D-02
              MO Center=  4.0D-14, -6.5D-14,  2.1D-14, r^2= 1.4D+01
   Bfn.  Coefficient  Atom+Function         Bfn.  Coefficient  Atom+Function  
  ----- ------------  ---------------      ----- ------------  ---------------
    24      1.438328  1 P  py                20     -0.894349  1 P  py         
    23     -0.865099  1 P  px                19      0.537917  1 P  px         
    25     -0.462135  1 P  pz                21      0.287354  1 P  pz         
    17      0.224520  1 P  py                14     -0.177752  1 P  py         
    45     -0.155432  1 P  fxxy              50     -0.155432  1 P  fyyy       
 
 Vector   12  Occ=0.000000D+00  E= 6.429253D-02
              MO Center=  2.0D-14,  4.1D-15, -2.7D-14, r^2= 1.4D+01
   Bfn.  Coefficient  Atom+Function         Bfn.  Coefficient  Atom+Function  
  ----- ------------  ---------------      ----- ------------  ---------------
    25      1.366919  1 P  pz                23     -1.059719  1 P  px         
    21     -0.849947  1 P  pz                19      0.658931  1 P  px         
    18      0.213373  1 P  pz                24     -0.198190  1 P  py         
    15     -0.168928  1 P  pz                16     -0.165420  1 P  px         
    46     -0.147715  1 P  fxxz              51     -0.147715  1 P  fyyz       
 
 Vector   13  Occ=0.000000D+00  E= 6.429253D-02
              MO Center=  9.6D-14,  1.1D-13,  1.0D-13, r^2= 1.4D+01
   Bfn.  Coefficient  Atom+Function         Bfn.  Coefficient  Atom+Function  
  ----- ------------  ---------------      ----- ------------  ---------------
    23      1.076732  1 P  px                25      0.974021  1 P  pz         
    24      0.960565  1 P  py                19     -0.669509  1 P  px         
    21     -0.605644  1 P  pz                20     -0.597277  1 P  py         
    16      0.168076  1 P  px                18      0.152043  1 P  pz         
    17      0.149942  1 P  py                13     -0.133065  1 P  px         
 
 Vector   14  Occ=0.000000D+00  E= 2.060736D-01
              MO Center= -3.7D-15, -1.1D-16, -1.6D-16, r^2= 3.2D+00
   Bfn.  Coefficient  Atom+Function         Bfn.  Coefficient  Atom+Function  
  ----- ------------  ---------------      ----- ------------  ---------------
    42      0.971062  1 P  dyz               38     -0.709080  1 P  dxx        
    41      0.402199  1 P  dyy               43      0.306882  1 P  dzz        
    36      0.171616  1 P  dyz               32     -0.125316  1 P  dxx        
    35      0.071081  1 P  dyy               40      0.070414  1 P  dxz        
    30      0.059632  1 P  dyz               37      0.054235  1 P  dzz        
 
 Vector   15  Occ=0.000000D+00  E= 2.060736D-01
              MO Center=  1.0D-15, -2.5D-15, -8.7D-15, r^2= 3.2D+00
   Bfn.  Coefficient  Atom+Function         Bfn.  Coefficient  Atom+Function  
  ----- ------------  ---------------      ----- ------------  ---------------
    43      0.775784  1 P  dzz               41     -0.641019  1 P  dyy        
    39      0.555827  1 P  dxy               40     -0.293160  1 P  dxz        
    37      0.137104  1 P  dzz               38     -0.134765  1 P  dxx        
    35     -0.113287  1 P  dyy               42     -0.105999  1 P  dyz        
    33      0.098231  1 P  dxy               34     -0.051810  1 P  dxz        
 
 Vector   16  Occ=0.000000D+00  E= 2.060736D-01
              MO Center= -1.2D-15, -2.6D-15,  1.4D-16, r^2= 3.2D+00
   Bfn.  Coefficient  Atom+Function         Bfn.  Coefficient  Atom+Function  
  ----- ------------  ---------------      ----- ------------  ---------------
    39      1.357247  1 P  dxy               41      0.399366  1 P  dyy        
    42     -0.325712  1 P  dyz               33      0.239866  1 P  dxy        
    43     -0.241030  1 P  dzz               40     -0.185499  1 P  dxz        
    38     -0.158337  1 P  dxx               27      0.083347  1 P  dxy        
    35      0.070580  1 P  dyy               36     -0.057563  1 P  dyz        
 
 Vector   17  Occ=0.000000D+00  E= 2.060736D-01
              MO Center= -9.2D-16, -1.1D-15,  2.4D-15, r^2= 3.2D+00
   Bfn.  Coefficient  Atom+Function         Bfn.  Coefficient  Atom+Function  
  ----- ------------  ---------------      ----- ------------  ---------------
    40      1.389311  1 P  dxz               42     -0.590703  1 P  dyz        
    34      0.245533  1 P  dxz               38     -0.231860  1 P  dxx        
    43      0.196121  1 P  dzz               36     -0.104395  1 P  dyz        
    28      0.085316  1 P  dxz               39      0.042651  1 P  dxy        
    32     -0.040977  1 P  dxx               30     -0.036275  1 P  dyz        
 
 Vector   18  Occ=0.000000D+00  E= 2.060736D-01
              MO Center= -1.3D-15, -2.2D-15, -1.1D-15, r^2= 3.2D+00
   Bfn.  Coefficient  Atom+Function         Bfn.  Coefficient  Atom+Function  
  ----- ------------  ---------------      ----- ------------  ---------------
    42      1.028942  1 P  dyz               40      0.642214  1 P  dxz        
    39      0.559022  1 P  dxy               38      0.472080  1 P  dxx        
    41     -0.298673  1 P  dyy               36      0.181845  1 P  dyz        
    43     -0.173407  1 P  dzz               34      0.113499  1 P  dxz        
    33      0.098796  1 P  dxy               32      0.083431  1 P  dxx        
 
 Vector   19  Occ=0.000000D+00  E= 2.874840D-01
              MO Center= -4.2D-14,  7.5D-14, -1.4D-14, r^2= 9.1D+00
   Bfn.  Coefficient  Atom+Function         Bfn.  Coefficient  Atom+Function  
  ----- ------------  ---------------      ----- ------------  ---------------
    17      2.643849  1 P  py                20     -2.439142  1 P  py         
    16     -1.692046  1 P  px                19      1.561035  1 P  px         
    24      1.456339  1 P  py                23     -0.932047  1 P  px         
    45     -0.795979  1 P  fxxy              50     -0.795979  1 P  fyyy       
    52     -0.795979  1 P  fyzz              18     -0.745613  1 P  pz         
 
 Vector   20  Occ=0.000000D+00  E= 2.874840D-01
              MO Center= -2.6D-13, -2.4D-13, -2.5D-13, r^2= 9.1D+00
   Bfn.  Coefficient  Atom+Function         Bfn.  Coefficient  Atom+Function  
  ----- ------------  ---------------      ----- ------------  ---------------
    16      1.990827  1 P  px                19     -1.836682  1 P  px         
    18      1.806694  1 P  pz                17      1.783637  1 P  py         
    21     -1.666806  1 P  pz                20     -1.645534  1 P  py         
    23      1.096628  1 P  px                25      0.995200  1 P  pz         
    24      0.982499  1 P  py                44     -0.599375  1 P  fxxx       
 
 Vector   21  Occ=0.000000D+00  E= 2.874840D-01
              MO Center=  1.2D-13,  1.8D-14, -8.4D-14, r^2= 9.1D+00
   Bfn.  Coefficient  Atom+Function         Bfn.  Coefficient  Atom+Function  
  ----- ------------  ---------------      ----- ------------  ---------------
    18      2.566869  1 P  pz                21     -2.368122  1 P  pz         
    16     -1.892745  1 P  px                19      1.746194  1 P  px         
    25      1.413935  1 P  pz                23     -1.042600  1 P  px         
    46     -0.772803  1 P  fxxz              51     -0.772803  1 P  fyyz       
    53     -0.772803  1 P  fzzz              44      0.569846  1 P  fxxx       
 
 Vector   22  Occ=0.000000D+00  E= 3.043375D-01
              MO Center=  2.5D-13,  1.6D-13,  3.7D-13, r^2= 7.7D+00
   Bfn.  Coefficient  Atom+Function         Bfn.  Coefficient  Atom+Function  
  ----- ------------  ---------------      ----- ------------  ---------------
     6      2.895343  1 P  s                 38     -1.815529  1 P  dxx        
    41     -1.815529  1 P  dyy               43     -1.815529  1 P  dzz        
    22      1.797521  1 P  s                 32     -0.360342  1 P  dxx        
    35     -0.360342  1 P  dyy               37     -0.360342  1 P  dzz        
     4     -0.315846  1 P  s                  5     -0.296841  1 P  s          
 
 Vector   23  Occ=0.000000D+00  E= 8.851477D-01
              MO Center= -4.9D-15, -1.8D-15, -7.1D-15, r^2= 1.6D+00
   Bfn.  Coefficient  Atom+Function         Bfn.  Coefficient  Atom+Function  
  ----- ------------  ---------------      ----- ------------  ---------------
    34      1.398302  1 P  dxz               40     -0.896300  1 P  dxz        
    36     -0.753139  1 P  dyz               33      0.701110  1 P  dxy        
    42      0.482756  1 P  dyz               39     -0.449406  1 P  dxy        
    28      0.215039  1 P  dxz               32      0.147686  1 P  dxx        
    30     -0.115822  1 P  dyz               27      0.107821  1 P  dxy        
 
 Vector   24  Occ=0.000000D+00  E= 8.851477D-01
              MO Center= -5.2D-15, -4.5D-15, -8.4D-15, r^2= 1.6D+00
   Bfn.  Coefficient  Atom+Function         Bfn.  Coefficient  Atom+Function  
  ----- ------------  ---------------      ----- ------------  ---------------
    36      1.544216  1 P  dyz               42     -0.989830  1 P  dyz        
    34      0.619538  1 P  dxz               40     -0.397119  1 P  dxz        
    33      0.281625  1 P  dxy               35     -0.254998  1 P  dyy        
    30      0.237478  1 P  dyz               32      0.223210  1 P  dxx        
    39     -0.180520  1 P  dxy               41      0.163452  1 P  dyy        
 
 Vector   25  Occ=0.000000D+00  E= 8.851477D-01
              MO Center= -6.7D-15,  1.1D-15, -1.2D-15, r^2= 1.6D+00
   Bfn.  Coefficient  Atom+Function         Bfn.  Coefficient  Atom+Function  
  ----- ------------  ---------------      ----- ------------  ---------------
    33      1.550167  1 P  dxy               39     -0.993645  1 P  dxy        
    34     -0.803387  1 P  dxz               40      0.514965  1 P  dxz        
    27      0.238394  1 P  dxy               28     -0.123550  1 P  dxz        
    35     -0.100740  1 P  dyy               41      0.064574  1 P  dyy        
    32      0.060354  1 P  dxx               37      0.040386  1 P  dzz        
 
 Vector   26  Occ=0.000000D+00  E= 8.851477D-01
              MO Center=  8.5D-15, -2.8D-14, -2.6D-14, r^2= 1.6D+00
   Bfn.  Coefficient  Atom+Function         Bfn.  Coefficient  Atom+Function  
  ----- ------------  ---------------      ----- ------------  ---------------
    32      0.904487  1 P  dxx               35     -0.740109  1 P  dyy        
    38     -0.579769  1 P  dxx               41      0.474404  1 P  dyy        
    36     -0.320621  1 P  dyz               33     -0.316701  1 P  dxy        
    34     -0.301007  1 P  dxz               42      0.205515  1 P  dyz        
    39      0.203003  1 P  dxy               40      0.192943  1 P  dxz        
 
 Vector   27  Occ=0.000000D+00  E= 8.851477D-01
              MO Center= -1.6D-15, -5.3D-14, -7.8D-14, r^2= 1.6D+00
   Bfn.  Coefficient  Atom+Function         Bfn.  Coefficient  Atom+Function  
  ----- ------------  ---------------      ----- ------------  ---------------
    37      0.995723  1 P  dzz               43     -0.638250  1 P  dzz        
    35     -0.630876  1 P  dyy               41      0.404387  1 P  dyy        
    32     -0.364847  1 P  dxx               38      0.233864  1 P  dxx        
    36     -0.157084  1 P  dyz               31      0.153128  1 P  dzz        
    42      0.100689  1 P  dyz               29     -0.097020  1 P  dyy        
 
 Vector   28  Occ=0.000000D+00  E= 9.599727D-01
              MO Center=  1.0D-14,  4.4D-14,  8.2D-14, r^2= 4.3D+00
   Bfn.  Coefficient  Atom+Function         Bfn.  Coefficient  Atom+Function  
  ----- ------------  ---------------      ----- ------------  ---------------
    17      6.977767  1 P  py                18     -5.443221  1 P  pz         
    45     -2.962911  1 P  fxxy              50     -2.962911  1 P  fyyy       
    52     -2.962911  1 P  fyzz              14     -2.384861  1 P  py         
    46      2.311310  1 P  fxxz              51      2.311310  1 P  fyyz       
    53      2.311310  1 P  fzzz              15      1.860384  1 P  pz         
 
 Vector   29  Occ=0.000000D+00  E= 9.599727D-01
              MO Center= -1.8D-15, -2.2D-15, -1.5D-15, r^2= 4.3D+00
   Bfn.  Coefficient  Atom+Function         Bfn.  Coefficient  Atom+Function  
  ----- ------------  ---------------      ----- ------------  ---------------
    16      5.565215  1 P  px                18      4.987091  1 P  pz         
    17      4.910243  1 P  py                44     -2.363111  1 P  fxxx       
    47     -2.363111  1 P  fxyy              49     -2.363111  1 P  fxzz       
    46     -2.117627  1 P  fxxz              51     -2.117627  1 P  fyyz       
    53     -2.117627  1 P  fzzz              45     -2.084995  1 P  fxxy       
 
 Vector   30  Occ=0.000000D+00  E= 9.599727D-01
              MO Center=  3.7D-14, -5.7D-15, -1.1D-14, r^2= 4.3D+00
   Bfn.  Coefficient  Atom+Function         Bfn.  Coefficient  Atom+Function  
  ----- ------------  ---------------      ----- ------------  ---------------
    16      6.880863  1 P  px                18     -5.045140  1 P  pz         
    44     -2.921764  1 P  fxxx              47     -2.921764  1 P  fxyy       
    49     -2.921764  1 P  fxzz              17     -2.674595  1 P  py         
    13     -2.351741  1 P  px                46      2.142276  1 P  fxxz       
    51      2.142276  1 P  fyyz              53      2.142276  1 P  fzzz       
 
 Vector   31  Occ=0.000000D+00  E= 1.085769D+00
              MO Center= -1.6D-14,  2.1D-14,  3.2D-14, r^2= 3.9D+00
   Bfn.  Coefficient  Atom+Function         Bfn.  Coefficient  Atom+Function  
  ----- ------------  ---------------      ----- ------------  ---------------
     6     10.721051  1 P  s                  5     -3.769036  1 P  s          
    38     -3.218334  1 P  dxx               41     -3.218334  1 P  dyy        
    43     -3.218334  1 P  dzz               32     -1.184054  1 P  dxx        
    35     -1.184054  1 P  dyy               37     -1.184054  1 P  dzz        
    22      1.045995  1 P  s                 26     -0.241580  1 P  dxx        
 
 Vector   32  Occ=0.000000D+00  E= 1.358056D+00
              MO Center= -1.1D-14,  6.7D-15,  3.6D-15, r^2= 1.4D+00
   Bfn.  Coefficient  Atom+Function         Bfn.  Coefficient  Atom+Function  
  ----- ------------  ---------------      ----- ------------  ---------------
    48      1.917677  1 P  fxyz              47      1.527229  1 P  fxyy       
    49     -1.167228  1 P  fxzz              45      1.045490  1 P  fxxy       
    52     -0.816178  1 P  fyzz              51     -0.239927  1 P  fyyz       
    46     -0.176444  1 P  fxxz              53      0.138790  1 P  fzzz       
    44     -0.120000  1 P  fxxx              50     -0.076437  1 P  fyyy       
 
 Vector   33  Occ=0.000000D+00  E= 1.358056D+00
              MO Center=  4.4D-15,  2.9D-16,  2.7D-15, r^2= 1.4D+00
   Bfn.  Coefficient  Atom+Function         Bfn.  Coefficient  Atom+Function  
  ----- ------------  ---------------      ----- ------------  ---------------
    48      2.196151  1 P  fxyz              46      1.358663  1 P  fxxz       
    51     -1.333464  1 P  fyyz              47     -1.001435  1 P  fxyy       
    49      0.496119  1 P  fxzz              52      0.241133  1 P  fyzz       
    44      0.168439  1 P  fxxx              45      0.147119  1 P  fxxy       
    50     -0.129417  1 P  fyyy       
 
 Vector   34  Occ=0.000000D+00  E= 1.358056D+00
              MO Center=  1.2D-15,  1.4D-16,  5.7D-15, r^2= 1.4D+00
   Bfn.  Coefficient  Atom+Function         Bfn.  Coefficient  Atom+Function  
  ----- ------------  ---------------      ----- ------------  ---------------
    52      2.136382  1 P  fyzz              49     -1.051998  1 P  fxzz       
    48      0.678920  1 P  fxyz              45     -0.618918  1 P  fxxy       
    50     -0.505821  1 P  fyyy              47      0.381628  1 P  fxyy       
    51      0.349404  1 P  fyyz              44      0.223456  1 P  fxxx       
    53     -0.089200  1 P  fzzz              46     -0.081804  1 P  fxxz       
 
 Vector   35  Occ=0.000000D+00  E= 1.358056D+00
              MO Center= -5.1D-15,  1.2D-14,  1.7D-14, r^2= 1.4D+00
   Bfn.  Coefficient  Atom+Function         Bfn.  Coefficient  Atom+Function  
  ----- ------------  ---------------      ----- ------------  ---------------
    51      1.971049  1 P  fyyz              48      1.815108  1 P  fxyz       
    47     -0.668945  1 P  fxyy              53     -0.630054  1 P  fzzz       
    52     -0.397741  1 P  fyzz              49      0.249591  1 P  fxzz       
    44      0.139785  1 P  fxxx              50      0.117834  1 P  fyyy       
    46     -0.080887  1 P  fxxz              45      0.044240  1 P  fxxy       
 
 Vector   36  Occ=0.000000D+00  E= 1.358056D+00
              MO Center=  2.8D-15, -2.5D-16,  3.7D-15, r^2= 1.4D+00
   Bfn.  Coefficient  Atom+Function         Bfn.  Coefficient  Atom+Function  
  ----- ------------  ---------------      ----- ------------  ---------------
    46      1.752987  1 P  fxxz              49     -1.252362  1 P  fxzz       
    48     -1.167227  1 P  fxyz              53     -0.605940  1 P  fzzz       
    52     -0.503646  1 P  fyzz              45     -0.394212  1 P  fxxy       
    44      0.325474  1 P  fxxx              50      0.299286  1 P  fyyy       
    47      0.275941  1 P  fxyy              51      0.064833  1 P  fyyz       
 
 Vector   37  Occ=0.000000D+00  E= 1.358056D+00
              MO Center=  4.9D-16, -6.1D-17, -1.9D-16, r^2= 1.4D+00
   Bfn.  Coefficient  Atom+Function         Bfn.  Coefficient  Atom+Function  
  ----- ------------  ---------------      ----- ------------  ---------------
    45      1.947720  1 P  fxxy              48     -1.081826  1 P  fxyz       
    47     -0.950258  1 P  fxyy              50     -0.658336  1 P  fyyy       
    44      0.470725  1 P  fxxx              49     -0.461916  1 P  fxzz       
    51      0.175669  1 P  fyyz              46     -0.064626  1 P  fxxz       
    53     -0.037014  1 P  fzzz              52      0.027287  1 P  fyzz       
 
 Vector   38  Occ=0.000000D+00  E= 1.358056D+00
              MO Center= -2.2D-14,  9.0D-15,  4.5D-15, r^2= 1.4D+00
   Bfn.  Coefficient  Atom+Function         Bfn.  Coefficient  Atom+Function  
  ----- ------------  ---------------      ----- ------------  ---------------
    49      1.200280  1 P  fxzz              47      1.045198  1 P  fxyy       
    46      1.016133  1 P  fxxz              44     -0.748492  1 P  fxxx       
    45      0.742478  1 P  fxxy              52      0.546791  1 P  fyzz       
    48     -0.459478  1 P  fxyz              53     -0.455202  1 P  fzzz       
    50     -0.429756  1 P  fyyy              51      0.349471  1 P  fyyz       
 
 Vector   39  Occ=0.000000D+00  E= 2.542538D+00
              MO Center=  7.3D-15, -1.1D-14, -3.8D-16, r^2= 2.0D+00
   Bfn.  Coefficient  Atom+Function         Bfn.  Coefficient  Atom+Function  
  ----- ------------  ---------------      ----- ------------  ---------------
    17      6.654906  1 P  py                16     -5.444690  1 P  px         
    45     -3.815896  1 P  fxxy              50     -3.815896  1 P  fyyy       
    52     -3.815896  1 P  fyzz              44      3.121964  1 P  fxxx       
    47      3.121964  1 P  fxyy              49      3.121964  1 P  fxzz       
    20     -0.984129  1 P  py                19      0.805162  1 P  px         
 
 Vector   40  Occ=0.000000D+00  E= 2.542538D+00
              MO Center=  3.1D-17,  9.4D-16, -4.7D-15, r^2= 2.0D+00
   Bfn.  Coefficient  Atom+Function         Bfn.  Coefficient  Atom+Function  
  ----- ------------  ---------------      ----- ------------  ---------------
    18      7.114576  1 P  pz                46     -4.079469  1 P  fxxz       
    51     -4.079469  1 P  fyyz              53     -4.079469  1 P  fzzz       
    16     -4.056504  1 P  px                17     -2.685350  1 P  py         
    44      2.325983  1 P  fxxx              47      2.325983  1 P  fxyy       
    49      2.325983  1 P  fxzz              45      1.539769  1 P  fxxy       
 
 Vector   41  Occ=0.000000D+00  E= 2.542538D+00
              MO Center= -1.4D-14, -1.2D-14, -1.3D-14, r^2= 2.0D+00
   Bfn.  Coefficient  Atom+Function         Bfn.  Coefficient  Atom+Function  
  ----- ------------  ---------------      ----- ------------  ---------------
    16      5.308827  1 P  px                18      4.828584  1 P  pz         
    17      4.773326  1 P  py                44     -3.044060  1 P  fxxx       
    47     -3.044060  1 P  fxyy              49     -3.044060  1 P  fxzz       
    46     -2.768691  1 P  fxxz              51     -2.768691  1 P  fyyz       
    53     -2.768691  1 P  fzzz              45     -2.737006  1 P  fxxy       
 
 Vector   42  Occ=0.000000D+00  E= 3.228244D+00
              MO Center=  1.8D-15,  2.4D-14,  1.5D-14, r^2= 1.7D+00
   Bfn.  Coefficient  Atom+Function         Bfn.  Coefficient  Atom+Function  
  ----- ------------  ---------------      ----- ------------  ---------------
     5      8.641683  1 P  s                  6      6.712131  1 P  s          
    32     -4.668058  1 P  dxx               35     -4.668058  1 P  dyy        
    37     -4.668058  1 P  dzz                4     -2.237934  1 P  s          
    38     -1.893408  1 P  dxx               41     -1.893408  1 P  dyy        
    43     -1.893408  1 P  dzz                3     -1.080783  1 P  s          
 
 Vector   43  Occ=0.000000D+00  E= 4.009200D+00
              MO Center=  8.6D-17,  3.4D-16,  1.4D-15, r^2= 5.1D-01
   Bfn.  Coefficient  Atom+Function         Bfn.  Coefficient  Atom+Function  
  ----- ------------  ---------------      ----- ------------  ---------------
    31      1.024160  1 P  dzz               29     -0.787031  1 P  dyy        
    37     -0.696517  1 P  dzz               35      0.535249  1 P  dyy        
    28      0.529275  1 P  dxz               34     -0.359952  1 P  dxz        
    30     -0.289330  1 P  dyz               26     -0.237129  1 P  dxx        
    43      0.223576  1 P  dzz               36      0.196769  1 P  dyz        
 
 Vector   44  Occ=0.000000D+00  E= 4.009200D+00
              MO Center=  1.3D-15,  1.1D-16,  1.0D-15, r^2= 5.1D-01
   Bfn.  Coefficient  Atom+Function         Bfn.  Coefficient  Atom+Function  
  ----- ------------  ---------------      ----- ------------  ---------------
    28      1.086667  1 P  dxz               30     -0.751005  1 P  dyz        
    34     -0.739027  1 P  dxz               26      0.731667  1 P  dxx        
    27     -0.688339  1 P  dxy               36      0.510748  1 P  dyz        
    32     -0.497597  1 P  dxx               33      0.468130  1 P  dxy        
    31     -0.413491  1 P  dzz               29     -0.318176  1 P  dyy        
 
 Vector   45  Occ=0.000000D+00  E= 4.009200D+00
              MO Center= -2.4D-16, -8.7D-19,  9.2D-16, r^2= 5.1D-01
   Bfn.  Coefficient  Atom+Function         Bfn.  Coefficient  Atom+Function  
  ----- ------------  ---------------      ----- ------------  ---------------
    30      1.659618  1 P  dyz               36     -1.128683  1 P  dyz        
    27     -0.881803  1 P  dxy               33      0.599702  1 P  dxy        
    28      0.498969  1 P  dxz               42      0.362298  1 P  dyz        
    34     -0.339342  1 P  dxz               39     -0.192500  1 P  dxy        
    29     -0.131971  1 P  dyy               40      0.108926  1 P  dxz        
 
 Vector   46  Occ=0.000000D+00  E= 4.009200D+00
              MO Center=  1.4D-15,  2.0D-16, -2.3D-16, r^2= 5.1D-01
   Bfn.  Coefficient  Atom+Function         Bfn.  Coefficient  Atom+Function  
  ----- ------------  ---------------      ----- ------------  ---------------
    28      1.222386  1 P  dxz               34     -0.831327  1 P  dxz        
    26     -0.768089  1 P  dxx               29      0.730237  1 P  dyy        
    32      0.522366  1 P  dxx               35     -0.496624  1 P  dyy        
    30     -0.272601  1 P  dyz               40      0.266850  1 P  dxz        
    36      0.185392  1 P  dyz               38     -0.167676  1 P  dxx        
 
 Vector   47  Occ=0.000000D+00  E= 4.009200D+00
              MO Center=  2.0D-15,  9.0D-16,  2.1D-15, r^2= 5.1D-01
   Bfn.  Coefficient  Atom+Function         Bfn.  Coefficient  Atom+Function  
  ----- ------------  ---------------      ----- ------------  ---------------
    27      1.595500  1 P  dxy               33     -1.085077  1 P  dxy        
    28      0.793465  1 P  dxz               30      0.597825  1 P  dyz        
    34     -0.539624  1 P  dxz               36     -0.406573  1 P  dyz        
    39      0.348301  1 P  dxy               26      0.305841  1 P  dxx        
    31     -0.224583  1 P  dzz               32     -0.207998  1 P  dxx        
 
 Vector   48  Occ=0.000000D+00  E= 8.599580D+00
              MO Center= -4.7D-16,  1.2D-15,  4.0D-16, r^2= 7.1D-01
   Bfn.  Coefficient  Atom+Function         Bfn.  Coefficient  Atom+Function  
  ----- ------------  ---------------      ----- ------------  ---------------
     5     18.829962  1 P  s                 32     -6.195078  1 P  dxx        
    35     -6.195078  1 P  dyy               37     -6.195078  1 P  dzz        
    26     -3.311006  1 P  dxx               29     -3.311006  1 P  dyy        
    31     -3.311006  1 P  dzz                3     -1.813766  1 P  s          
     6      1.127056  1 P  s                  4     -0.760905  1 P  s          
 
 Vector   49  Occ=0.000000D+00  E= 1.452914D+01
              MO Center=  3.4D-16,  3.2D-17, -3.5D-16, r^2= 2.5D-01
   Bfn.  Coefficient  Atom+Function         Bfn.  Coefficient  Atom+Function  
  ----- ------------  ---------------      ----- ------------  ---------------
    18      1.975960  1 P  pz                16     -1.759147  1 P  px         
    46     -1.248004  1 P  fxxz              51     -1.248004  1 P  fyyz       
    53     -1.248004  1 P  fzzz              12     -1.187245  1 P  pz         
    44      1.111066  1 P  fxxx              47      1.111066  1 P  fxyy       
    49      1.111066  1 P  fxzz              10      1.056974  1 P  px         
 
 Vector   50  Occ=0.000000D+00  E= 1.452914D+01
              MO Center= -1.6D-16,  2.1D-16, -6.9D-17, r^2= 2.5D-01
   Bfn.  Coefficient  Atom+Function         Bfn.  Coefficient  Atom+Function  
  ----- ------------  ---------------      ----- ------------  ---------------
    17      2.193895  1 P  py                45     -1.385650  1 P  fxxy       
    50     -1.385650  1 P  fyyy              52     -1.385650  1 P  fyzz       
    11     -1.318190  1 P  py                16     -1.139635  1 P  px         
     8      1.015887  1 P  py                18     -0.943990  1 P  pz         
    44      0.719786  1 P  fxxx              47      0.719786  1 P  fxyy       
 
 Vector   51  Occ=0.000000D+00  E= 1.452914D+01
              MO Center=  5.7D-16,  5.2D-16,  5.1D-16, r^2= 2.5D-01
   Bfn.  Coefficient  Atom+Function         Bfn.  Coefficient  Atom+Function  
  ----- ------------  ---------------      ----- ------------  ---------------
    16      1.615454  1 P  px                17      1.478459  1 P  py         
    18      1.485775  1 P  pz                44     -1.020311  1 P  fxxx       
    47     -1.020311  1 P  fxyy              49     -1.020311  1 P  fxzz       
    10     -0.970637  1 P  px                45     -0.933785  1 P  fxxy       
    46     -0.938406  1 P  fxxz              50     -0.933785  1 P  fyyy       
 
 Vector   52  Occ=0.000000D+00  E= 2.121863D+01
              MO Center= -1.5D-17,  7.6D-17,  1.1D-16, r^2= 3.0D-01
   Bfn.  Coefficient  Atom+Function         Bfn.  Coefficient  Atom+Function  
  ----- ------------  ---------------      ----- ------------  ---------------
     5     15.850082  1 P  s                  4     14.697460  1 P  s          
     3    -11.349565  1 P  s                 26     -6.541464  1 P  dxx        
    29     -6.541464  1 P  dyy               31     -6.541464  1 P  dzz        
    32     -4.735241  1 P  dxx               35     -4.735241  1 P  dyy        
    37     -4.735241  1 P  dzz                2      0.648921  1 P  s          
 
 Vector   53  Occ=0.000000D+00  E= 1.885722D+02
              MO Center=  1.1D-18,  1.7D-17,  2.3D-18, r^2= 3.8D-02
   Bfn.  Coefficient  Atom+Function         Bfn.  Coefficient  Atom+Function  
  ----- ------------  ---------------      ----- ------------  ---------------
     4      7.147341  1 P  s                  3     -5.994144  1 P  s          
     5      5.289486  1 P  s                 26     -2.648694  1 P  dxx        
    29     -2.648694  1 P  dyy               31     -2.648694  1 P  dzz        
     2      2.298601  1 P  s                  1     -1.636071  1 P  s          
    32     -1.594449  1 P  dxx               35     -1.594449  1 P  dyy        
 

   alpha - beta orbital overlaps 
   ----------------------------- 


   alpha      1      2      3      4      5      6      7      8      9     10
    beta      1      2      3      4      5      6      9      8      7     10
 overlap   1.000  1.000  0.959  0.936  0.908  0.999  0.947  0.994  0.947  0.999


   alpha     11     12     13     14     15     16     17     18     19     20
    beta     12     13     11     14     15     16     14     17     19     20
 overlap   0.966  0.994  0.967  0.683  0.795  0.875  0.661  0.811  0.994  0.996


   alpha     21     22     23     24     25     26     27     28     29     30
    beta     21     22     26     27     24     23     25     30     29     28
 overlap   0.994  0.999  0.869  0.932  0.859  0.794  0.782  0.810  0.999  0.810


   alpha     31     32     33     34     35     36     37     38     39     40
    beta     31     32     38     36     34     33     34     37     41     40
 overlap   1.000  0.870  0.751  0.682  0.728  0.559  0.513  0.714  1.000  0.871


   alpha     41     42     43     44     45     46     47     48     49     50
    beta     39     42     43     43     47     45     44     48     49     51
 overlap   0.872  1.000  0.606  0.767  0.939  0.906  0.747  1.000  0.824  0.999


   alpha     51     52     53
    beta     50     52     53
 overlap   0.825  1.000  1.000

     --------------------------
     Expectation value of S2:  
     --------------------------
      <S2> =      3.7511 (Exact =     3.7500)
 

 Parallel integral file used      16 records with       0 large values


 Task  times  cpu:        1.3s     wall:        1.9s
 
 
                                NWChem Input Module
                                -------------------
 
 
 Summary of allocated global arrays
-----------------------------------
  No active global arrays



                         GA Statistics for process    0
                         ------------------------------

       create   destroy   get      put      acc     scatter   gather  read&inc
calls:  221      221      893      752      166        0        0       79     
number of processes/call 1.54e+00 1.27e+00 3.64e+00 0.00e+00 0.00e+00
bytes total:             1.05e+07 3.88e+06 3.73e+06 0.00e+00 0.00e+00 6.32e+02
bytes remote:            7.72e+05 1.23e+05 8.70e+05 0.00e+00 0.00e+00 0.00e+00
Max memory consumed for GA by this process: 1460680 bytes
 
MA_summarize_allocated_blocks: starting scan ...
MA_summarize_allocated_blocks: scan completed: 0 heap blocks, 0 stack blocks
MA usage statistics:

	allocation statistics:
					      heap	     stack
					      ----	     -----
	current number of blocks	         0	         0
	maximum number of blocks	        21	        53
	current total bytes		         0	         0
	maximum total bytes		   2415120	  22513080
	maximum total K-bytes		      2416	     22514
	maximum total M-bytes		         3	        23
 
 
                                     CITATION
                                     --------
                Please cite the following reference when publishing
                           results obtained with NWChem:
 
                 M. Valiev, E.J. Bylaska, N. Govind, K. Kowalski,
              T.P. Straatsma, H.J.J. van Dam, D. Wang, J. Nieplocha,
                        E. Apra, T.L. Windus, W.A. de Jong
                 "NWChem: a comprehensive and scalable open-source
                  solution for large scale molecular simulations"
                      Comput. Phys. Commun. 181, 1477 (2010)
                           doi:10.1016/j.cpc.2010.04.018
 
                                      AUTHORS
                                      -------
          E. Apra, E. J. Bylaska, W. A. de Jong, N. Govind, K. Kowalski,
       T. P. Straatsma, M. Valiev, H. J. J. van Dam, D. Wang, T. L. Windus,
        J. Hammond, J. Autschbach, K. Bhaskaran-Nair, J. Brabec, K. Lopata,
    S. A. Fischer, S. Krishnamoorthy, M. Jacquelin, W. Ma, M. Klemm, O. Villa,
      Y. Chen, V. Anisimov, F. Aquino, S. Hirata, M. T. Hackler, V. Konjkov,
            D. Mejia-Rodriguez, T. Risthaus, M. Malagoli, A. Marenich,
   A. Otero-de-la-Roza, J. Mullin, P. Nichols, R. Peverati, J. Pittner, Y. Zhao,
        P.-D. Fan, A. Fonari, M. J. Williamson, R. J. Harrison, J. R. Rehr,
      M. Dupuis, D. Silverstein, D. M. A. Smith, J. Nieplocha, V. Tipparaju,
    M. Krishnan, B. E. Van Kuiken, A. Vazquez-Mayagoitia, L. Jensen, M. Swart,
      Q. Wu, T. Van Voorhis, A. A. Auer, M. Nooijen, L. D. Crosby, E. Brown,
      G. Cisneros, G. I. Fann, H. Fruchtl, J. Garza, K. Hirao, R. A. Kendall,
      J. A. Nichols, K. Tsemekhman, K. Wolinski, J. Anchell, D. E. Bernholdt,
      P. Borowski, T. Clark, D. Clerc, H. Dachsel, M. J. O. Deegan, K. Dyall,
    D. Elwood, E. Glendening, M. Gutowski, A. C. Hess, J. Jaffe, B. G. Johnson,
     J. Ju, R. Kobayashi, R. Kutteh, Z. Lin, R. Littlefield, X. Long, B. Meng,
      T. Nakajima, S. Niu, L. Pollack, M. Rosing, K. Glaesemann, G. Sandrone,
      M. Stave, H. Taylor, G. Thomas, J. H. van Lenthe, A. T. Wong, Z. Zhang.

 Total times  cpu:        1.4s     wall:        2.1s
