 argument  1 = /storage/home/rabeet/work/nwc/ip13/nwtpss/PH+.nw
  NWChem w/ OpenMP: maximum threads =  1
                                         
                                         
 
 
              Northwest Computational Chemistry Package (NWChem) 6.8
              ------------------------------------------------------
 
 
                    Environmental Molecular Sciences Laboratory
                       Pacific Northwest National Laboratory
                                Richland, WA 99352
 
                              Copyright (c) 1994-2018
                       Pacific Northwest National Laboratory
                            Battelle Memorial Institute
 
             NWChem is an open-source computational chemistry package
                        distributed under the terms of the
                      Educational Community License (ECL) 2.0
             A copy of the license is included with this distribution
                              in the LICENSE.TXT file
 
                                  ACKNOWLEDGMENT
                                  --------------

            This software and its documentation were developed at the
            EMSL at Pacific Northwest National Laboratory, a multiprogram
            national laboratory, operated for the U.S. Department of Energy
            by Battelle under Contract Number DE-AC05-76RL01830. Support
            for this work was provided by the Department of Energy Office
            of Biological and Environmental Research, Office of Basic
            Energy Sciences, and the Office of Advanced Scientific Computing.


           Job information
           ---------------

    hostname        = r8n4.niserhpc.org
    program         = /home/rabeet/nwchem-6.8/bin/LINUX64/nwchem
    date            = Sun Oct 27 10:44:27 2019

    compiled        = Fri_Jun_28_18:24:12_2019
    source          = /home/rabeet/nwchem-6.8
    nwchem branch   = Development
    nwchem revision = N/A
    ga revision     = 5.6.5
    use scalapack   = T
    input           = /storage/home/rabeet/work/nwc/ip13/nwtpss/PH+.nw
    prefix          = PH+.
    data base       = ./PH+.db
    status          = startup
    nproc           =       16
    time left       =     -1s



           Memory information
           ------------------

    heap     =   13107198 doubles =    100.0 Mbytes
    stack    =   13107195 doubles =    100.0 Mbytes
    global   =   26214400 doubles =    200.0 Mbytes (distinct from heap & stack)
    total    =   52428793 doubles =    400.0 Mbytes
    verify   = yes
    hardfail = no 


           Directory information
           ---------------------
 
  0 permanent = .
  0 scratch   = .
 
 
 
 
                                NWChem Input Module
                                -------------------
 
 

 Scaling coordinates for geometry "geometry" by  1.889725989
 (inverse scale =  0.529177249)


          ------
          auto-z
          ------
  no constraints, skipping   0.000000000000000E+000
  no constraints, skipping   0.000000000000000E+000
 
 
                             Geometry "geometry" -> ""
                             -------------------------
 
 Output coordinates in angstroms (scale by  1.889725989 to convert to a.u.)
 
  No.       Tag          Charge          X              Y              Z
 ---- ---------------- ---------- -------------- -------------- --------------
    1 P                   15.0000     0.00000000     0.00000000    -0.08891125
    2 H                    1.0000     0.00000000     0.00000000     1.33366875
 
      Atomic Mass 
      ----------- 
 
      P                 30.973760
      H                  1.007825
 

 Effective nuclear repulsion energy (a.u.)       5.5797626390

            Nuclear Dipole moment (a.u.) 
            ----------------------------
        X                 Y               Z
 ---------------- ---------------- ----------------
     0.0000000000     0.0000000000     0.0000000000
 


                                Z-matrix (autoz)
                                -------- 

 Units are Angstrom for bonds and degrees for angles
 
      Type          Name      I     J     K     L     M      Value
      ----------- --------  ----- ----- ----- ----- ----- ----------
    1 Stretch                  1     2                       1.42258
 
 
            XYZ format geometry
            -------------------
     2
 geometry
 P                     0.00000000     0.00000000    -0.08891125
 H                     0.00000000     0.00000000     1.33366875
 
 ==============================================================================
                                internuclear distances
 ------------------------------------------------------------------------------
       center one      |      center two      | atomic units |  angstroms
 ------------------------------------------------------------------------------
    2 H                |   1 P                |     2.68829  |     1.42258
 ------------------------------------------------------------------------------
                         number of included internuclear distances:          1
 ==============================================================================





 Summary of "ao basis" -> "" (cartesian)
 ------------------------------------------------------------------------------
       Tag                 Description            Shells   Functions and Types
 ---------------- ------------------------------  ------  ---------------------
 *                     6-311++G(3df,3pd)              on all atoms 


 
                                 NWChem DFT Module
                                 -----------------
 
 
                      Basis "ao basis" -> "ao basis" (cartesian)
                      -----
  P (Phosphorous)
  ---------------
            Exponent  Coefficients 
       -------------- ---------------------------------------------------------
  1 S  7.74924000E+04  0.000781
  1 S  1.16058000E+04  0.006068
  1 S  2.64596000E+03  0.031160
  1 S  7.54976000E+02  0.123431
  1 S  2.48755000E+02  0.378209
  1 S  9.11565000E+01  0.563262
 
  2 S  9.11565000E+01  0.160255
  2 S  3.62257000E+01  0.627647
  2 S  1.52113000E+01  0.263849
 
  3 S  4.79417000E+00  1.000000
 
  4 S  1.80793000E+00  1.000000
 
  5 S  3.56816000E-01  1.000000
 
  6 S  1.14783000E-01  1.000000
 
  7 P  3.84843000E+02  0.009206
  7 P  9.05521000E+01  0.069874
  7 P  2.91339000E+01  0.292470
  7 P  1.08862000E+01  0.728103
 
  8 P  4.35259000E+00  0.628349
  8 P  1.77706000E+00  0.428044
 
  9 P  6.97005000E-01  1.000000
 
 10 P  2.53532000E-01  1.000000
 
 11 P  6.84930000E-02  1.000000
 
 12 S  3.48000000E-02  1.000000
 
 13 P  3.48000000E-02  1.000000
 
 14 D  2.20000000E+00  1.000000
 
 15 D  5.50000000E-01  1.000000
 
 16 D  1.37500000E-01  1.000000
 
 17 F  4.50000000E-01  1.000000
 
  H (Hydrogen)
  ------------
            Exponent  Coefficients 
       -------------- ---------------------------------------------------------
  1 S  3.38650000E+01  0.025494
  1 S  5.09479000E+00  0.190373
  1 S  1.15879000E+00  0.852161
 
  2 S  3.25840000E-01  1.000000
 
  3 S  1.02741000E-01  1.000000
 
  4 S  3.60000000E-02  1.000000
 
  5 P  3.00000000E+00  1.000000
 
  6 P  7.50000000E-01  1.000000
 
  7 P  1.87500000E-01  1.000000
 
  8 D  1.00000000E+00  1.000000
 


 Summary of "ao basis" -> "ao basis" (cartesian)
 ------------------------------------------------------------------------------
       Tag                 Description            Shells   Functions and Types
 ---------------- ------------------------------  ------  ---------------------
 P                     6-311++G(3df,3pd)            17       53   7s6p3d1f
 H                     6-311++G(3df,3pd)             8       19   4s3p1d




 Summary of "ao basis" -> "ao basis" (cartesian)
 ------------------------------------------------------------------------------
       Tag                 Description            Shells   Functions and Types
 ---------------- ------------------------------  ------  ---------------------
 P                     6-311++G(3df,3pd)            17       53   7s6p3d1f
 H                     6-311++G(3df,3pd)             8       19   4s3p1d


  Caching 1-el integrals 
 
            General Information
            -------------------
          SCF calculation type: DFT
          Wavefunction type:  spin polarized.
          No. of atoms     :     2
          No. of electrons :    15
           Alpha electrons :     8
            Beta electrons :     7
          Charge           :     1
          Spin multiplicity:     2
          Use of symmetry is: off; symmetry adaption is: off
          Maximum number of iterations: ***
          AO basis - number of functions:    72
                     number of shells:    25
          Convergence on energy requested:  1.00D-06
          Convergence on density requested:  1.00D-05
          Convergence on gradient requested:  5.00D-04
 
              XC Information
              --------------
                  TPSS metaGGA Exchange Functional  1.000          
             TPSS03 metaGGA Correlation Functional  1.000          
 
             Grid Information
             ----------------
          Grid used for XC integration:  medium    
          Radial quadrature: Mura-Knowles        
          Angular quadrature: Lebedev. 
          Tag              B.-S. Rad. Rad. Pts. Rad. Cut. Ang. Pts.
          ---              ---------- --------- --------- ---------
          P                   1.00       88          11.0       590
          H                   0.35       45          11.0       434
          Grid pruning is: on 
          Number of quadrature shells:   133
          Spatial weights used:  Erf1
 
          Convergence Information
          -----------------------
          Convergence aids based upon iterative change in 
          total energy or number of iterations. 
          Levelshifting, if invoked, occurs when the 
          HOMO/LUMO gap drops below (HL_TOL):  1.00D-02
          DIIS, if invoked, will attempt to extrapolate 
          using up to (NFOCK): 10 stored Fock matrices.

                    Damping( 0%)  Levelshifting(0.5)       DIIS
                  --------------- ------------------- ---------------
          dE  on:    start            ASAP                start   
          dE off:    2 iters        *** iters           *** iters 

 
      Screening Tolerance Information
      -------------------------------
          Density screening/tol_rho:  1.00D-10
          AO Gaussian exp screening on grid/accAOfunc:  14
          CD Gaussian exp screening on grid/accCDfunc:  20
          XC Gaussian exp screening on grid/accXCfunc:  20
          Schwarz screening/accCoul:  1.00D-08

 
      Superposition of Atomic Density Guess
      -------------------------------------
 
 Sum of atomic energies:        -341.15029377

 Renormalizing density from      16.00 to     15
 
      Non-variational initial energy
      ------------------------------

 Total energy =    -327.331460
 1-e energy   =    -452.604275
 2-e energy   =     119.693053
 HOMO         =      -0.654880
 LUMO         =      -0.654880
 
   Time after variat. SCF:      0.6
   Time prior to 1st pass:      0.6

 Integral file          = ./PH+.aoints.00
 Record size in doubles =    65536    No. of integs per rec  =    43688
 Max. records in memory =        8    Max. records in file   =  8902867
 No. of bits per label  =        8    No. of bits per value  =       64


 #quartets = 5.238D+04 #integrals = 8.428D+05 #direct =  0.0% #cached =100.0%


File balance: exchanges=     0  moved=     0  time=   0.0


 Grid_pts file          = ./PH+.gridpts.00
 Record size in doubles =  12289        No. of grid_pts per rec  =   3070
 Max. records in memory =      3        Max. recs in file   =  47478088


           Memory utilization after 1st SCF pass: 
           Heap Space remaining (MW):       12.54            12542726
          Stack Space remaining (MW):       13.11            13106484

   convergence    iter        energy       DeltaE   RMS-Dens  Diis-err    time
 ---------------- ----- ----------------- --------- --------- ---------  ------
 d= 0,ls=0.0,diis     1   -341.3806572674 -3.47D+02  1.31D-02  1.66D+00     2.0
                                                     1.27D-02  1.68D+00
 d= 0,ls=0.0,diis     2   -341.4795266585 -9.89D-02  4.47D-03  4.71D-01     2.1
                                                     3.98D-03  4.58D-01
 d= 0,ls=0.0,diis     3   -341.5334729622 -5.39D-02  1.14D-03  2.66D-03     2.2
                                                     9.24D-04  2.30D-03
 d= 0,ls=0.0,diis     4   -341.5350500509 -1.58D-03  3.35D-04  4.84D-04     2.4
                                                     2.68D-04  3.92D-04
 d= 0,ls=0.0,diis     5   -341.5353880244 -3.38D-04  2.96D-05  3.76D-06     2.5
                                                     1.51D-05  2.51D-06
  Resetting Diis
 d= 0,ls=0.0,diis     6   -341.5353894737 -1.45D-06  9.15D-06  1.29D-07     2.6
                                                     8.53D-06  2.09D-07
 d= 0,ls=0.0,diis     7   -341.5353895866 -1.13D-07  5.27D-07  7.21D-10     2.8
                                                     6.23D-07  6.89D-10


         Total DFT energy =     -341.535389586594
      One electron energy =     -477.538164222645
           Coulomb energy =      153.712381814870
          Exchange energy =      -22.747707593169
       Correlation energy =       -0.541662224654
 Nuclear repulsion energy =        5.579762639005

 Numeric. integr. density =       14.999999099394

     Total iterative time =      2.2s


 
                    DFT Final Alpha Molecular Orbital Analysis
                    ------------------------------------------
 
 Vector    1  Occ=1.000000D+00  E=-7.700490D+01
              MO Center=  4.3D-18,  1.8D-17, -8.9D-02, r^2= 4.1D-03
   Bfn.  Coefficient  Atom+Function         Bfn.  Coefficient  Atom+Function  
  ----- ------------  ---------------      ----- ------------  ---------------
     2      0.645138  1 P  s                  1      0.419610  1 P  s          
 
 Vector    2  Occ=1.000000D+00  E=-6.778163D+00
              MO Center=  2.0D-15,  1.4D-14, -8.7D-02, r^2= 9.0D-02
   Bfn.  Coefficient  Atom+Function         Bfn.  Coefficient  Atom+Function  
  ----- ------------  ---------------      ----- ------------  ---------------
     4      0.591591  1 P  s                  3      0.507852  1 P  s          
     2     -0.312717  1 P  s                  5      0.124824  1 P  s          
     1     -0.119875  1 P  s                  6     -0.049773  1 P  s          
 
 Vector    3  Occ=1.000000D+00  E=-4.965460D+00
              MO Center=  1.2D-15, -1.1D-14, -8.9D-02, r^2= 8.3D-02
   Bfn.  Coefficient  Atom+Function         Bfn.  Coefficient  Atom+Function  
  ----- ------------  ---------------      ----- ------------  ---------------
    11      0.680552  1 P  py                 8      0.406690  1 P  py         
    14      0.053022  1 P  py                10     -0.038915  1 P  px         
 
 Vector    4  Occ=1.000000D+00  E=-4.956511D+00
              MO Center= -2.4D-15,  1.3D-15, -8.9D-02, r^2= 8.3D-02
   Bfn.  Coefficient  Atom+Function         Bfn.  Coefficient  Atom+Function  
  ----- ------------  ---------------      ----- ------------  ---------------
    10      0.679953  1 P  px                 7      0.407707  1 P  px         
    13      0.053484  1 P  px                11      0.038880  1 P  py         
 
 Vector    5  Occ=1.000000D+00  E=-4.947421D+00
              MO Center=  7.3D-16,  6.5D-16, -9.1D-02, r^2= 8.3D-02
   Bfn.  Coefficient  Atom+Function         Bfn.  Coefficient  Atom+Function  
  ----- ------------  ---------------      ----- ------------  ---------------
    12      0.681460  1 P  pz                 9      0.408242  1 P  pz         
    15      0.052704  1 P  pz         
 
 Vector    6  Occ=1.000000D+00  E=-9.004485D-01
              MO Center=  4.7D-14,  1.4D-13,  2.4D-01, r^2= 1.1D+00
   Bfn.  Coefficient  Atom+Function         Bfn.  Coefficient  Atom+Function  
  ----- ------------  ---------------      ----- ------------  ---------------
     6      0.604028  1 P  s                  5      0.523561  1 P  s          
     4     -0.348808  1 P  s                  3     -0.202119  1 P  s          
    55      0.120193  2 H  s                 54      0.100575  2 H  s          
     2      0.093339  1 P  s                 41     -0.085281  1 P  dyy        
    43     -0.084885  1 P  dzz               38     -0.074043  1 P  dxx        
 
 Vector    7  Occ=1.000000D+00  E=-6.284102D-01
              MO Center=  4.7D-14,  1.1D-13,  1.6D-01, r^2= 1.6D+00
   Bfn.  Coefficient  Atom+Function         Bfn.  Coefficient  Atom+Function  
  ----- ------------  ---------------      ----- ------------  ---------------
     6      0.439286  1 P  s                 18     -0.384118  1 P  pz         
    55     -0.289250  2 H  s                  5      0.202462  1 P  s          
    15     -0.201332  1 P  pz                54     -0.158249  2 H  s          
    12      0.155609  1 P  pz                 4     -0.140077  1 P  s          
    56     -0.129532  2 H  s                 21     -0.118785  1 P  pz         
 
 Vector    8  Occ=1.000000D+00  E=-5.446263D-01
              MO Center= -5.9D-14,  8.4D-14, -4.6D-02, r^2= 1.5D+00
   Bfn.  Coefficient  Atom+Function         Bfn.  Coefficient  Atom+Function  
  ----- ------------  ---------------      ----- ------------  ---------------
    16      0.756844  1 P  px                19      0.237230  1 P  px         
    13      0.230630  1 P  px                10     -0.203625  1 P  px         
     7     -0.118401  1 P  px                23     -0.053564  1 P  px         
    49     -0.051340  1 P  fxzz              17      0.043279  1 P  py         
    47     -0.032891  1 P  fxyy              40      0.026810  1 P  dxz        
 
 Vector    9  Occ=0.000000D+00  E=-5.198382D-01
              MO Center=  3.5D-14, -6.6D-14, -4.6D-02, r^2= 1.5D+00
   Bfn.  Coefficient  Atom+Function         Bfn.  Coefficient  Atom+Function  
  ----- ------------  ---------------      ----- ------------  ---------------
    17      0.741467  1 P  py                20      0.257674  1 P  py         
    14      0.229925  1 P  py                11     -0.201278  1 P  py         
     8     -0.117788  1 P  py                24     -0.057397  1 P  py         
    52     -0.042825  1 P  fyzz              16     -0.042396  1 P  px         
    50     -0.035271  1 P  fyyy       
 
 Vector   10  Occ=0.000000D+00  E=-2.637935D-01
              MO Center=  1.9D-14,  8.5D-14,  2.2D-01, r^2= 2.9D+00
   Bfn.  Coefficient  Atom+Function         Bfn.  Coefficient  Atom+Function  
  ----- ------------  ---------------      ----- ------------  ---------------
    18      0.893214  1 P  pz                56     -0.718157  2 H  s          
     6      0.640922  1 P  s                 21      0.472615  1 P  pz         
    57     -0.408500  2 H  s                 55     -0.400624  2 H  s          
    22      0.300924  1 P  s                 43     -0.245276  1 P  dzz        
    37     -0.175169  1 P  dzz                5      0.172317  1 P  s          
 
 Vector   11  Occ=0.000000D+00  E=-1.789403D-01
              MO Center=  2.0D-13,  8.6D-13,  4.6D-01, r^2= 7.4D+00
   Bfn.  Coefficient  Atom+Function         Bfn.  Coefficient  Atom+Function  
  ----- ------------  ---------------      ----- ------------  ---------------
    22      1.395410  1 P  s                 56     -0.371427  2 H  s          
     6     -0.319044  1 P  s                  5     -0.289365  1 P  s          
    21      0.265398  1 P  pz                18      0.241050  1 P  pz         
    25      0.206831  1 P  pz                38      0.149997  1 P  dxx        
    57     -0.142899  2 H  s                  4      0.132228  1 P  s          
 
 Vector   12  Occ=0.000000D+00  E=-1.320421D-01
              MO Center= -4.4D-14,  7.1D-15,  2.2D-01, r^2= 3.1D+00
   Bfn.  Coefficient  Atom+Function         Bfn.  Coefficient  Atom+Function  
  ----- ------------  ---------------      ----- ------------  ---------------
    40      1.201506  1 P  dxz               34      0.458272  1 P  dxz        
    23      0.256455  1 P  px                16     -0.204458  1 P  px         
    64      0.153969  2 H  px                28      0.104368  1 P  dxz        
    42      0.068693  1 P  dyz               49      0.063283  1 P  fxzz       
    19     -0.062397  1 P  px                10      0.031044  1 P  px         
 
 Vector   13  Occ=0.000000D+00  E=-1.280855D-01
              MO Center= -1.6D-14, -1.1D-13,  2.4D-01, r^2= 3.2D+00
   Bfn.  Coefficient  Atom+Function         Bfn.  Coefficient  Atom+Function  
  ----- ------------  ---------------      ----- ------------  ---------------
    42      1.182980  1 P  dyz               36      0.443684  1 P  dyz        
    24      0.287872  1 P  py                17     -0.218117  1 P  py         
    65      0.168017  2 H  py                30      0.103809  1 P  dyz        
    20     -0.073142  1 P  py                40     -0.067629  1 P  dxz        
    52      0.061635  1 P  fyzz              11      0.033149  1 P  py         
 
 Vector   14  Occ=0.000000D+00  E=-1.225644D-01
              MO Center=  2.3D-14,  2.1D-13, -8.2D-02, r^2= 2.8D+00
   Bfn.  Coefficient  Atom+Function         Bfn.  Coefficient  Atom+Function  
  ----- ------------  ---------------      ----- ------------  ---------------
    39      1.402473  1 P  dxy               33      0.504875  1 P  dxy        
    27      0.113821  1 P  dxy               38     -0.080475  1 P  dxx        
    41      0.080477  1 P  dyy               48      0.031530  1 P  fxyz       
    32     -0.028971  1 P  dxx               35      0.028969  1 P  dyy        
 
 Vector   15  Occ=0.000000D+00  E=-1.210750D-01
              MO Center=  2.6D-13,  5.6D-13, -4.2D-01, r^2= 1.0D+01
   Bfn.  Coefficient  Atom+Function         Bfn.  Coefficient  Atom+Function  
  ----- ------------  ---------------      ----- ------------  ---------------
    22      0.963460  1 P  s                 25     -0.773155  1 P  pz         
    57     -0.614474  2 H  s                  6     -0.223260  1 P  s          
    18      0.218194  1 P  pz                21      0.209332  1 P  pz         
    56     -0.203035  2 H  s                 38     -0.132673  1 P  dxx        
    15      0.111935  1 P  pz                41      0.111963  1 P  dyy        
 
 Vector   16  Occ=0.000000D+00  E=-1.165588D-01
              MO Center=  1.4D-12, -1.3D-13, -2.5D-01, r^2= 1.1D+01
   Bfn.  Coefficient  Atom+Function         Bfn.  Coefficient  Atom+Function  
  ----- ------------  ---------------      ----- ------------  ---------------
    23      1.120577  1 P  px                40     -0.317092  1 P  dxz        
    16     -0.264565  1 P  px                19     -0.145230  1 P  px         
    34     -0.132646  1 P  dxz               13     -0.120030  1 P  px         
    10      0.071696  1 P  px                24      0.063963  1 P  py         
     7      0.041705  1 P  px                28     -0.028059  1 P  dxz        
 
 Vector   17  Occ=0.000000D+00  E=-1.164107D-01
              MO Center= -1.8D-12, -1.1D-12, -1.1D-01, r^2= 3.0D+00
   Bfn.  Coefficient  Atom+Function         Bfn.  Coefficient  Atom+Function  
  ----- ------------  ---------------      ----- ------------  ---------------
    41     -0.716155  1 P  dyy               38      0.666594  1 P  dxx        
    35     -0.265026  1 P  dyy               32      0.226302  1 P  dxx        
    25     -0.197353  1 P  pz                39      0.158680  1 P  dxy        
    29     -0.063171  1 P  dyy               33      0.056384  1 P  dxy        
    26      0.049120  1 P  dxx               22      0.042854  1 P  s          
 
 Vector   18  Occ=0.000000D+00  E=-1.129579D-01
              MO Center= -2.2D-15, -3.2D-13, -2.7D-01, r^2= 1.1D+01
   Bfn.  Coefficient  Atom+Function         Bfn.  Coefficient  Atom+Function  
  ----- ------------  ---------------      ----- ------------  ---------------
    24      1.123201  1 P  py                42     -0.351696  1 P  dyz        
    17     -0.247011  1 P  py                20     -0.160671  1 P  py         
    36     -0.141548  1 P  dyz               14     -0.126650  1 P  py         
    11      0.072827  1 P  py                23     -0.064121  1 P  px         
     8      0.042635  1 P  py                52     -0.033678  1 P  fyzz       
 
 Vector   19  Occ=0.000000D+00  E=-4.632564D-02
              MO Center=  1.1D-14,  3.2D-14,  7.7D-01, r^2= 1.6D+01
   Bfn.  Coefficient  Atom+Function         Bfn.  Coefficient  Atom+Function  
  ----- ------------  ---------------      ----- ------------  ---------------
    57      7.542894  2 H  s                 22     -6.675892  1 P  s          
    25     -3.688000  1 P  pz                56     -1.211069  2 H  s          
     6      0.930835  1 P  s                 21      0.859704  1 P  pz         
    18      0.646452  1 P  pz                55     -0.270354  2 H  s          
    43      0.214230  1 P  dzz               66      0.203613  2 H  pz         
 
 Vector   20  Occ=0.000000D+00  E= 3.437954D-02
              MO Center=  8.0D-14,  6.7D-13,  1.0D+00, r^2= 8.8D+00
   Bfn.  Coefficient  Atom+Function         Bfn.  Coefficient  Atom+Function  
  ----- ------------  ---------------      ----- ------------  ---------------
    56      3.584366  2 H  s                 22     -2.161923  1 P  s          
     6     -2.020745  1 P  s                 18     -1.815157  1 P  pz         
    25     -1.040862  1 P  pz                41      0.938000  1 P  dyy        
    38      0.917392  1 P  dxx               21     -0.631803  1 P  pz         
    46      0.542359  1 P  fxxz              51      0.541194  1 P  fyyz       
 
 Vector   21  Occ=0.000000D+00  E= 6.412796D-02
              MO Center=  2.0D-12,  6.5D-12, -1.5D+00, r^2= 1.0D+01
   Bfn.  Coefficient  Atom+Function         Bfn.  Coefficient  Atom+Function  
  ----- ------------  ---------------      ----- ------------  ---------------
    21      4.402846  1 P  pz                56     -3.488603  2 H  s          
    25     -2.616555  1 P  pz                 6      2.492260  1 P  s          
    57      1.316520  2 H  s                 66      0.698697  2 H  pz         
    38     -0.672739  1 P  dxx               41     -0.673403  1 P  dyy        
    18     -0.437427  1 P  pz                43      0.438687  1 P  dzz        
 
 Vector   22  Occ=0.000000D+00  E= 6.550312D-02
              MO Center= -2.5D-12, -1.1D-13, -9.3D-02, r^2= 1.2D+01
   Bfn.  Coefficient  Atom+Function         Bfn.  Coefficient  Atom+Function  
  ----- ------------  ---------------      ----- ------------  ---------------
    19      2.969606  1 P  px                16     -2.192565  1 P  px         
    23     -2.120861  1 P  px                49      0.613800  1 P  fxzz       
    44      0.598275  1 P  fxxx              47      0.600801  1 P  fxyy       
    13      0.234305  1 P  px                20      0.166679  1 P  py         
    17     -0.123040  1 P  py                24     -0.119047  1 P  py         
 
 Vector   23  Occ=0.000000D+00  E= 6.632845D-02
              MO Center=  3.9D-13, -6.8D-12, -9.4D-02, r^2= 1.2D+01
   Bfn.  Coefficient  Atom+Function         Bfn.  Coefficient  Atom+Function  
  ----- ------------  ---------------      ----- ------------  ---------------
    20      2.969192  1 P  py                17     -2.208709  1 P  py         
    24     -2.117499  1 P  py                52      0.614948  1 P  fyzz       
    50      0.604654  1 P  fyyy              45      0.599354  1 P  fxxy       
    14      0.234582  1 P  py                19     -0.166659  1 P  px         
    16      0.123998  1 P  px                23      0.118847  1 P  px         
 
 Vector   24  Occ=0.000000D+00  E= 1.602422D-01
              MO Center= -1.5D-14, -1.8D-13,  3.3D-01, r^2= 7.2D+00
   Bfn.  Coefficient  Atom+Function         Bfn.  Coefficient  Atom+Function  
  ----- ------------  ---------------      ----- ------------  ---------------
    22      4.838847  1 P  s                 57     -4.570440  2 H  s          
    56      4.349347  2 H  s                 21     -3.578530  1 P  pz         
    43     -3.109733  1 P  dzz               25      2.809168  1 P  pz         
    38     -1.235757  1 P  dxx               41     -1.224180  1 P  dyy        
    55      0.766958  2 H  s                 18     -0.751804  1 P  pz         
 
 Vector   25  Occ=0.000000D+00  E= 2.069331D-01
              MO Center=  6.1D-14,  6.5D-13,  1.0D+00, r^2= 7.3D+00
   Bfn.  Coefficient  Atom+Function         Bfn.  Coefficient  Atom+Function  
  ----- ------------  ---------------      ----- ------------  ---------------
    56      5.864003  2 H  s                 57     -5.389801  2 H  s          
    22      4.526790  1 P  s                 25      2.466526  1 P  pz         
    21     -2.332006  1 P  pz                 6     -2.083973  1 P  s          
    55     -1.834961  2 H  s                 18     -1.104460  1 P  pz         
    66     -1.060586  2 H  pz                38     -0.875613  1 P  dxx        
 
 Vector   26  Occ=0.000000D+00  E= 2.143497D-01
              MO Center=  3.8D-14, -6.8D-13,  9.5D-01, r^2= 3.6D+00
   Bfn.  Coefficient  Atom+Function         Bfn.  Coefficient  Atom+Function  
  ----- ------------  ---------------      ----- ------------  ---------------
    42      1.980191  1 P  dyz               65     -1.811001  2 H  py         
    17      0.912503  1 P  py                20      0.896273  1 P  py         
    52     -0.396618  1 P  fyzz              24     -0.260654  1 P  py         
    50     -0.257989  1 P  fyyy              45     -0.247012  1 P  fxxy       
    14     -0.185702  1 P  py                36      0.179022  1 P  dyz        
 
 Vector   27  Occ=0.000000D+00  E= 2.150554D-01
              MO Center= -1.1D-13, -6.9D-15,  9.6D-01, r^2= 3.6D+00
   Bfn.  Coefficient  Atom+Function         Bfn.  Coefficient  Atom+Function  
  ----- ------------  ---------------      ----- ------------  ---------------
    40      1.967867  1 P  dxz               64     -1.810999  2 H  px         
    16      0.896592  1 P  px                19      0.899603  1 P  px         
    49     -0.394802  1 P  fxzz              23     -0.264602  1 P  px         
    47     -0.249206  1 P  fxyy              44     -0.247748  1 P  fxxx       
    13     -0.184155  1 P  px                34      0.175748  1 P  dxz        
 
 Vector   28  Occ=0.000000D+00  E= 4.589170D-01
              MO Center= -3.5D-14, -2.1D-14,  2.4D-01, r^2= 6.3D+00
   Bfn.  Coefficient  Atom+Function         Bfn.  Coefficient  Atom+Function  
  ----- ------------  ---------------      ----- ------------  ---------------
    56    -11.226747  2 H  s                  6     10.284468  1 P  s          
    18      8.819603  1 P  pz                21      4.616700  1 P  pz         
    66      4.056250  2 H  pz                43      2.948826  1 P  dzz        
    51     -2.576984  1 P  fyyz              46     -2.563692  1 P  fxxz       
    53     -2.406358  1 P  fzzz              57      2.065189  2 H  s          
 
 Vector   29  Occ=0.000000D+00  E= 4.945491D-01
              MO Center= -5.7D-15, -2.4D-14, -8.7D-02, r^2= 2.0D+00
   Bfn.  Coefficient  Atom+Function         Bfn.  Coefficient  Atom+Function  
  ----- ------------  ---------------      ----- ------------  ---------------
    33      1.693880  1 P  dxy               39     -1.307794  1 P  dxy        
    27      0.253336  1 P  dxy               32     -0.097227  1 P  dxx        
    35      0.097240  1 P  dyy               38      0.075078  1 P  dxx        
    41     -0.075063  1 P  dyy               48      0.046059  1 P  fxyz       
 
 Vector   30  Occ=0.000000D+00  E= 4.984525D-01
              MO Center=  7.2D-16, -2.4D-14, -8.7D-02, r^2= 2.0D+00
   Bfn.  Coefficient  Atom+Function         Bfn.  Coefficient  Atom+Function  
  ----- ------------  ---------------      ----- ------------  ---------------
    35     -0.855457  1 P  dyy               32      0.838610  1 P  dxx        
    41      0.677457  1 P  dyy               38     -0.626271  1 P  dxx        
    56      0.301164  2 H  s                  6     -0.255085  1 P  s          
    18     -0.224523  1 P  pz                33      0.194488  1 P  dxy        
    39     -0.149675  1 P  dxy               29     -0.131113  1 P  dyy        
 
 Vector   31  Occ=0.000000D+00  E= 4.993766D-01
              MO Center=  1.3D-15,  1.6D-14, -1.4D-01, r^2= 2.0D+00
   Bfn.  Coefficient  Atom+Function         Bfn.  Coefficient  Atom+Function  
  ----- ------------  ---------------      ----- ------------  ---------------
    36      1.653580  1 P  dyz               42     -1.473857  1 P  dyz        
    17     -0.402308  1 P  py                30      0.249023  1 P  dyz        
    52      0.232105  1 P  fyzz              62      0.124011  2 H  py         
    45      0.121927  1 P  fxxy              65      0.118932  2 H  py         
    50      0.118167  1 P  fyyy              14      0.111907  1 P  py         
 
 Vector   32  Occ=0.000000D+00  E= 4.998659D-01
              MO Center= -1.1D-14,  7.2D-15, -1.4D-01, r^2= 2.1D+00
   Bfn.  Coefficient  Atom+Function         Bfn.  Coefficient  Atom+Function  
  ----- ------------  ---------------      ----- ------------  ---------------
    34      1.653560  1 P  dxz               40     -1.481478  1 P  dxz        
    16     -0.431684  1 P  px                28      0.245745  1 P  dxz        
    49      0.244509  1 P  fxzz              44      0.131718  1 P  fxxx       
    47      0.128313  1 P  fxyy              13      0.122242  1 P  px         
    61      0.122450  2 H  px                64      0.119860  2 H  px         
 
 Vector   33  Occ=0.000000D+00  E= 5.939714D-01
              MO Center= -4.4D-16, -5.3D-14,  3.0D-01, r^2= 4.7D+00
   Bfn.  Coefficient  Atom+Function         Bfn.  Coefficient  Atom+Function  
  ----- ------------  ---------------      ----- ------------  ---------------
    18      3.859524  1 P  pz                56      3.654346  2 H  s          
    21     -3.294571  1 P  pz                 6     -2.430930  1 P  s          
    46     -2.086967  1 P  fxxz              51     -2.094718  1 P  fyyz       
    53     -2.032077  1 P  fzzz              66     -1.922299  2 H  pz         
    15     -1.772570  1 P  pz                25      1.713017  1 P  pz         
 
 Vector   34  Occ=0.000000D+00  E= 6.555538D-01
              MO Center=  1.5D-14, -2.8D-14, -8.3D-02, r^2= 4.9D+00
   Bfn.  Coefficient  Atom+Function         Bfn.  Coefficient  Atom+Function  
  ----- ------------  ---------------      ----- ------------  ---------------
    16      9.001013  1 P  px                49     -3.773140  1 P  fxzz       
    44     -3.716218  1 P  fxxx              47     -3.714237  1 P  fxyy       
    13     -3.065846  1 P  px                19     -2.436894  1 P  px         
    23      1.137313  1 P  px                17      0.514973  1 P  py         
    52     -0.215871  1 P  fyzz              10      0.214298  1 P  px         
 
 Vector   35  Occ=0.000000D+00  E= 6.598699D-01
              MO Center= -2.5D-14,  3.0D-13, -8.2D-02, r^2= 4.9D+00
   Bfn.  Coefficient  Atom+Function         Bfn.  Coefficient  Atom+Function  
  ----- ------------  ---------------      ----- ------------  ---------------
    17      8.976258  1 P  py                52     -3.755331  1 P  fyzz       
    50     -3.709437  1 P  fyyy              45     -3.682193  1 P  fxxy       
    14     -3.063241  1 P  py                20     -2.429868  1 P  py         
    24      1.132530  1 P  py                16     -0.513551  1 P  px         
    11      0.215636  1 P  py                47      0.215369  1 P  fxyy       
 
 Vector   36  Occ=0.000000D+00  E= 7.803066D-01
              MO Center= -3.3D-15, -3.0D-15,  1.0D-01, r^2= 3.9D+00
   Bfn.  Coefficient  Atom+Function         Bfn.  Coefficient  Atom+Function  
  ----- ------------  ---------------      ----- ------------  ---------------
    18     10.843964  1 P  pz                56     -5.320928  2 H  s          
    53     -4.244924  1 P  fzzz              46     -3.288559  1 P  fxxz       
    51     -3.301276  1 P  fyyz               6      2.946150  1 P  s          
    15     -2.945848  1 P  pz                66      2.821701  2 H  pz         
    57      1.415546  2 H  s                 43      1.407028  1 P  dzz        
 
 Vector   37  Occ=0.000000D+00  E= 8.449611D-01
              MO Center=  3.2D-14, -3.8D-13,  7.3D-02, r^2= 4.3D+00
   Bfn.  Coefficient  Atom+Function         Bfn.  Coefficient  Atom+Function  
  ----- ------------  ---------------      ----- ------------  ---------------
     6     10.315219  1 P  s                 43     -4.471137  1 P  dzz        
     5     -4.336544  1 P  s                 38     -3.620404  1 P  dxx        
    41     -3.620470  1 P  dyy               22      3.322075  1 P  s          
    56      3.126529  2 H  s                 57     -2.712721  2 H  s          
    21     -2.028894  1 P  pz                25      1.536077  1 P  pz         
 
 Vector   38  Occ=0.000000D+00  E= 9.535298D-01
              MO Center= -1.3D-14,  9.5D-15, -7.4D-02, r^2= 1.4D+00
   Bfn.  Coefficient  Atom+Function         Bfn.  Coefficient  Atom+Function  
  ----- ------------  ---------------      ----- ------------  ---------------
    48      3.798580  1 P  fxyz              46     -0.217679  1 P  fxxz       
    51      0.217708  1 P  fyyz              68      0.095571  2 H  dxy        
    33     -0.027923  1 P  dxy        
 
 Vector   39  Occ=0.000000D+00  E= 9.539033D-01
              MO Center= -6.3D-15, -8.3D-14, -8.9D-02, r^2= 1.4D+00
   Bfn.  Coefficient  Atom+Function         Bfn.  Coefficient  Atom+Function  
  ----- ------------  ---------------      ----- ------------  ---------------
    47      2.386906  1 P  fxyy              44     -0.728576  1 P  fxxx       
    45     -0.401438  1 P  fxxy              50      0.137639  1 P  fyyy       
    16     -0.073859  1 P  px         
 
 Vector   40  Occ=0.000000D+00  E= 9.569243D-01
              MO Center= -6.7D-15, -3.7D-14, -8.9D-02, r^2= 1.4D+00
   Bfn.  Coefficient  Atom+Function         Bfn.  Coefficient  Atom+Function  
  ----- ------------  ---------------      ----- ------------  ---------------
    45      2.377567  1 P  fxxy              50     -0.737554  1 P  fyyy       
    47      0.401902  1 P  fxyy              44     -0.137114  1 P  fxxx       
    17     -0.088360  1 P  py                42     -0.029669  1 P  dyz        
    65      0.028739  2 H  py                14      0.027877  1 P  py         
 
 Vector   41  Occ=0.000000D+00  E= 9.593113D-01
              MO Center= -9.0D-15, -3.5D-14, -7.2D-02, r^2= 1.4D+00
   Bfn.  Coefficient  Atom+Function         Bfn.  Coefficient  Atom+Function  
  ----- ------------  ---------------      ----- ------------  ---------------
    51     -1.924129  1 P  fyyz              46      1.873505  1 P  fxxz       
    48      0.435279  1 P  fxyz               6     -0.089913  1 P  s          
    67      0.049228  2 H  dxx               70     -0.047680  2 H  dyy        
    43      0.042625  1 P  dzz               41      0.033002  1 P  dyy        
    38      0.028909  1 P  dxx               22     -0.027032  1 P  s          
 
 Vector   42  Occ=0.000000D+00  E= 1.081771D+00
              MO Center=  1.4D-15, -2.2D-14,  2.3D-01, r^2= 2.1D+00
   Bfn.  Coefficient  Atom+Function         Bfn.  Coefficient  Atom+Function  
  ----- ------------  ---------------      ----- ------------  ---------------
    52      2.187888  1 P  fyzz              42      1.136483  1 P  dyz        
    65     -1.106424  2 H  py                50     -0.835012  1 P  fyyy       
    45     -0.773584  1 P  fxxy              17      0.677632  1 P  py         
    20      0.440617  1 P  py                62      0.341989  2 H  py         
    36     -0.233452  1 P  dyz               14     -0.192776  1 P  py         
 
 Vector   43  Occ=0.000000D+00  E= 1.086667D+00
              MO Center= -8.7D-15, -1.0D-15,  2.3D-01, r^2= 2.1D+00
   Bfn.  Coefficient  Atom+Function         Bfn.  Coefficient  Atom+Function  
  ----- ------------  ---------------      ----- ------------  ---------------
    49      2.187663  1 P  fxzz              40      1.139557  1 P  dxz        
    64     -1.109669  2 H  px                44     -0.829992  1 P  fxxx       
    47     -0.780094  1 P  fxyy              16      0.684973  1 P  px         
    19      0.437062  1 P  px                61      0.343261  2 H  px         
    34     -0.232647  1 P  dxz               13     -0.197037  1 P  px         
 
 Vector   44  Occ=0.000000D+00  E= 1.377231D+00
              MO Center=  2.3D-15, -1.2D-14, -8.4D-02, r^2= 2.9D+00
   Bfn.  Coefficient  Atom+Function         Bfn.  Coefficient  Atom+Function  
  ----- ------------  ---------------      ----- ------------  ---------------
    18     10.148932  1 P  pz                 6      7.750308  1 P  s          
    56     -6.820256  2 H  s                 46     -4.810511  1 P  fxxz       
    51     -4.792089  1 P  fyyz              55     -3.869816  2 H  s          
    66      3.237414  2 H  pz                21      2.674981  1 P  pz         
    15     -2.602638  1 P  pz                43      2.319802  1 P  dzz        
 
 Vector   45  Occ=0.000000D+00  E= 1.639207D+00
              MO Center=  1.7D-15, -9.1D-15,  1.0D+00, r^2= 1.5D+00
   Bfn.  Coefficient  Atom+Function         Bfn.  Coefficient  Atom+Function  
  ----- ------------  ---------------      ----- ------------  ---------------
    62      1.333339  2 H  py                52     -0.991675  1 P  fyzz       
    17     -0.852998  1 P  py                45      0.733990  1 P  fxxy       
    50      0.732918  1 P  fyyy              65     -0.724544  2 H  py         
    20      0.430993  1 P  py                36     -0.273733  1 P  dyz        
    42      0.196694  1 P  dyz               14      0.194261  1 P  py         
 
 Vector   46  Occ=0.000000D+00  E= 1.645362D+00
              MO Center= -1.8D-15,  2.7D-15,  1.0D+00, r^2= 1.5D+00
   Bfn.  Coefficient  Atom+Function         Bfn.  Coefficient  Atom+Function  
  ----- ------------  ---------------      ----- ------------  ---------------
    61      1.332821  2 H  px                49     -1.011200  1 P  fxzz       
    16     -0.817003  1 P  px                64     -0.723731  2 H  px         
    44      0.716371  1 P  fxxx              47      0.707344  1 P  fxyy       
    19      0.423698  1 P  px                34     -0.272378  1 P  dxz        
    40      0.196056  1 P  dxz               13      0.188654  1 P  px         
 
 Vector   47  Occ=0.000000D+00  E= 1.666726D+00
              MO Center=  2.5D-15,  6.4D-16,  1.1D+00, r^2= 2.4D+00
   Bfn.  Coefficient  Atom+Function         Bfn.  Coefficient  Atom+Function  
  ----- ------------  ---------------      ----- ------------  ---------------
    55      5.698016  2 H  s                  6     -3.341871  1 P  s          
    18     -2.856365  1 P  pz                54     -1.891571  2 H  s          
    66     -1.814306  2 H  pz                21     -1.120487  1 P  pz         
    56      1.114075  2 H  s                 15      0.973843  1 P  pz         
    72     -0.932445  2 H  dzz               43     -0.864318  1 P  dzz        
 
 Vector   48  Occ=0.000000D+00  E= 2.115790D+00
              MO Center=  7.7D-15,  1.5D-15,  9.0D-01, r^2= 1.9D+00
   Bfn.  Coefficient  Atom+Function         Bfn.  Coefficient  Atom+Function  
  ----- ------------  ---------------      ----- ------------  ---------------
    18      6.210562  1 P  pz                55     -3.670606  2 H  s          
    46     -3.416100  1 P  fxxz              51     -3.402128  1 P  fyyz       
     6      3.085153  1 P  s                 53     -2.132826  1 P  fzzz       
    63      1.212653  2 H  pz                56      1.131507  2 H  s          
    38     -1.109256  1 P  dxx               41     -1.109852  1 P  dyy        
 
 Vector   49  Occ=0.000000D+00  E= 2.175827D+00
              MO Center= -3.9D-15,  1.3D-13, -7.6D-02, r^2= 2.1D+00
   Bfn.  Coefficient  Atom+Function         Bfn.  Coefficient  Atom+Function  
  ----- ------------  ---------------      ----- ------------  ---------------
    17      8.949487  1 P  py                45     -5.072718  1 P  fxxy       
    50     -5.067396  1 P  fyyy              52     -5.080631  1 P  fyzz       
    20     -1.300617  1 P  py                14     -0.982102  1 P  py         
    24      0.553544  1 P  py                16     -0.512097  1 P  px         
    11     -0.411521  1 P  py                44      0.290267  1 P  fxxx       
 
 Vector   50  Occ=0.000000D+00  E= 2.205112D+00
              MO Center= -6.5D-15,  1.1D-14, -7.5D-02, r^2= 2.1D+00
   Bfn.  Coefficient  Atom+Function         Bfn.  Coefficient  Atom+Function  
  ----- ------------  ---------------      ----- ------------  ---------------
    16      8.927742  1 P  px                44     -5.066240  1 P  fxxx       
    47     -5.046130  1 P  fxyy              49     -5.059014  1 P  fxzz       
    19     -1.293201  1 P  px                13     -0.974815  1 P  px         
    23      0.550764  1 P  px                17      0.510854  1 P  py         
    10     -0.410431  1 P  px                45     -0.292219  1 P  fxxy       
 
 Vector   51  Occ=0.000000D+00  E= 2.343387D+00
              MO Center=  2.2D-15,  4.2D-15, -3.1D-02, r^2= 2.2D+00
   Bfn.  Coefficient  Atom+Function         Bfn.  Coefficient  Atom+Function  
  ----- ------------  ---------------      ----- ------------  ---------------
    18     11.755537  1 P  pz                53     -6.704001  1 P  fzzz       
    46     -5.462429  1 P  fxxz              51     -5.455168  1 P  fyyz       
    56     -2.772611  2 H  s                 15     -2.049051  1 P  pz         
    66      1.650957  2 H  pz                63     -1.493906  2 H  pz         
     6      1.258298  1 P  s                 43      0.986661  1 P  dzz        
 
 Vector   52  Occ=0.000000D+00  E= 2.814358D+00
              MO Center= -1.4D-15, -6.1D-15,  1.3D+00, r^2= 6.5D-01
   Bfn.  Coefficient  Atom+Function         Bfn.  Coefficient  Atom+Function  
  ----- ------------  ---------------      ----- ------------  ---------------
    68      1.756747  2 H  dxy               48     -0.999576  1 P  fxyz       
    39     -0.164891  1 P  dxy               27     -0.133066  1 P  dxy        
    67     -0.100794  2 H  dxx               70      0.100794  2 H  dyy        
    46      0.057353  1 P  fxxz              51     -0.057349  1 P  fyyz       
    33      0.026410  1 P  dxy        
 
 Vector   53  Occ=0.000000D+00  E= 2.814765D+00
              MO Center= -1.8D-15, -5.8D-15,  1.3D+00, r^2= 6.6D-01
   Bfn.  Coefficient  Atom+Function         Bfn.  Coefficient  Atom+Function  
  ----- ------------  ---------------      ----- ------------  ---------------
    70     -0.888298  2 H  dyy               67      0.868272  2 H  dxx        
    46     -0.503191  1 P  fxxz              51      0.499037  1 P  fyyz       
    68      0.201568  2 H  dxy               48     -0.115006  1 P  fxyz       
    38     -0.089615  1 P  dxx               41      0.075611  1 P  dyy        
    26     -0.068731  1 P  dxx               29      0.065142  1 P  dyy        
 
 Vector   54  Occ=0.000000D+00  E= 2.936445D+00
              MO Center=  2.6D-14, -1.2D-13, -2.1D-02, r^2= 1.7D+00
   Bfn.  Coefficient  Atom+Function         Bfn.  Coefficient  Atom+Function  
  ----- ------------  ---------------      ----- ------------  ---------------
     5      8.424767  1 P  s                  6      7.208819  1 P  s          
    37     -4.911572  1 P  dzz               35     -4.788395  1 P  dyy        
    32     -4.758591  1 P  dxx               43     -2.430148  1 P  dzz        
     4     -2.290055  1 P  s                 38     -2.182825  1 P  dxx        
    41     -2.172846  1 P  dyy               22      1.473725  1 P  s          
 
 Vector   55  Occ=0.000000D+00  E= 3.166907D+00
              MO Center=  5.6D-16, -1.1D-14,  8.1D-01, r^2= 1.2D+00
   Bfn.  Coefficient  Atom+Function         Bfn.  Coefficient  Atom+Function  
  ----- ------------  ---------------      ----- ------------  ---------------
    71      1.702896  2 H  dyz               52      1.468974  1 P  fyzz       
    30      0.945786  1 P  dyz               42      0.667479  1 P  dyz        
    65     -0.489482  2 H  py                17     -0.320181  1 P  py         
    20      0.223935  1 P  py                36     -0.126158  1 P  dyz        
    45      0.101372  1 P  fxxy              50      0.101325  1 P  fyyy       
 
 Vector   56  Occ=0.000000D+00  E= 3.176779D+00
              MO Center= -3.2D-15, -2.7D-17,  8.1D-01, r^2= 1.2D+00
   Bfn.  Coefficient  Atom+Function         Bfn.  Coefficient  Atom+Function  
  ----- ------------  ---------------      ----- ------------  ---------------
    69      1.710119  2 H  dxz               49      1.488761  1 P  fxzz       
    28      0.935551  1 P  dxz               40      0.665470  1 P  dxz        
    64     -0.489433  2 H  px                16     -0.338666  1 P  px         
    19      0.226306  1 P  px                34     -0.114843  1 P  dxz        
    44      0.111010  1 P  fxxx              47      0.111208  1 P  fxyy       
 
 Vector   57  Occ=0.000000D+00  E= 3.618926D+00
              MO Center= -3.2D-15, -1.5D-14, -7.7D-02, r^2= 5.3D-01
   Bfn.  Coefficient  Atom+Function         Bfn.  Coefficient  Atom+Function  
  ----- ------------  ---------------      ----- ------------  ---------------
    27      1.941785  1 P  dxy               33     -1.320799  1 P  dxy        
    39      0.422953  1 P  dxy               68      0.147434  2 H  dxy        
    26     -0.112023  1 P  dxx               29      0.112055  1 P  dyy        
    32      0.076268  1 P  dxx               35     -0.076151  1 P  dyy        
    48     -0.070637  1 P  fxyz       
 
 Vector   58  Occ=0.000000D+00  E= 3.620748D+00
              MO Center= -2.2D-15, -1.0D-14, -7.4D-02, r^2= 5.3D-01
   Bfn.  Coefficient  Atom+Function         Bfn.  Coefficient  Atom+Function  
  ----- ------------  ---------------      ----- ------------  ---------------
    29     -0.995326  1 P  dyy               26      0.943683  1 P  dxx        
    32     -0.736100  1 P  dxx               35      0.583639  1 P  dyy        
    41     -0.244171  1 P  dyy               27      0.223762  1 P  dxy        
     5      0.188751  1 P  s                  6      0.177081  1 P  s          
    38      0.177812  1 P  dxx               33     -0.152297  1 P  dxy        
 
 Vector   59  Occ=0.000000D+00  E= 3.725149D+00
              MO Center= -4.0D-15,  1.0D-15,  1.0D+00, r^2= 1.0D+00
   Bfn.  Coefficient  Atom+Function         Bfn.  Coefficient  Atom+Function  
  ----- ------------  ---------------      ----- ------------  ---------------
    18      3.249537  1 P  pz                55     -2.807212  2 H  s          
    56     -2.763767  2 H  s                 66      1.661532  2 H  pz         
     6      1.618688  1 P  s                 21      1.363464  1 P  pz         
    43      1.255672  1 P  dzz               46     -1.159083  1 P  fxxz       
    51     -1.156327  1 P  fyyz              37      1.065146  1 P  dzz        
 
 Vector   60  Occ=0.000000D+00  E= 3.908027D+00
              MO Center=  1.5D-16, -1.5D-14,  3.0D-01, r^2= 8.9D-01
   Bfn.  Coefficient  Atom+Function         Bfn.  Coefficient  Atom+Function  
  ----- ------------  ---------------      ----- ------------  ---------------
    30      1.727434  1 P  dyz               36     -1.586587  1 P  dyz        
    71     -1.214250  2 H  dyz               52     -1.142438  1 P  fyzz       
    62      0.275604  2 H  py                17      0.226301  1 P  py         
    42      0.179370  1 P  dyz               65      0.148558  2 H  py         
    28     -0.098637  1 P  dxz               34      0.090595  1 P  dxz        
 
 Vector   61  Occ=0.000000D+00  E= 3.923193D+00
              MO Center= -2.3D-15, -1.6D-15,  2.9D-01, r^2= 8.8D-01
   Bfn.  Coefficient  Atom+Function         Bfn.  Coefficient  Atom+Function  
  ----- ------------  ---------------      ----- ------------  ---------------
    28      1.733655  1 P  dxz               34     -1.584404  1 P  dxz        
    69     -1.203717  2 H  dxz               49     -1.130103  1 P  fxzz       
    61      0.274342  2 H  px                16      0.219223  1 P  px         
    40      0.182904  1 P  dxz               64      0.146121  2 H  px         
    30      0.098993  1 P  dyz               36     -0.090470  1 P  dyz        
 
 Vector   62  Occ=0.000000D+00  E= 4.186902D+00
              MO Center=  2.0D-15, -1.3D-15,  1.2D+00, r^2= 1.1D+00
   Bfn.  Coefficient  Atom+Function         Bfn.  Coefficient  Atom+Function  
  ----- ------------  ---------------      ----- ------------  ---------------
    55      5.717201  2 H  s                 18     -4.216862  1 P  pz         
     6     -3.211328  1 P  s                 67     -1.673059  2 H  dxx        
    70     -1.666621  2 H  dyy               46      1.412008  1 P  fxxz       
    51      1.408525  1 P  fyyz              72     -1.356074  2 H  dzz        
    66     -1.250592  2 H  pz                53      1.183151  1 P  fzzz       
 
 Vector   63  Occ=0.000000D+00  E= 4.588176D+00
              MO Center= -9.2D-16, -4.3D-15,  2.4D-01, r^2= 1.1D+00
   Bfn.  Coefficient  Atom+Function         Bfn.  Coefficient  Atom+Function  
  ----- ------------  ---------------      ----- ------------  ---------------
    37      3.368541  1 P  dzz                5     -2.877951  1 P  s          
     6      2.556427  1 P  s                 56     -2.086028  2 H  s          
    53      1.733100  1 P  fzzz              63      1.673462  2 H  pz         
    72     -1.495703  2 H  dzz               55     -1.305698  2 H  s          
    18      1.239152  1 P  pz                66      1.072489  2 H  pz         
 
 Vector   64  Occ=0.000000D+00  E= 8.227446D+00
              MO Center=  6.9D-15, -6.6D-16, -3.8D-02, r^2= 7.7D-01
   Bfn.  Coefficient  Atom+Function         Bfn.  Coefficient  Atom+Function  
  ----- ------------  ---------------      ----- ------------  ---------------
     5     18.830900  1 P  s                 37     -6.502605  1 P  dzz        
    32     -6.217169  1 P  dxx               35     -6.215327  1 P  dyy        
    26     -3.305518  1 P  dxx               29     -3.304552  1 P  dyy        
    31     -3.239227  1 P  dzz                3     -1.793870  1 P  s          
     6      1.141347  1 P  s                  4     -0.851489  1 P  s          
 
 Vector   65  Occ=0.000000D+00  E= 8.349089D+00
              MO Center= -5.7D-17, -9.9D-16,  1.3D+00, r^2= 2.9D-01
   Bfn.  Coefficient  Atom+Function         Bfn.  Coefficient  Atom+Function  
  ----- ------------  ---------------      ----- ------------  ---------------
    59      1.280421  2 H  py                62     -0.947379  2 H  py         
    65      0.378916  2 H  py                52      0.350409  1 P  fyzz       
    36      0.241907  1 P  dyz               42     -0.157408  1 P  dyz        
    20     -0.153501  1 P  py                71      0.137994  2 H  dyz        
    30     -0.099063  1 P  dyz               58     -0.073213  2 H  px         
 
 Vector   66  Occ=0.000000D+00  E= 8.355761D+00
              MO Center= -9.3D-16, -4.7D-17,  1.3D+00, r^2= 2.9D-01
   Bfn.  Coefficient  Atom+Function         Bfn.  Coefficient  Atom+Function  
  ----- ------------  ---------------      ----- ------------  ---------------
    58      1.280458  2 H  px                61     -0.948328  2 H  px         
    64      0.378934  2 H  px                49      0.352076  1 P  fxzz       
    34      0.242859  1 P  dxz               40     -0.157387  1 P  dxz        
    19     -0.153354  1 P  px                69      0.139581  2 H  dxz        
    28     -0.099686  1 P  dxz               59      0.073215  2 H  py         
 
 Vector   67  Occ=0.000000D+00  E= 9.084419D+00
              MO Center=  1.4D-16, -8.5D-16,  1.2D+00, r^2= 5.3D-01
   Bfn.  Coefficient  Atom+Function         Bfn.  Coefficient  Atom+Function  
  ----- ------------  ---------------      ----- ------------  ---------------
     5      2.661203  1 P  s                 63      1.841907  2 H  pz         
    53      1.439442  1 P  fzzz              60     -1.378953  2 H  pz         
    55     -1.325220  2 H  s                 32     -1.216813  1 P  dxx        
    35     -1.216331  1 P  dyy               18     -0.992074  1 P  pz         
    56      0.902440  2 H  s                  6      0.750302  1 P  s          
 
 Vector   68  Occ=0.000000D+00  E= 1.412886D+01
              MO Center=  1.7D-16, -3.6D-15, -9.0D-02, r^2= 2.5D-01
   Bfn.  Coefficient  Atom+Function         Bfn.  Coefficient  Atom+Function  
  ----- ------------  ---------------      ----- ------------  ---------------
    17      2.674529  1 P  py                52     -1.703316  1 P  fyzz       
    45     -1.683222  1 P  fxxy              50     -1.682513  1 P  fyyy       
    11     -1.588074  1 P  py                 8      1.223449  1 P  py         
    14      0.463431  1 P  py                20     -0.351323  1 P  py         
    16     -0.153032  1 P  px                24      0.148433  1 P  py         
 
 Vector   69  Occ=0.000000D+00  E= 1.413936D+01
              MO Center= -9.8D-16, -3.1D-16, -9.0D-02, r^2= 2.5D-01
   Bfn.  Coefficient  Atom+Function         Bfn.  Coefficient  Atom+Function  
  ----- ------------  ---------------      ----- ------------  ---------------
    16      2.681300  1 P  px                49     -1.706882  1 P  fxzz       
    44     -1.687105  1 P  fxxx              47     -1.685947  1 P  fxyy       
    10     -1.588714  1 P  px                 7      1.223094  1 P  px         
    13      0.462374  1 P  px                19     -0.352115  1 P  px         
    17      0.153420  1 P  py                23      0.148790  1 P  px         
 
 Vector   70  Occ=0.000000D+00  E= 1.435278D+01
              MO Center= -5.3D-17, -2.9D-16, -6.4D-02, r^2= 2.5D-01
   Bfn.  Coefficient  Atom+Function         Bfn.  Coefficient  Atom+Function  
  ----- ------------  ---------------      ----- ------------  ---------------
    18      3.287979  1 P  pz                46     -1.900843  1 P  fxxz       
    51     -1.899863  1 P  fyyz              53     -1.622579  1 P  fzzz       
    12     -1.614227  1 P  pz                 9      1.223609  1 P  pz         
    55     -0.669352  2 H  s                  6      0.608232  1 P  s          
    56     -0.543660  2 H  s                 15      0.450355  1 P  pz         
 
 Vector   71  Occ=0.000000D+00  E= 2.086057D+01
              MO Center=  4.2D-15, -6.9D-16, -8.9D-02, r^2= 3.1D-01
   Bfn.  Coefficient  Atom+Function         Bfn.  Coefficient  Atom+Function  
  ----- ------------  ---------------      ----- ------------  ---------------
     5     16.024669  1 P  s                  4     14.686122  1 P  s          
     3    -11.380839  1 P  s                 26     -6.579415  1 P  dxx        
    29     -6.579661  1 P  dyy               31     -6.572671  1 P  dzz        
    32     -4.827582  1 P  dxx               35     -4.827587  1 P  dyy        
    37     -4.840019  1 P  dzz                2      0.649014  1 P  s          
 
 Vector   72  Occ=0.000000D+00  E= 1.882254D+02
              MO Center=  5.1D-16, -3.0D-16, -8.9D-02, r^2= 3.9D-02
   Bfn.  Coefficient  Atom+Function         Bfn.  Coefficient  Atom+Function  
  ----- ------------  ---------------      ----- ------------  ---------------
     4      7.150633  1 P  s                  3     -6.009919  1 P  s          
     5      5.348661  1 P  s                 26     -2.663734  1 P  dxx        
    29     -2.663743  1 P  dyy               31     -2.660178  1 P  dzz        
     2      2.299391  1 P  s                  1     -1.636235  1 P  s          
    37     -1.637027  1 P  dzz               32     -1.625000  1 P  dxx        
 
 
                     DFT Final Beta Molecular Orbital Analysis
                     -----------------------------------------
 
 Vector    1  Occ=1.000000D+00  E=-7.699996D+01
              MO Center=  1.3D-18,  1.7D-17, -8.9D-02, r^2= 4.1D-03
   Bfn.  Coefficient  Atom+Function         Bfn.  Coefficient  Atom+Function  
  ----- ------------  ---------------      ----- ------------  ---------------
     2      0.645149  1 P  s                  1      0.419629  1 P  s          
 
 Vector    2  Occ=1.000000D+00  E=-6.773834D+00
              MO Center=  2.3D-15,  9.9D-15, -8.7D-02, r^2= 9.0D-02
   Bfn.  Coefficient  Atom+Function         Bfn.  Coefficient  Atom+Function  
  ----- ------------  ---------------      ----- ------------  ---------------
     4      0.594322  1 P  s                  3      0.506910  1 P  s          
     2     -0.312595  1 P  s                  1     -0.119845  1 P  s          
     5      0.119642  1 P  s                  6     -0.049409  1 P  s          
 
 Vector    3  Occ=1.000000D+00  E=-4.963066D+00
              MO Center=  6.6D-16, -5.8D-15, -8.9D-02, r^2= 8.3D-02
   Bfn.  Coefficient  Atom+Function         Bfn.  Coefficient  Atom+Function  
  ----- ------------  ---------------      ----- ------------  ---------------
    11      0.680877  1 P  py                 8      0.406563  1 P  py         
    14      0.052638  1 P  py                10     -0.038932  1 P  px         
 
 Vector    4  Occ=1.000000D+00  E=-4.944862D+00
              MO Center=  1.9D-15,  4.5D-16, -9.1D-02, r^2= 8.3D-02
   Bfn.  Coefficient  Atom+Function         Bfn.  Coefficient  Atom+Function  
  ----- ------------  ---------------      ----- ------------  ---------------
    12      0.682037  1 P  pz                 9      0.408129  1 P  pz         
    15      0.052262  1 P  pz         
 
 Vector    5  Occ=1.000000D+00  E=-4.942407D+00
              MO Center= -3.8D-15,  1.4D-15, -8.9D-02, r^2= 8.3D-02
   Bfn.  Coefficient  Atom+Function         Bfn.  Coefficient  Atom+Function  
  ----- ------------  ---------------      ----- ------------  ---------------
    10      0.681561  1 P  px                 7      0.407060  1 P  px         
    13      0.050707  1 P  px                11      0.038972  1 P  py         
 
 Vector    6  Occ=1.000000D+00  E=-8.644290D-01
              MO Center=  1.5D-14,  1.9D-13,  3.2D-01, r^2= 1.1D+00
   Bfn.  Coefficient  Atom+Function         Bfn.  Coefficient  Atom+Function  
  ----- ------------  ---------------      ----- ------------  ---------------
     6      0.534687  1 P  s                  5      0.489680  1 P  s          
     4     -0.343663  1 P  s                  3     -0.189402  1 P  s          
    55      0.162648  2 H  s                 54      0.113998  2 H  s          
     2      0.090450  1 P  s                 38     -0.078252  1 P  dxx        
    56      0.067580  2 H  s                 43     -0.064098  1 P  dzz        
 
 Vector    7  Occ=1.000000D+00  E=-6.172362D-01
              MO Center=  1.7D-15,  2.5D-13,  6.7D-02, r^2= 1.7D+00
   Bfn.  Coefficient  Atom+Function         Bfn.  Coefficient  Atom+Function  
  ----- ------------  ---------------      ----- ------------  ---------------
     6      0.459971  1 P  s                 18     -0.382606  1 P  pz         
    55     -0.281864  2 H  s                  5      0.217223  1 P  s          
    15     -0.200621  1 P  pz                 4     -0.160004  1 P  s          
    12      0.154621  1 P  pz                54     -0.149593  2 H  s          
    56     -0.143204  2 H  s                 21     -0.109605  1 P  pz         
 
 Vector    8  Occ=0.000000D+00  E=-5.011015D-01
              MO Center=  3.0D-14, -2.0D-13, -5.9D-02, r^2= 1.6D+00
   Bfn.  Coefficient  Atom+Function         Bfn.  Coefficient  Atom+Function  
  ----- ------------  ---------------      ----- ------------  ---------------
    17      0.746901  1 P  py                20      0.263296  1 P  py         
    14      0.225848  1 P  py                11     -0.199954  1 P  py         
     8     -0.117421  1 P  py                45     -0.078579  1 P  fxxy       
    24     -0.057088  1 P  py                16     -0.042706  1 P  px         
    52     -0.036068  1 P  fyzz              65      0.028464  2 H  py         
 
 Vector    9  Occ=0.000000D+00  E=-4.517979D-01
              MO Center=  5.7D-17,  1.5D-13, -4.9D-02, r^2= 1.7D+00
   Bfn.  Coefficient  Atom+Function         Bfn.  Coefficient  Atom+Function  
  ----- ------------  ---------------      ----- ------------  ---------------
    16      0.799836  1 P  px                19      0.291417  1 P  px         
    13      0.193170  1 P  px                10     -0.192119  1 P  px         
     7     -0.113803  1 P  px                44     -0.093886  1 P  fxxx       
    49     -0.055050  1 P  fxzz              23     -0.054735  1 P  px         
    17      0.045735  1 P  py                47     -0.042345  1 P  fxyy       
 
 Vector   10  Occ=0.000000D+00  E=-2.456058D-01
              MO Center=  1.1D-14,  9.9D-14,  2.6D-01, r^2= 3.1D+00
   Bfn.  Coefficient  Atom+Function         Bfn.  Coefficient  Atom+Function  
  ----- ------------  ---------------      ----- ------------  ---------------
    18      0.799505  1 P  pz                56     -0.682038  2 H  s          
     6      0.596674  1 P  s                 57     -0.545404  2 H  s          
    21      0.456536  1 P  pz                22      0.404159  1 P  s          
    55     -0.343218  2 H  s                 43     -0.261866  1 P  dzz        
     5      0.170404  1 P  s                 37     -0.158673  1 P  dzz        
 
 Vector   11  Occ=0.000000D+00  E=-1.667421D-01
              MO Center=  7.9D-14,  1.0D-12,  5.3D-01, r^2= 7.4D+00
   Bfn.  Coefficient  Atom+Function         Bfn.  Coefficient  Atom+Function  
  ----- ------------  ---------------      ----- ------------  ---------------
    22      1.190733  1 P  s                  6     -0.317357  1 P  s          
    56     -0.312140  2 H  s                  5     -0.255079  1 P  s          
    18      0.241915  1 P  pz                21      0.237786  1 P  pz         
    41      0.186259  1 P  dyy               25      0.138401  1 P  pz         
    55     -0.137242  2 H  s                  4      0.121477  1 P  s          
 
 Vector   12  Occ=0.000000D+00  E=-1.231126D-01
              MO Center=  3.3D-14, -4.1D-13,  2.7D-01, r^2= 3.4D+00
   Bfn.  Coefficient  Atom+Function         Bfn.  Coefficient  Atom+Function  
  ----- ------------  ---------------      ----- ------------  ---------------
    42      1.168965  1 P  dyz               36      0.429708  1 P  dyz        
    24      0.317492  1 P  py                17     -0.206290  1 P  py         
    65      0.180336  2 H  py                30      0.103464  1 P  dyz        
    20     -0.082047  1 P  py                40     -0.066842  1 P  dxz        
    52      0.040942  1 P  fyzz              14     -0.035870  1 P  py         
 
 Vector   13  Occ=0.000000D+00  E=-1.166332D-01
              MO Center= -6.9D-15,  1.0D-12, -5.5D-01, r^2= 1.1D+01
   Bfn.  Coefficient  Atom+Function         Bfn.  Coefficient  Atom+Function  
  ----- ------------  ---------------      ----- ------------  ---------------
    22      0.929924  1 P  s                 25     -0.853211  1 P  pz         
    57     -0.526045  2 H  s                 21      0.278900  1 P  pz         
    56     -0.268487  2 H  s                 18      0.235950  1 P  pz         
     6     -0.188595  1 P  s                 43      0.127063  1 P  dzz        
    15      0.103944  1 P  pz                 5     -0.099916  1 P  s          
 
 Vector   14  Occ=0.000000D+00  E=-1.054926D-01
              MO Center=  9.9D-14, -1.6D-12, -2.8D-01, r^2= 1.1D+01
   Bfn.  Coefficient  Atom+Function         Bfn.  Coefficient  Atom+Function  
  ----- ------------  ---------------      ----- ------------  ---------------
    24      1.158567  1 P  py                42     -0.399499  1 P  dyz        
    20     -0.224318  1 P  py                17     -0.203540  1 P  py         
    36     -0.143195  1 P  dyz               14     -0.133466  1 P  py         
    11      0.071623  1 P  py                23     -0.066250  1 P  px         
    52     -0.049398  1 P  fyzz               8      0.042195  1 P  py         
 
 Vector   15  Occ=0.000000D+00  E=-1.014764D-01
              MO Center= -4.9D-14, -1.1D-13,  3.7D-01, r^2= 6.2D+00
   Bfn.  Coefficient  Atom+Function         Bfn.  Coefficient  Atom+Function  
  ----- ------------  ---------------      ----- ------------  ---------------
    40      0.914087  1 P  dxz               23      0.811350  1 P  px         
    34      0.306271  1 P  dxz               16     -0.270348  1 P  px         
    19     -0.262649  1 P  px                64      0.186197  2 H  px         
    13     -0.083248  1 P  px                28      0.079971  1 P  dxz        
    10      0.059528  1 P  px                42      0.052266  1 P  dyz        
 
 Vector   16  Occ=0.000000D+00  E=-9.247649D-02
              MO Center= -1.3D-13,  1.5D-13, -3.7D-01, r^2= 8.3D+00
   Bfn.  Coefficient  Atom+Function         Bfn.  Coefficient  Atom+Function  
  ----- ------------  ---------------      ----- ------------  ---------------
    23      1.015417  1 P  px                40     -0.831803  1 P  dxz        
    19     -0.277649  1 P  px                34     -0.271482  1 P  dxz        
    13     -0.109030  1 P  px                64     -0.088406  2 H  px         
    49     -0.071139  1 P  fxzz              28     -0.069590  1 P  dxz        
    16     -0.064324  1 P  px                24      0.058061  1 P  py         
 
 Vector   17  Occ=0.000000D+00  E=-8.088281D-02
              MO Center= -5.8D-15, -9.6D-14, -8.6D-02, r^2= 2.9D+00
   Bfn.  Coefficient  Atom+Function         Bfn.  Coefficient  Atom+Function  
  ----- ------------  ---------------      ----- ------------  ---------------
    39      1.449631  1 P  dxy               33      0.438869  1 P  dxy        
    27      0.112810  1 P  dxy               38     -0.083623  1 P  dxx        
    41      0.083651  1 P  dyy               32     -0.025312  1 P  dxx        
    35      0.025326  1 P  dyy        
 
 Vector   18  Occ=0.000000D+00  E=-8.074872D-02
              MO Center= -1.2D-15, -6.6D-14, -8.0D-02, r^2= 3.0D+00
   Bfn.  Coefficient  Atom+Function         Bfn.  Coefficient  Atom+Function  
  ----- ------------  ---------------      ----- ------------  ---------------
    41     -0.742875  1 P  dyy               38      0.699235  1 P  dxx        
    22      0.349710  1 P  s                 35     -0.227729  1 P  dyy        
    57     -0.228711  2 H  s                 32      0.203532  1 P  dxx        
    56     -0.191644  2 H  s                 25      0.178224  1 P  pz         
    39      0.166416  1 P  dxy                6      0.096927  1 P  s          
 
 Vector   19  Occ=0.000000D+00  E=-4.092965D-02
              MO Center=  3.3D-17,  2.3D-14,  7.9D-01, r^2= 1.6D+01
   Bfn.  Coefficient  Atom+Function         Bfn.  Coefficient  Atom+Function  
  ----- ------------  ---------------      ----- ------------  ---------------
    57      7.672271  2 H  s                 22     -6.818932  1 P  s          
    25     -3.756217  1 P  pz                56     -1.381577  2 H  s          
     6      1.016782  1 P  s                 21      0.952593  1 P  pz         
    18      0.674500  1 P  pz                55     -0.241475  2 H  s          
    43      0.235060  1 P  dzz               66      0.214187  2 H  pz         
 
 Vector   20  Occ=0.000000D+00  E= 4.432017D-02
              MO Center=  5.2D-14,  5.0D-13,  1.1D+00, r^2= 9.0D+00
   Bfn.  Coefficient  Atom+Function         Bfn.  Coefficient  Atom+Function  
  ----- ------------  ---------------      ----- ------------  ---------------
    56      3.430257  2 H  s                 22     -2.083563  1 P  s          
     6     -1.910996  1 P  s                 18     -1.905587  1 P  pz         
    25     -1.212371  1 P  pz                38      0.903861  1 P  dxx        
    41      0.832136  1 P  dyy               46      0.574472  1 P  fxxz       
    51      0.561924  1 P  fyyz              53      0.557724  1 P  fzzz       
 
 Vector   21  Occ=0.000000D+00  E= 6.961140D-02
              MO Center= -3.8D-13,  8.2D-12, -1.5D+00, r^2= 9.9D+00
   Bfn.  Coefficient  Atom+Function         Bfn.  Coefficient  Atom+Function  
  ----- ------------  ---------------      ----- ------------  ---------------
    21      4.457374  1 P  pz                56     -3.785701  2 H  s          
     6      2.663433  1 P  s                 25     -2.518638  1 P  pz         
    57      1.295667  2 H  s                 38     -0.743049  1 P  dxx        
    41     -0.736682  1 P  dyy               66      0.722600  2 H  pz         
    43      0.476800  1 P  dzz               18     -0.316493  1 P  pz         
 
 Vector   22  Occ=0.000000D+00  E= 7.236735D-02
              MO Center=  4.8D-13, -8.4D-12, -1.0D-01, r^2= 1.2D+01
   Bfn.  Coefficient  Atom+Function         Bfn.  Coefficient  Atom+Function  
  ----- ------------  ---------------      ----- ------------  ---------------
    20      2.961691  1 P  py                17     -2.247663  1 P  py         
    24     -2.095979  1 P  py                45      0.630908  1 P  fxxy       
    52      0.622085  1 P  fyzz              50      0.609553  1 P  fyyy       
    14      0.241067  1 P  py                19     -0.169365  1 P  px         
    16      0.128535  1 P  px                23      0.119859  1 P  px         
 
 Vector   23  Occ=0.000000D+00  E= 8.706073D-02
              MO Center= -1.2D-13,  4.8D-14, -1.1D-01, r^2= 1.1D+01
   Bfn.  Coefficient  Atom+Function         Bfn.  Coefficient  Atom+Function  
  ----- ------------  ---------------      ----- ------------  ---------------
    19      2.977349  1 P  px                16     -2.427068  1 P  px         
    23     -2.049947  1 P  px                44      0.686246  1 P  fxxx       
    49      0.672760  1 P  fxzz              47      0.660868  1 P  fxyy       
    13      0.279553  1 P  px                20      0.170259  1 P  py         
    17     -0.138790  1 P  py                24     -0.117226  1 P  py         
 
 Vector   24  Occ=0.000000D+00  E= 1.703818D-01
              MO Center= -3.8D-14, -2.1D-13,  3.4D-01, r^2= 7.2D+00
   Bfn.  Coefficient  Atom+Function         Bfn.  Coefficient  Atom+Function  
  ----- ------------  ---------------      ----- ------------  ---------------
    22      4.818186  1 P  s                 57     -4.541677  2 H  s          
    56      4.347423  2 H  s                 21     -3.552402  1 P  pz         
    43     -3.135908  1 P  dzz               25      2.774886  1 P  pz         
    41     -1.283548  1 P  dyy               38     -1.220878  1 P  dxx        
    18     -0.750235  1 P  pz                55      0.734494  2 H  s          
 
 Vector   25  Occ=0.000000D+00  E= 2.174139D-01
              MO Center= -1.5D-13,  2.7D-12,  9.5D-01, r^2= 3.6D+00
   Bfn.  Coefficient  Atom+Function         Bfn.  Coefficient  Atom+Function  
  ----- ------------  ---------------      ----- ------------  ---------------
    42      1.980414  1 P  dyz               65     -1.813313  2 H  py         
    20      0.920494  1 P  py                17      0.908810  1 P  py         
    52     -0.393090  1 P  fyzz              24     -0.271769  1 P  py         
    45     -0.266982  1 P  fxxy              50     -0.253317  1 P  fyyy       
    14     -0.185533  1 P  py                36      0.184774  1 P  dyz        
 
 Vector   26  Occ=0.000000D+00  E= 2.193049D-01
              MO Center=  2.6D-13, -2.7D-12,  9.3D-01, r^2= 7.1D+00
   Bfn.  Coefficient  Atom+Function         Bfn.  Coefficient  Atom+Function  
  ----- ------------  ---------------      ----- ------------  ---------------
    56      5.818550  2 H  s                 57     -5.265238  2 H  s          
    22      4.459228  1 P  s                 25      2.432883  1 P  pz         
    21     -2.327060  1 P  pz                 6     -2.028064  1 P  s          
    55     -1.831171  2 H  s                 66     -1.102258  2 H  pz         
    18     -1.072230  1 P  pz                41     -0.920129  1 P  dyy        
 
 Vector   27  Occ=0.000000D+00  E= 2.280970D-01
              MO Center= -1.2D-13, -9.2D-15,  9.3D-01, r^2= 3.7D+00
   Bfn.  Coefficient  Atom+Function         Bfn.  Coefficient  Atom+Function  
  ----- ------------  ---------------      ----- ------------  ---------------
    40      2.026124  1 P  dxz               64     -1.819485  2 H  px         
    16      0.955095  1 P  px                19      0.914445  1 P  px         
    49     -0.392631  1 P  fxzz              44     -0.282386  1 P  fxxx       
    47     -0.271122  1 P  fxyy              23     -0.267063  1 P  px         
    13     -0.198135  1 P  px                34      0.169217  1 P  dxz        
 
 Vector   28  Occ=0.000000D+00  E= 4.664892D-01
              MO Center= -1.1D-15, -1.9D-14,  2.3D-01, r^2= 6.3D+00
   Bfn.  Coefficient  Atom+Function         Bfn.  Coefficient  Atom+Function  
  ----- ------------  ---------------      ----- ------------  ---------------
    56     11.319879  2 H  s                  6    -10.261156  1 P  s          
    18     -8.664405  1 P  pz                21     -4.729234  1 P  pz         
    66     -4.111484  2 H  pz                43     -2.983092  1 P  dzz        
    46      2.523433  1 P  fxxz              51      2.489046  1 P  fyyz       
    53      2.318921  1 P  fzzz              57     -2.128412  2 H  s          
 
 Vector   29  Occ=0.000000D+00  E= 5.108430D-01
              MO Center=  8.0D-16,  1.9D-14, -1.4D-01, r^2= 2.0D+00
   Bfn.  Coefficient  Atom+Function         Bfn.  Coefficient  Atom+Function  
  ----- ------------  ---------------      ----- ------------  ---------------
    36      1.659952  1 P  dyz               42     -1.484303  1 P  dyz        
    30      0.254062  1 P  dyz               17     -0.244484  1 P  py         
    52      0.140446  1 P  fyzz              65      0.139559  2 H  py         
    62      0.119462  2 H  py                34     -0.094916  1 P  dxz        
    40      0.084872  1 P  dxz               45      0.067859  1 P  fxxy       
 
 Vector   30  Occ=0.000000D+00  E= 5.387935D-01
              MO Center= -8.3D-16, -1.7D-14, -8.9D-02, r^2= 1.9D+00
   Bfn.  Coefficient  Atom+Function         Bfn.  Coefficient  Atom+Function  
  ----- ------------  ---------------      ----- ------------  ---------------
    33      1.703955  1 P  dxy               39     -1.254801  1 P  dxy        
    27      0.267291  1 P  dxy               32     -0.098387  1 P  dxx        
    35      0.098493  1 P  dyy               38      0.072742  1 P  dxx        
    41     -0.072239  1 P  dyy        
 
 Vector   31  Occ=0.000000D+00  E= 5.399656D-01
              MO Center=  1.1D-14,  2.7D-14, -6.2D-02, r^2= 2.0D+00
   Bfn.  Coefficient  Atom+Function         Bfn.  Coefficient  Atom+Function  
  ----- ------------  ---------------      ----- ------------  ---------------
     6      1.966788  1 P  s                 56     -1.597348  2 H  s          
    38     -0.919475  1 P  dxx               35     -0.904401  1 P  dyy        
    18      0.898675  1 P  pz                32      0.773842  1 P  dxx        
[...]
    39     -0.166128  1 P  dxy               27     -0.135266  1 P  dxy        
    67     -0.103908  2 H  dxx               70      0.103934  2 H  dyy        
    46      0.059474  1 P  fxxz              51     -0.059369  1 P  fyyz       
    33      0.026990  1 P  dxy        
 
 Vector   54  Occ=0.000000D+00  E= 2.952869D+00
              MO Center= -1.1D-14, -9.1D-14, -2.3D-02, r^2= 1.7D+00
   Bfn.  Coefficient  Atom+Function         Bfn.  Coefficient  Atom+Function  
  ----- ------------  ---------------      ----- ------------  ---------------
     5      8.451566  1 P  s                  6      7.231862  1 P  s          
    37     -4.925216  1 P  dzz               35     -4.805078  1 P  dyy        
    32     -4.771570  1 P  dxx               43     -2.429813  1 P  dzz        
     4     -2.284455  1 P  s                 38     -2.191328  1 P  dxx        
    41     -2.180558  1 P  dyy               22      1.480678  1 P  s          
 
 Vector   55  Occ=0.000000D+00  E= 3.221235D+00
              MO Center=  6.5D-16, -1.2D-14,  7.5D-01, r^2= 1.2D+00
   Bfn.  Coefficient  Atom+Function         Bfn.  Coefficient  Atom+Function  
  ----- ------------  ---------------      ----- ------------  ---------------
    71      1.644979  2 H  dyz               52      1.389278  1 P  fyzz       
    30      1.024767  1 P  dyz               42      0.666536  1 P  dyz        
    65     -0.462907  2 H  py                17     -0.273094  1 P  py         
    20      0.207198  1 P  py                36     -0.198832  1 P  dyz        
    62     -0.105054  2 H  py                69     -0.094061  2 H  dxz        
 
 Vector   56  Occ=0.000000D+00  E= 3.235217D+00
              MO Center= -2.4D-15, -2.3D-16,  7.5D-01, r^2= 1.2D+00
   Bfn.  Coefficient  Atom+Function         Bfn.  Coefficient  Atom+Function  
  ----- ------------  ---------------      ----- ------------  ---------------
    69      1.656086  2 H  dxz               49      1.407664  1 P  fxzz       
    28      1.010330  1 P  dxz               40      0.664479  1 P  dxz        
    64     -0.462845  2 H  px                16     -0.277202  1 P  px         
    19      0.207634  1 P  px                34     -0.183436  1 P  dxz        
    61     -0.111937  2 H  px                71      0.094696  2 H  dyz        
 
 Vector   57  Occ=0.000000D+00  E= 3.633522D+00
              MO Center= -3.0D-15, -1.5D-14, -7.4D-02, r^2= 5.3D-01
   Bfn.  Coefficient  Atom+Function         Bfn.  Coefficient  Atom+Function  
  ----- ------------  ---------------      ----- ------------  ---------------
    29     -1.015497  1 P  dyy               26      0.923802  1 P  dxx        
    32     -0.794939  1 P  dxx               35      0.536228  1 P  dyy        
     5      0.322342  1 P  s                 41     -0.254225  1 P  dyy        
     6      0.200599  1 P  s                 27      0.197727  1 P  dxy        
    38      0.168893  1 P  dxx               37     -0.153782  1 P  dzz        
 
 Vector   58  Occ=0.000000D+00  E= 3.633580D+00
              MO Center= -1.9D-15, -1.7D-14, -7.6D-02, r^2= 5.3D-01
   Bfn.  Coefficient  Atom+Function         Bfn.  Coefficient  Atom+Function  
  ----- ------------  ---------------      ----- ------------  ---------------
    27      1.942627  1 P  dxy               33     -1.333361  1 P  dxy        
    39      0.423814  1 P  dxy               68      0.149303  2 H  dxy        
    26     -0.099654  1 P  dxx               29      0.098498  1 P  dyy        
    48     -0.077386  1 P  fxyz              35     -0.069635  1 P  dyy        
    32      0.066368  1 P  dxx        
 
 Vector   59  Occ=0.000000D+00  E= 3.777399D+00
              MO Center= -2.3D-16,  7.0D-16,  9.8D-01, r^2= 1.0D+00
   Bfn.  Coefficient  Atom+Function         Bfn.  Coefficient  Atom+Function  
  ----- ------------  ---------------      ----- ------------  ---------------
    18      3.217920  1 P  pz                55     -2.939123  2 H  s          
    56     -2.625118  2 H  s                 66      1.625724  2 H  pz         
     6      1.612686  1 P  s                 21      1.318508  1 P  pz         
    43      1.215743  1 P  dzz               46     -1.116980  1 P  fxxz       
    51     -1.121280  1 P  fyyz              70      0.973610  2 H  dyy        
 
 Vector   60  Occ=0.000000D+00  E= 3.939958D+00
              MO Center=  3.7D-16, -1.6D-14,  3.5D-01, r^2= 9.2D-01
   Bfn.  Coefficient  Atom+Function         Bfn.  Coefficient  Atom+Function  
  ----- ------------  ---------------      ----- ------------  ---------------
    30      1.681529  1 P  dyz               36     -1.583460  1 P  dyz        
    71     -1.290717  2 H  dyz               52     -1.200680  1 P  fyzz       
    62      0.298211  2 H  py                17      0.225405  1 P  py         
    65      0.159342  2 H  py                42      0.153834  1 P  dyz        
    28     -0.096153  1 P  dxz               34      0.090546  1 P  dxz        
 
 Vector   61  Occ=0.000000D+00  E= 3.965805D+00
              MO Center= -3.2D-15, -3.1D-15,  3.4D-01, r^2= 9.1D-01
   Bfn.  Coefficient  Atom+Function         Bfn.  Coefficient  Atom+Function  
  ----- ------------  ---------------      ----- ------------  ---------------
    28      1.689333  1 P  dxz               34     -1.590837  1 P  dxz        
    69     -1.275754  2 H  dxz               49     -1.195715  1 P  fxzz       
    61      0.299060  2 H  px                16      0.227448  1 P  px         
    40      0.159050  1 P  dxz               64      0.155130  2 H  px         
    30      0.096600  1 P  dyz               36     -0.090967  1 P  dyz        
 
 Vector   62  Occ=0.000000D+00  E= 4.258014D+00
              MO Center= -6.5D-16, -2.8D-15,  1.1D+00, r^2= 1.2D+00
   Bfn.  Coefficient  Atom+Function         Bfn.  Coefficient  Atom+Function  
  ----- ------------  ---------------      ----- ------------  ---------------
    55      5.670750  2 H  s                 18     -4.104388  1 P  pz         
     6     -3.222866  1 P  s                 67     -1.623905  2 H  dxx        
    70     -1.620250  2 H  dyy               46      1.392282  1 P  fxxz       
    51      1.387959  1 P  fyyz              72     -1.300931  2 H  dzz        
    66     -1.220359  2 H  pz                53      1.032517  1 P  fzzz       
 
 Vector   63  Occ=0.000000D+00  E= 4.650072D+00
              MO Center= -7.4D-16, -5.8D-15,  3.0D-01, r^2= 1.1D+00
   Bfn.  Coefficient  Atom+Function         Bfn.  Coefficient  Atom+Function  
  ----- ------------  ---------------      ----- ------------  ---------------
    37      3.399767  1 P  dzz                5     -2.928410  1 P  s          
     6      2.538509  1 P  s                 56     -2.162049  2 H  s          
    53      1.765128  1 P  fzzz              63      1.688197  2 H  pz         
    72     -1.571896  2 H  dzz               55     -1.244620  2 H  s          
    18      1.198589  1 P  pz                66      1.091900  2 H  pz         
 
 Vector   64  Occ=0.000000D+00  E= 8.260268D+00
              MO Center=  1.0D-15,  2.7D-15, -6.0D-02, r^2= 7.4D-01
   Bfn.  Coefficient  Atom+Function         Bfn.  Coefficient  Atom+Function  
  ----- ------------  ---------------      ----- ------------  ---------------
     5     18.924997  1 P  s                 37     -6.467650  1 P  dzz        
    32     -6.262445  1 P  dxx               35     -6.267041  1 P  dyy        
    26     -3.322458  1 P  dxx               29     -3.318306  1 P  dyy        
    31     -3.271255  1 P  dzz                3     -1.802048  1 P  s          
     6      1.198400  1 P  s                  4     -0.858842  1 P  s          
 
 Vector   65  Occ=0.000000D+00  E= 8.505984D+00
              MO Center=  1.2D-16, -2.2D-15,  1.3D+00, r^2= 2.8D-01
   Bfn.  Coefficient  Atom+Function         Bfn.  Coefficient  Atom+Function  
  ----- ------------  ---------------      ----- ------------  ---------------
    59      1.280078  2 H  py                62     -0.939732  2 H  py         
    65      0.379281  2 H  py                52      0.335612  1 P  fyzz       
    36      0.232810  1 P  dyz               42     -0.158463  1 P  dyz        
    20     -0.153853  1 P  py                71      0.123654  2 H  dyz        
    30     -0.094115  1 P  dyz               58     -0.073201  2 H  px         
 
 Vector   66  Occ=0.000000D+00  E= 8.508090D+00
              MO Center= -4.5D-16, -2.8D-17,  1.3D+00, r^2= 2.9D-01
   Bfn.  Coefficient  Atom+Function         Bfn.  Coefficient  Atom+Function  
  ----- ------------  ---------------      ----- ------------  ---------------
    58      1.280093  2 H  px                61     -0.940091  2 H  px         
    64      0.379276  2 H  px                49      0.336276  1 P  fxzz       
    34      0.233865  1 P  dxz               40     -0.158495  1 P  dxz        
    19     -0.153940  1 P  px                69      0.124146  2 H  dxz        
    28     -0.094668  1 P  dxz               59      0.073202  2 H  py         
 
 Vector   67  Occ=0.000000D+00  E= 9.443445D+00
              MO Center= -1.5D-16, -1.8D-15,  1.2D+00, r^2= 4.9D-01
   Bfn.  Coefficient  Atom+Function         Bfn.  Coefficient  Atom+Function  
  ----- ------------  ---------------      ----- ------------  ---------------
    63      1.858053  2 H  pz                 5      1.702735  1 P  s          
    53      1.504996  1 P  fzzz              60     -1.386260  2 H  pz         
    55     -1.184935  2 H  s                 18     -1.139575  1 P  pz         
    56      0.899873  2 H  s                 32     -0.893815  1 P  dxx        
    35     -0.893807  1 P  dyy                6      0.617071  1 P  s          
 
 Vector   68  Occ=0.000000D+00  E= 1.413544D+01
              MO Center=  1.6D-16, -3.5D-15, -9.0D-02, r^2= 2.5D-01
   Bfn.  Coefficient  Atom+Function         Bfn.  Coefficient  Atom+Function  
  ----- ------------  ---------------      ----- ------------  ---------------
    17      2.675177  1 P  py                52     -1.703841  1 P  fyzz       
    45     -1.682791  1 P  fxxy              50     -1.683407  1 P  fyyy       
    11     -1.588232  1 P  py                 8      1.223375  1 P  py         
    14      0.464057  1 P  py                20     -0.351404  1 P  py         
    16     -0.152963  1 P  px                24      0.148448  1 P  py         
 
 Vector   69  Occ=0.000000D+00  E= 1.415805D+01
              MO Center= -8.6D-16, -3.0D-16, -9.0D-02, r^2= 2.5D-01
   Bfn.  Coefficient  Atom+Function         Bfn.  Coefficient  Atom+Function  
  ----- ------------  ---------------      ----- ------------  ---------------
    16      2.673740  1 P  px                49     -1.703626  1 P  fxzz       
    44     -1.682469  1 P  fxxx              47     -1.683139  1 P  fxyy       
    10     -1.588599  1 P  px                 7      1.223171  1 P  px         
    13      0.465383  1 P  px                19     -0.351088  1 P  px         
    17      0.152882  1 P  py                23      0.148293  1 P  px         
 
 Vector   70  Occ=0.000000D+00  E= 1.436868D+01
              MO Center= -5.2D-17, -3.3D-16, -6.2D-02, r^2= 2.5D-01
   Bfn.  Coefficient  Atom+Function         Bfn.  Coefficient  Atom+Function  
  ----- ------------  ---------------      ----- ------------  ---------------
    18      3.284611  1 P  pz                46     -1.899826  1 P  fxxz       
    51     -1.900582  1 P  fyyz              12     -1.614511  1 P  pz         
    53     -1.612533  1 P  fzzz               9      1.222760  1 P  pz         
    55     -0.676058  2 H  s                  6      0.615709  1 P  s          
    56     -0.542114  2 H  s                 15      0.455587  1 P  pz         
 
 Vector   71  Occ=0.000000D+00  E= 2.087592D+01
              MO Center= -1.2D-17, -2.9D-16, -8.9D-02, r^2= 3.1D-01
   Bfn.  Coefficient  Atom+Function         Bfn.  Coefficient  Atom+Function  
  ----- ------------  ---------------      ----- ------------  ---------------
     5     16.024383  1 P  s                  4     14.686876  1 P  s          
     3    -11.380822  1 P  s                 26     -6.580056  1 P  dxx        
    29     -6.579578  1 P  dyy               31     -6.573580  1 P  dzz        
    32     -4.826781  1 P  dxx               35     -4.827398  1 P  dyy        
    37     -4.837146  1 P  dzz                2      0.648900  1 P  s          
 
 Vector   72  Occ=0.000000D+00  E= 1.882315D+02
              MO Center= -2.7D-18, -5.3D-20, -8.9D-02, r^2= 3.9D-02
   Bfn.  Coefficient  Atom+Function         Bfn.  Coefficient  Atom+Function  
  ----- ------------  ---------------      ----- ------------  ---------------
     4      7.150915  1 P  s                  3     -6.010089  1 P  s          
     5      5.348751  1 P  s                 26     -2.663835  1 P  dxx        
    29     -2.663830  1 P  dyy               31     -2.660295  1 P  dzz        
     2      2.299403  1 P  s                  1     -1.636230  1 P  s          
    37     -1.636968  1 P  dzz               32     -1.625015  1 P  dxx        
 

   alpha - beta orbital overlaps 
   ----------------------------- 


   alpha      1      2      3      4      5      6      7      8      9     10
    beta      1      2      3      5      4      6      7      9      8     10
 overlap   1.000  1.000  1.000  1.000  1.000  0.996  0.998  0.998  1.000  0.993


   alpha     11     12     13     14     15     16     17     18     19     20
    beta     11     15     12     17     13     16     18     14     19     20
 overlap   0.995  0.896  1.000  0.999  0.977  0.894  0.964  0.999  0.997  0.994


   alpha     21     22     23     24     25     26     27     28     29     30
    beta     21     23     22     24     26     25     27     28     30     31
 overlap   0.996  0.996  1.000  0.999  0.999  1.000  0.999  0.988  0.999  0.980


   alpha     31     32     33     34     35     36     37     38     39     40
    beta     29     32     33     35     34     36     37     38     40     41
 overlap   1.000  0.999  0.991  0.999  1.000  0.997  0.999  1.000  0.998  0.992


   alpha     41     42     43     44     45     46     47     48     49     50
    beta     39     42     43     44     45     46     47     48     49     50
 overlap   0.997  0.992  0.998  0.999  1.000  1.000  0.999  1.000  1.000  1.000


   alpha     51     52     53     54     55     56     57     58     59     60
    beta     51     53     52     54     55     56     58     57     59     60
 overlap   1.000  1.000  1.000  1.000  0.999  0.999  1.000  1.000  0.998  0.999


   alpha     61     62     63     64     65     66     67     68     69     70
    beta     61     62     63     64     65     66     67     68     69     70
 overlap   0.999  0.998  0.998  0.999  1.000  1.000  0.998  1.000  1.000  1.000


   alpha     71     72
    beta     71     72
 overlap   1.000  1.000

     --------------------------
     Expectation value of S2:  
     --------------------------
      <S2> =      0.7562 (Exact =     0.7500)
 

 center of mass
 --------------
 x =   0.00000000 y =   0.00000000 z =  -0.08330283

 moments of inertia (a.u.)
 ------------------
           7.053913691528           0.000000000000           0.000000000000
           0.000000000000           7.053913691528           0.000000000000
           0.000000000000           0.000000000000           0.000000000000
 
     Multipole analysis of the density
     ---------------------------------
 
     L   x y z        total         alpha         beta         nuclear
     -   - - -        -----         -----         ----         -------
     0   0 0 0      1.000000     -8.000000     -7.000000     16.000000
 
     1   1 0 0     -0.000000     -0.000000     -0.000000      0.000000
     1   0 1 0     -0.000000     -0.000000     -0.000000      0.000000
     1   0 0 1      0.261728      0.152589      0.109139      0.000000
 
     2   2 0 0     -8.173893     -5.769081     -2.404812      0.000000
     2   1 1 0     -0.114939     -0.126050      0.011110      0.000000
     2   1 0 1     -0.000000     -0.000000     -0.000000      0.000000
     2   0 2 0     -6.170408     -3.571923     -2.598485      0.000000
     2   0 1 1      0.000000      0.000000      0.000000      0.000000
     2   0 0 2     -7.247370     -7.444464     -6.578109      6.775204
 

 Parallel integral file used      29 records with       0 large values


 Task  times  cpu:        2.1s     wall:        2.8s
 
 
                                NWChem Input Module
                                -------------------
 
 
 Summary of allocated global arrays
-----------------------------------
  No active global arrays



                         GA Statistics for process    0
                         ------------------------------

       create   destroy   get      put      acc     scatter   gather  read&inc
calls:  283      283     1242      874      244        0        0       80     
number of processes/call 2.55e+00 1.53e+00 4.88e+00 0.00e+00 0.00e+00
bytes total:             1.88e+07 5.11e+06 7.57e+06 0.00e+00 0.00e+00 6.40e+02
bytes remote:            7.31e+06 7.43e+05 3.96e+06 0.00e+00 0.00e+00 0.00e+00
Max memory consumed for GA by this process: 1536680 bytes
 
MA_summarize_allocated_blocks: starting scan ...
MA_summarize_allocated_blocks: scan completed: 0 heap blocks, 0 stack blocks
MA usage statistics:

	allocation statistics:
					      heap	     stack
					      ----	     -----
	current number of blocks	         0	         0
	maximum number of blocks	        21	        53
	current total bytes		         0	         0
	maximum total bytes		   4515184	  22514424
	maximum total K-bytes		      4516	     22515
	maximum total M-bytes		         5	        23
 
 
                                     CITATION
                                     --------
                Please cite the following reference when publishing
                           results obtained with NWChem:
 
                 M. Valiev, E.J. Bylaska, N. Govind, K. Kowalski,
              T.P. Straatsma, H.J.J. van Dam, D. Wang, J. Nieplocha,
                        E. Apra, T.L. Windus, W.A. de Jong
                 "NWChem: a comprehensive and scalable open-source
                  solution for large scale molecular simulations"
                      Comput. Phys. Commun. 181, 1477 (2010)
                           doi:10.1016/j.cpc.2010.04.018
 
                                      AUTHORS
                                      -------
          E. Apra, E. J. Bylaska, W. A. de Jong, N. Govind, K. Kowalski,
       T. P. Straatsma, M. Valiev, H. J. J. van Dam, D. Wang, T. L. Windus,
        J. Hammond, J. Autschbach, K. Bhaskaran-Nair, J. Brabec, K. Lopata,
    S. A. Fischer, S. Krishnamoorthy, M. Jacquelin, W. Ma, M. Klemm, O. Villa,
      Y. Chen, V. Anisimov, F. Aquino, S. Hirata, M. T. Hackler, V. Konjkov,
            D. Mejia-Rodriguez, T. Risthaus, M. Malagoli, A. Marenich,
   A. Otero-de-la-Roza, J. Mullin, P. Nichols, R. Peverati, J. Pittner, Y. Zhao,
        P.-D. Fan, A. Fonari, M. J. Williamson, R. J. Harrison, J. R. Rehr,
      M. Dupuis, D. Silverstein, D. M. A. Smith, J. Nieplocha, V. Tipparaju,
    M. Krishnan, B. E. Van Kuiken, A. Vazquez-Mayagoitia, L. Jensen, M. Swart,
      Q. Wu, T. Van Voorhis, A. A. Auer, M. Nooijen, L. D. Crosby, E. Brown,
      G. Cisneros, G. I. Fann, H. Fruchtl, J. Garza, K. Hirao, R. A. Kendall,
      J. A. Nichols, K. Tsemekhman, K. Wolinski, J. Anchell, D. E. Bernholdt,
      P. Borowski, T. Clark, D. Clerc, H. Dachsel, M. J. O. Deegan, K. Dyall,
    D. Elwood, E. Glendening, M. Gutowski, A. C. Hess, J. Jaffe, B. G. Johnson,
     J. Ju, R. Kobayashi, R. Kutteh, Z. Lin, R. Littlefield, X. Long, B. Meng,
      T. Nakajima, S. Niu, L. Pollack, M. Rosing, K. Glaesemann, G. Sandrone,
      M. Stave, H. Taylor, G. Thomas, J. H. van Lenthe, A. T. Wong, Z. Zhang.

 Total times  cpu:        2.3s     wall:        3.1s
