 argument  1 = /storage/home/rabeet/work/nwc/ip13/nwtpss/PH2+.nw
  NWChem w/ OpenMP: maximum threads =  1
                                         
                                         
 
 
              Northwest Computational Chemistry Package (NWChem) 6.8
              ------------------------------------------------------
 
 
                    Environmental Molecular Sciences Laboratory
                       Pacific Northwest National Laboratory
                                Richland, WA 99352
 
                              Copyright (c) 1994-2018
                       Pacific Northwest National Laboratory
                            Battelle Memorial Institute
 
             NWChem is an open-source computational chemistry package
                        distributed under the terms of the
                      Educational Community License (ECL) 2.0
             A copy of the license is included with this distribution
                              in the LICENSE.TXT file
 
                                  ACKNOWLEDGMENT
                                  --------------

            This software and its documentation were developed at the
            EMSL at Pacific Northwest National Laboratory, a multiprogram
            national laboratory, operated for the U.S. Department of Energy
            by Battelle under Contract Number DE-AC05-76RL01830. Support
            for this work was provided by the Department of Energy Office
            of Biological and Environmental Research, Office of Basic
            Energy Sciences, and the Office of Advanced Scientific Computing.


           Job information
           ---------------

    hostname        = r8n4.niserhpc.org
    program         = /home/rabeet/nwchem-6.8/bin/LINUX64/nwchem
    date            = Sun Oct 27 10:44:35 2019

    compiled        = Fri_Jun_28_18:24:12_2019
    source          = /home/rabeet/nwchem-6.8
    nwchem branch   = Development
    nwchem revision = N/A
    ga revision     = 5.6.5
    use scalapack   = T
    input           = /storage/home/rabeet/work/nwc/ip13/nwtpss/PH2+.nw
    prefix          = PH2+.
    data base       = ./PH2+.db
    status          = startup
    nproc           =       16
    time left       =     -1s



           Memory information
           ------------------

    heap     =   13107196 doubles =    100.0 Mbytes
    stack    =   13107201 doubles =    100.0 Mbytes
    global   =   26214400 doubles =    200.0 Mbytes (distinct from heap & stack)
    total    =   52428797 doubles =    400.0 Mbytes
    verify   = yes
    hardfail = no 


           Directory information
           ---------------------
 
  0 permanent = .
  0 scratch   = .
 
 
 
 
                                NWChem Input Module
                                -------------------
 
 

 Scaling coordinates for geometry "geometry" by  1.889725989
 (inverse scale =  0.529177249)


          ------
          auto-z
          ------
  no constraints, skipping   0.000000000000000E+000
  no constraints, skipping   0.000000000000000E+000
 
 
                             Geometry "geometry" -> ""
                             -------------------------
 
 Output coordinates in angstroms (scale by  1.889725989 to convert to a.u.)
 
  No.       Tag          Charge          X              Y              Z
 ---- ---------------- ---------- -------------- -------------- --------------
    1 P                   15.0000    -0.08328059     0.00000000    -0.07934294
    2 H                    1.0000    -0.08328059     0.00000000     1.33808706
    3 H                    1.0000     1.33248941     0.00000000    -0.14794294
 
      Atomic Mass 
      ----------- 
 
      P                 30.973760
      H                  1.007825
 

 Effective nuclear repulsion energy (a.u.)      11.4578904777

            Nuclear Dipole moment (a.u.) 
            ----------------------------
        X                 Y               Z
 ---------------- ---------------- ----------------
     0.0000000000     0.0000000000    -0.0000000000
 


                                Z-matrix (autoz)
                                -------- 

 Units are Angstrom for bonds and degrees for angles
 
      Type          Name      I     J     K     L     M      Value
      ----------- --------  ----- ----- ----- ----- ----- ----------
    1 Stretch                  1     2                       1.41743
    2 Stretch                  1     3                       1.41743
    3 Bend                     2     1     3                92.77405
 
 
            XYZ format geometry
            -------------------
     3
 geometry
 P                    -0.08328059     0.00000000    -0.07934294
 H                    -0.08328059     0.00000000     1.33808706
 H                     1.33248941     0.00000000    -0.14794294
 
 ==============================================================================
                                internuclear distances
 ------------------------------------------------------------------------------
       center one      |      center two      | atomic units |  angstroms
 ------------------------------------------------------------------------------
    2 H                |   1 P                |     2.67855  |     1.41743
    3 H                |   1 P                |     2.67856  |     1.41743
 ------------------------------------------------------------------------------
                         number of included internuclear distances:          2
 ==============================================================================



 ==============================================================================
                                 internuclear angles
 ------------------------------------------------------------------------------
        center 1       |       center 2       |       center 3       |  degrees
 ------------------------------------------------------------------------------
    2 H                |   1 P                |   3 H                |    92.77
 ------------------------------------------------------------------------------
                            number of included internuclear angles:          1
 ==============================================================================





 Summary of "ao basis" -> "" (cartesian)
 ------------------------------------------------------------------------------
       Tag                 Description            Shells   Functions and Types
 ---------------- ------------------------------  ------  ---------------------
 *                     6-311++G(3df,3pd)              on all atoms 


 
                                 NWChem DFT Module
                                 -----------------
 
 
                      Basis "ao basis" -> "ao basis" (cartesian)
                      -----
  P (Phosphorous)
  ---------------
            Exponent  Coefficients 
       -------------- ---------------------------------------------------------
  1 S  7.74924000E+04  0.000781
  1 S  1.16058000E+04  0.006068
  1 S  2.64596000E+03  0.031160
  1 S  7.54976000E+02  0.123431
  1 S  2.48755000E+02  0.378209
  1 S  9.11565000E+01  0.563262
 
  2 S  9.11565000E+01  0.160255
  2 S  3.62257000E+01  0.627647
  2 S  1.52113000E+01  0.263849
 
  3 S  4.79417000E+00  1.000000
 
  4 S  1.80793000E+00  1.000000
 
  5 S  3.56816000E-01  1.000000
 
  6 S  1.14783000E-01  1.000000
 
  7 P  3.84843000E+02  0.009206
  7 P  9.05521000E+01  0.069874
  7 P  2.91339000E+01  0.292470
  7 P  1.08862000E+01  0.728103
 
  8 P  4.35259000E+00  0.628349
  8 P  1.77706000E+00  0.428044
 
  9 P  6.97005000E-01  1.000000
 
 10 P  2.53532000E-01  1.000000
 
 11 P  6.84930000E-02  1.000000
 
 12 S  3.48000000E-02  1.000000
 
 13 P  3.48000000E-02  1.000000
 
 14 D  2.20000000E+00  1.000000
 
 15 D  5.50000000E-01  1.000000
 
 16 D  1.37500000E-01  1.000000
 
 17 F  4.50000000E-01  1.000000
 
  H (Hydrogen)
  ------------
            Exponent  Coefficients 
       -------------- ---------------------------------------------------------
  1 S  3.38650000E+01  0.025494
  1 S  5.09479000E+00  0.190373
  1 S  1.15879000E+00  0.852161
 
  2 S  3.25840000E-01  1.000000
 
  3 S  1.02741000E-01  1.000000
 
  4 S  3.60000000E-02  1.000000
 
  5 P  3.00000000E+00  1.000000
 
  6 P  7.50000000E-01  1.000000
 
  7 P  1.87500000E-01  1.000000
 
  8 D  1.00000000E+00  1.000000
 


 Summary of "ao basis" -> "ao basis" (cartesian)
 ------------------------------------------------------------------------------
       Tag                 Description            Shells   Functions and Types
 ---------------- ------------------------------  ------  ---------------------
 P                     6-311++G(3df,3pd)            17       53   7s6p3d1f
 H                     6-311++G(3df,3pd)             8       19   4s3p1d




 Summary of "ao basis" -> "ao basis" (cartesian)
 ------------------------------------------------------------------------------
       Tag                 Description            Shells   Functions and Types
 ---------------- ------------------------------  ------  ---------------------
 P                     6-311++G(3df,3pd)            17       53   7s6p3d1f
 H                     6-311++G(3df,3pd)             8       19   4s3p1d


  Caching 1-el integrals 
 
            General Information
            -------------------
          SCF calculation type: DFT
          Wavefunction type:  closed shell.
          No. of atoms     :     3
          No. of electrons :    16
           Alpha electrons :     8
            Beta electrons :     8
          Charge           :     1
          Spin multiplicity:     1
          Use of symmetry is: off; symmetry adaption is: off
          Maximum number of iterations: ***
          AO basis - number of functions:    91
                     number of shells:    33
          Convergence on energy requested:  1.00D-06
          Convergence on density requested:  1.00D-05
          Convergence on gradient requested:  5.00D-04
 
              XC Information
              --------------
                  TPSS metaGGA Exchange Functional  1.000          
             TPSS03 metaGGA Correlation Functional  1.000          
 
             Grid Information
             ----------------
          Grid used for XC integration:  medium    
          Radial quadrature: Mura-Knowles        
          Angular quadrature: Lebedev. 
          Tag              B.-S. Rad. Rad. Pts. Rad. Cut. Ang. Pts.
          ---              ---------- --------- --------- ---------
          P                   1.00       88          11.0       590
          H                   0.35       45          11.0       434
          Grid pruning is: on 
          Number of quadrature shells:   178
          Spatial weights used:  Erf1
 
          Convergence Information
          -----------------------
          Convergence aids based upon iterative change in 
          total energy or number of iterations. 
          Levelshifting, if invoked, occurs when the 
          HOMO/LUMO gap drops below (HL_TOL):  1.00D-02
          DIIS, if invoked, will attempt to extrapolate 
          using up to (NFOCK): 10 stored Fock matrices.

                    Damping( 0%)  Levelshifting(0.5)       DIIS
                  --------------- ------------------- ---------------
          dE  on:    start            ASAP                start   
          dE off:    2 iters        *** iters           *** iters 

 
      Screening Tolerance Information
      -------------------------------
          Density screening/tol_rho:  1.00D-10
          AO Gaussian exp screening on grid/accAOfunc:  14
          CD Gaussian exp screening on grid/accCDfunc:  20
          XC Gaussian exp screening on grid/accXCfunc:  20
          Schwarz screening/accCoul:  1.00D-08

 
      Superposition of Atomic Density Guess
      -------------------------------------
 
 Sum of atomic energies:        -341.65011194

 Renormalizing density from      17.00 to     16
 
      Non-variational initial energy
      ------------------------------

 Total energy =    -328.754419
 1-e energy   =    -465.726296
 2-e energy   =     125.513987
 HOMO         =      -0.791636
 LUMO         =      -0.659012
 
   Time after variat. SCF:      0.7
   Time prior to 1st pass:      0.7

 Integral file          = ./PH2+.aoints.00
 Record size in doubles =  65536        No. of integs per rec  =  43688
 Max. records in memory =     19        Max. records in file   = 554261
 No. of bits per label  =      8        No. of bits per value  =     64


 #quartets = 1.563D+05 #integrals = 3.651D+06 #direct =  0.0% #cached =100.0%


File balance: exchanges=     8  moved=     5  time=   0.0


 Grid_pts file          = ./PH2+.gridpts.00
 Record size in doubles =  12289        No. of grid_pts per rec  =   3070
 Max. records in memory =      4        Max. recs in file   =  47475444


           Memory utilization after 1st SCF pass: 
           Heap Space remaining (MW):       11.81            11809236
          Stack Space remaining (MW):       13.11            13106604

   convergence    iter        energy       DeltaE   RMS-Dens  Diis-err    time
 ---------------- ----- ----------------- --------- --------- ---------  ------
 d= 0,ls=0.0,diis     1   -342.0167235345 -3.53D+02  2.03D-02  6.18D+00     2.2
 d= 0,ls=0.0,diis     2   -342.0993763508 -8.27D-02  7.64D-03  1.98D+00     2.3
 d= 0,ls=0.0,diis     3   -342.1735461069 -7.42D-02  1.68D-03  1.84D-02     2.4
 d= 0,ls=0.0,diis     4   -342.1765882489 -3.04D-03  4.04D-04  1.72D-03     2.5
 d= 0,ls=0.0,diis     5   -342.1769022305 -3.14D-04  3.46D-05  1.73D-05     2.6
  Resetting Diis
 d= 0,ls=0.0,diis     6   -342.1769041564 -1.93D-06  4.55D-06  8.27D-08     2.8
 d= 0,ls=0.0,diis     7   -342.1769041624 -5.99D-09  3.18D-07  3.20D-10     2.9


         Total DFT energy =     -342.176904162433
      One electron energy =     -489.814190005509
           Coulomb energy =      159.859525952846
          Exchange energy =      -23.101532660717
       Correlation energy =       -0.578597926729
 Nuclear repulsion energy =       11.457890477677

 Numeric. integr. density =       16.000007717366

     Total iterative time =      2.2s


 
                       DFT Final Molecular Orbital Analysis
                       ------------------------------------
 
 Vector    1  Occ=2.000000D+00  E=-7.697599D+01
              MO Center= -8.3D-02, -1.4D-17, -7.9D-02, r^2= 4.1D-03
   Bfn.  Coefficient  Atom+Function         Bfn.  Coefficient  Atom+Function  
  ----- ------------  ---------------      ----- ------------  ---------------
     2      0.645139  1 P  s                  1      0.419620  1 P  s          
 
 Vector    2  Occ=2.000000D+00  E=-6.752318D+00
              MO Center= -8.1D-02, -7.7D-15, -7.8D-02, r^2= 9.0D-02
   Bfn.  Coefficient  Atom+Function         Bfn.  Coefficient  Atom+Function  
  ----- ------------  ---------------      ----- ------------  ---------------
     4      0.592762  1 P  s                  3      0.507248  1 P  s          
     2     -0.312599  1 P  s                  5      0.123600  1 P  s          
     1     -0.119838  1 P  s                  6     -0.050037  1 P  s          
 
 Vector    3  Occ=2.000000D+00  E=-4.941315D+00
              MO Center= -8.3D-02,  2.2D-15, -7.9D-02, r^2= 8.3D-02
   Bfn.  Coefficient  Atom+Function         Bfn.  Coefficient  Atom+Function  
  ----- ------------  ---------------      ----- ------------  ---------------
    11      0.681755  1 P  py                 8      0.407115  1 P  py         
    14      0.053213  1 P  py         
 
 Vector    4  Occ=2.000000D+00  E=-4.925262D+00
              MO Center= -8.3D-02, -1.1D-15, -7.9D-02, r^2= 8.3D-02
   Bfn.  Coefficient  Atom+Function         Bfn.  Coefficient  Atom+Function  
  ----- ------------  ---------------      ----- ------------  ---------------
    12     -0.493498  1 P  pz                10      0.470165  1 P  px         
     9     -0.295339  1 P  pz                 7      0.281375  1 P  px         
    15     -0.038241  1 P  pz                13      0.036433  1 P  px         
 
 Vector    5  Occ=2.000000D+00  E=-4.921443D+00
              MO Center= -8.5D-02,  2.3D-15, -8.1D-02, r^2= 8.3D-02
   Bfn.  Coefficient  Atom+Function         Bfn.  Coefficient  Atom+Function  
  ----- ------------  ---------------      ----- ------------  ---------------
    10      0.493509  1 P  px                12      0.470176  1 P  pz         
     7      0.295466  1 P  px                 9      0.281497  1 P  pz         
    13      0.038202  1 P  px                15      0.036396  1 P  pz         
 
 Vector    6  Occ=2.000000D+00  E=-9.028490D-01
              MO Center=  1.8D-01, -1.0D-13,  1.7D-01, r^2= 1.2D+00
   Bfn.  Coefficient  Atom+Function         Bfn.  Coefficient  Atom+Function  
  ----- ------------  ---------------      ----- ------------  ---------------
     6      0.512122  1 P  s                  5      0.483833  1 P  s          
     4     -0.329442  1 P  s                  3     -0.189250  1 P  s          
    55      0.112460  2 H  s                 74      0.112460  3 H  s          
    54      0.090435  2 H  s                 73      0.090435  3 H  s          
     2      0.088154  1 P  s                 38     -0.072710  1 P  dxx        
 
 Vector    7  Occ=2.000000D+00  E=-6.610217D-01
              MO Center=  3.1D-01, -4.0D-14,  2.9D-01, r^2= 1.6D+00
   Bfn.  Coefficient  Atom+Function         Bfn.  Coefficient  Atom+Function  
  ----- ------------  ---------------      ----- ------------  ---------------
    55      0.239547  2 H  s                 74     -0.239547  3 H  s          
    18      0.215063  1 P  pz                16     -0.204894  1 P  px         
    15      0.147418  1 P  pz                13     -0.140448  1 P  px         
    54      0.139249  2 H  s                 73     -0.139249  3 H  s          
    56      0.122499  2 H  s                 75     -0.122499  3 H  s          
 
 Vector    8  Occ=2.000000D+00  E=-5.827421D-01
              MO Center= -1.4D-01, -2.0D-13, -1.3D-01, r^2= 1.6D+00
   Bfn.  Coefficient  Atom+Function         Bfn.  Coefficient  Atom+Function  
  ----- ------------  ---------------      ----- ------------  ---------------
     6      0.509668  1 P  s                 16     -0.334530  1 P  px         
    18     -0.318713  1 P  pz                 5      0.226910  1 P  s          
    55     -0.175696  2 H  s                 74     -0.175696  3 H  s          
     4     -0.161772  1 P  s                 13     -0.141367  1 P  px         
    15     -0.134683  1 P  pz                10      0.116871  1 P  px         
 
 Vector    9  Occ=0.000000D+00  E=-5.028049D-01
              MO Center= -4.8D-02,  1.3D-13, -4.6D-02, r^2= 1.6D+00
   Bfn.  Coefficient  Atom+Function         Bfn.  Coefficient  Atom+Function  
  ----- ------------  ---------------      ----- ------------  ---------------
    17      0.732458  1 P  py                20      0.260100  1 P  py         
    14      0.223246  1 P  py                11     -0.198437  1 P  py         
     8     -0.116240  1 P  py                24     -0.054835  1 P  py         
    45     -0.039256  1 P  fxxy              52     -0.039006  1 P  fyzz       
    50     -0.032431  1 P  fyyy       
 
 Vector   10  Occ=0.000000D+00  E=-2.743755D-01
              MO Center= -5.0D-02, -9.1D-14, -4.7D-02, r^2= 2.6D+00
   Bfn.  Coefficient  Atom+Function         Bfn.  Coefficient  Atom+Function  
  ----- ------------  ---------------      ----- ------------  ---------------
    18     -0.637862  1 P  pz                16      0.607705  1 P  px         
    56      0.432876  2 H  s                 75     -0.432877  3 H  s          
    21     -0.337510  1 P  pz                19      0.321553  1 P  px         
    55      0.267080  2 H  s                 74     -0.267081  3 H  s          
    57      0.220903  2 H  s                 76     -0.220904  3 H  s          
 
 Vector   11  Occ=0.000000D+00  E=-2.276985D-01
              MO Center=  2.8D-01, -1.1D-13,  2.7D-01, r^2= 4.3D+00
   Bfn.  Coefficient  Atom+Function         Bfn.  Coefficient  Atom+Function  
  ----- ------------  ---------------      ----- ------------  ---------------
     6      0.907911  1 P  s                 22      0.582692  1 P  s          
    56     -0.527351  2 H  s                 75     -0.527348  3 H  s          
    57     -0.493590  2 H  s                 76     -0.493588  3 H  s          
    16      0.488195  1 P  px                18      0.465115  1 P  pz         
    19      0.292892  1 P  px                 5      0.284387  1 P  s          
 
 Vector   12  Occ=0.000000D+00  E=-1.640816D-01
              MO Center=  3.6D-01, -6.1D-13,  3.5D-01, r^2= 6.0D+00
   Bfn.  Coefficient  Atom+Function         Bfn.  Coefficient  Atom+Function  
  ----- ------------  ---------------      ----- ------------  ---------------
    22      2.200948  1 P  s                 56     -0.611403  2 H  s          
    75     -0.611403  3 H  s                 57     -0.491272  2 H  s          
    76     -0.491271  3 H  s                 19      0.362274  1 P  px         
    21      0.345146  1 P  pz                23      0.336636  1 P  px         
    16      0.320616  1 P  px                25      0.320720  1 P  pz         
 
 Vector   13  Occ=0.000000D+00  E=-1.258514D-01
              MO Center=  6.9D-02, -4.5D-13,  6.5D-02, r^2= 4.1D+00
   Bfn.  Coefficient  Atom+Function         Bfn.  Coefficient  Atom+Function  
  ----- ------------  ---------------      ----- ------------  ---------------
    22      1.138540  1 P  s                 40     -0.928174  1 P  dxz        
    57     -0.382582  2 H  s                 76     -0.382580  3 H  s          
    34     -0.362718  1 P  dxz               16      0.300183  1 P  px         
    18      0.285991  1 P  pz                56     -0.255393  2 H  s          
    75     -0.255392  3 H  s                 19      0.216179  1 P  px         
 
 Vector   14  Occ=0.000000D+00  E=-1.244919D-01
              MO Center=  2.3D-01, -5.8D-13,  2.2D-01, r^2= 1.1D+01
   Bfn.  Coefficient  Atom+Function         Bfn.  Coefficient  Atom+Function  
  ----- ------------  ---------------      ----- ------------  ---------------
    57      0.579339  2 H  s                 76     -0.579337  3 H  s          
    25      0.488266  1 P  pz                23     -0.465182  1 P  px         
    18     -0.142278  1 P  pz                16      0.135551  1 P  px         
    21     -0.085197  1 P  pz                15     -0.084307  1 P  pz         
    19      0.081169  1 P  px                13      0.080321  1 P  px         
 
 Vector   15  Occ=0.000000D+00  E=-1.207225D-01
              MO Center=  2.4D-02,  5.8D-13,  2.2D-02, r^2= 2.9D+00
   Bfn.  Coefficient  Atom+Function         Bfn.  Coefficient  Atom+Function  
  ----- ------------  ---------------      ----- ------------  ---------------
    42     -0.890274  1 P  dyz               39      0.848184  1 P  dxy        
    36     -0.326443  1 P  dyz               33      0.311009  1 P  dxy        
    65     -0.124364  2 H  py                84      0.124365  3 H  py         
    30     -0.077177  1 P  dyz               27      0.073528  1 P  dxy        
 
 Vector   16  Occ=0.000000D+00  E=-1.186426D-01
              MO Center=  2.0D-01,  6.7D-13,  1.9D-01, r^2= 5.1D+00
   Bfn.  Coefficient  Atom+Function         Bfn.  Coefficient  Atom+Function  
  ----- ------------  ---------------      ----- ------------  ---------------
    39      0.747535  1 P  dxy               42      0.712196  1 P  dyz        
    24      0.633862  1 P  py                17     -0.333764  1 P  py         
    33      0.261905  1 P  dxy               36      0.249524  1 P  dyz        
    20     -0.148959  1 P  py                65      0.110194  2 H  py         
    84      0.110193  3 H  py                14     -0.063258  1 P  py         
 
 Vector   17  Occ=0.000000D+00  E=-1.119666D-01
              MO Center= -7.3D-01, -1.1D-12, -6.9D-01, r^2= 9.2D+00
   Bfn.  Coefficient  Atom+Function         Bfn.  Coefficient  Atom+Function  
  ----- ------------  ---------------      ----- ------------  ---------------
    23      0.739144  1 P  px                25      0.704197  1 P  pz         
    22     -0.517747  1 P  s                 40     -0.451272  1 P  dxz        
    19     -0.202812  1 P  px                21     -0.193223  1 P  pz         
    34     -0.177666  1 P  dxz                6      0.162538  1 P  s          
    56      0.136114  2 H  s                 75      0.136113  3 H  s          
 
 Vector   18  Occ=0.000000D+00  E=-1.071297D-01
              MO Center= -3.2D-01,  1.5D-12, -3.0D-01, r^2= 8.8D+00
   Bfn.  Coefficient  Atom+Function         Bfn.  Coefficient  Atom+Function  
  ----- ------------  ---------------      ----- ------------  ---------------
    24      1.013662  1 P  py                39     -0.534985  1 P  dxy        
    42     -0.509689  1 P  dyz               33     -0.191732  1 P  dxy        
    36     -0.182666  1 P  dyz               20     -0.179879  1 P  py         
    17     -0.159807  1 P  py                14     -0.105480  1 P  py         
    11      0.057002  1 P  py                27     -0.044600  1 P  dxy        
 
 Vector   19  Occ=0.000000D+00  E=-4.460692D-02
              MO Center=  6.0D-01, -4.8D-14,  5.7D-01, r^2= 1.6D+01
   Bfn.  Coefficient  Atom+Function         Bfn.  Coefficient  Atom+Function  
  ----- ------------  ---------------      ----- ------------  ---------------
    22     10.170270  1 P  s                 57     -5.752740  2 H  s          
    76     -5.753051  3 H  s                 23      2.670165  1 P  px         
    25      2.543755  1 P  pz                 6     -1.299074  1 P  s          
    56      0.899030  2 H  s                 75      0.899091  3 H  s          
    19     -0.573748  1 P  px                21     -0.546572  1 P  pz         
 
 Vector   20  Occ=0.000000D+00  E=-4.407537D-02
              MO Center=  1.1D-01, -2.5D-15,  1.0D-01, r^2= 1.6D+01
   Bfn.  Coefficient  Atom+Function         Bfn.  Coefficient  Atom+Function  
  ----- ------------  ---------------      ----- ------------  ---------------
    57      5.079591  2 H  s                 76     -5.079221  3 H  s          
    25     -2.760589  1 P  pz                23      2.629903  1 P  px         
    56     -0.987359  2 H  s                 75      0.987300  3 H  s          
    21      0.819580  1 P  pz                19     -0.780794  1 P  px         
    18      0.535033  1 P  pz                16     -0.509707  1 P  px         
 
 Vector   21  Occ=0.000000D+00  E= 3.488124D-02
              MO Center=  4.3D-01, -1.6D-13,  4.1D-01, r^2= 8.5D+00
   Bfn.  Coefficient  Atom+Function         Bfn.  Coefficient  Atom+Function  
  ----- ------------  ---------------      ----- ------------  ---------------
    22      6.667104  1 P  s                 56     -3.046007  2 H  s          
    75     -3.046003  3 H  s                  6      2.632703  1 P  s          
    57     -2.250535  2 H  s                 76     -2.250532  3 H  s          
    23      1.375837  1 P  px                25      1.310784  1 P  pz         
    41     -1.224589  1 P  dyy               16      1.210919  1 P  px         
 
 Vector   22  Occ=0.000000D+00  E= 5.403974D-02
              MO Center=  2.6D-02, -1.9D-14,  2.5D-02, r^2= 1.2D+01
   Bfn.  Coefficient  Atom+Function         Bfn.  Coefficient  Atom+Function  
  ----- ------------  ---------------      ----- ------------  ---------------
    21     -1.908513  1 P  pz                19      1.818281  1 P  px         
    25      1.413319  1 P  pz                23     -1.346496  1 P  px         
    18      1.140476  1 P  pz                16     -1.086549  1 P  px         
    53     -0.339410  1 P  fzzz              44      0.324542  1 P  fxxx       
    46     -0.316293  1 P  fxxz              51     -0.299632  1 P  fyyz       
 
 Vector   23  Occ=0.000000D+00  E= 6.565471D-02
              MO Center= -9.4D-01, -1.9D-12, -8.9D-01, r^2= 1.1D+01
   Bfn.  Coefficient  Atom+Function         Bfn.  Coefficient  Atom+Function  
  ----- ------------  ---------------      ----- ------------  ---------------
    19      3.308946  1 P  px                21      3.152500  1 P  pz         
     6      2.847786  1 P  s                 56     -2.318615  2 H  s          
    75     -2.318609  3 H  s                 23     -1.994498  1 P  px         
    25     -1.900198  1 P  pz                57      0.896750  2 H  s          
    76      0.896748  3 H  s                 22     -0.568221  1 P  s          
 
 Vector   24  Occ=0.000000D+00  E= 7.025837D-02
              MO Center= -9.3D-02,  2.0D-12, -8.8D-02, r^2= 1.2D+01
   Bfn.  Coefficient  Atom+Function         Bfn.  Coefficient  Atom+Function  
  ----- ------------  ---------------      ----- ------------  ---------------
    20      3.008005  1 P  py                17     -2.242823  1 P  py         
    24     -2.116809  1 P  py                45      0.623329  1 P  fxxy       
    52      0.623270  1 P  fyzz              50      0.612435  1 P  fyyy       
    14      0.243536  1 P  py                11      0.111100  1 P  py         
     8      0.065377  1 P  py                65     -0.044745  2 H  py         
 
 Vector   25  Occ=0.000000D+00  E= 1.218069D-01
              MO Center=  2.1D-01, -1.4D-14,  2.0D-01, r^2= 9.2D+00
   Bfn.  Coefficient  Atom+Function         Bfn.  Coefficient  Atom+Function  
  ----- ------------  ---------------      ----- ------------  ---------------
    56      5.573751  2 H  s                 75     -5.573740  3 H  s          
    57     -4.211177  2 H  s                 76      4.211176  3 H  s          
    21     -4.030016  1 P  pz                19      3.839473  1 P  px         
    25      2.779935  1 P  pz                23     -2.648499  1 P  px         
    38      1.771193  1 P  dxx               43     -1.771190  1 P  dzz        
 
 Vector   26  Occ=0.000000D+00  E= 1.539561D-01
              MO Center=  3.7D-01,  7.1D-14,  3.6D-01, r^2= 5.0D+00
   Bfn.  Coefficient  Atom+Function         Bfn.  Coefficient  Atom+Function  
  ----- ------------  ---------------      ----- ------------  ---------------
     6      3.113068  1 P  s                 22      2.081276  1 P  s          
    56     -1.619998  2 H  s                 75     -1.620010  3 H  s          
    40      1.390435  1 P  dxz               16      1.228718  1 P  px         
    18      1.170619  1 P  pz                43     -1.064096  1 P  dzz        
    38     -0.996719  1 P  dxx               55      0.778182  2 H  s          
 
 Vector   27  Occ=0.000000D+00  E= 1.978030D-01
              MO Center=  9.5D-02, -9.3D-13,  9.0D-02, r^2= 7.0D+00
   Bfn.  Coefficient  Atom+Function         Bfn.  Coefficient  Atom+Function  
  ----- ------------  ---------------      ----- ------------  ---------------
    56      3.658063  2 H  s                 75     -3.658082  3 H  s          
    57     -3.197223  2 H  s                 76      3.197240  3 H  s          
    21     -2.315245  1 P  pz                19      2.205786  1 P  px         
    25      1.831114  1 P  pz                23     -1.744545  1 P  px         
    18     -1.054216  1 P  pz                16      1.004377  1 P  px         
 
 Vector   28  Occ=0.000000D+00  E= 2.030256D-01
              MO Center=  4.1D-01,  9.2D-13,  3.9D-01, r^2= 4.1D+00
   Bfn.  Coefficient  Atom+Function         Bfn.  Coefficient  Atom+Function  
  ----- ------------  ---------------      ----- ------------  ---------------
    42     -1.404985  1 P  dyz               39      1.338559  1 P  dxy        
    65      1.203719  2 H  py                84     -1.203722  3 H  py         
    36     -0.121014  1 P  dyz               33      0.115293  1 P  dxy        
    45     -0.075898  1 P  fxxy              52      0.075897  1 P  fyzz       
    62     -0.035025  2 H  py                81      0.035025  3 H  py         
 
 Vector   29  Occ=0.000000D+00  E= 2.080609D-01
              MO Center=  3.7D-01, -5.6D-14,  3.5D-01, r^2= 1.0D+01
   Bfn.  Coefficient  Atom+Function         Bfn.  Coefficient  Atom+Function  
  ----- ------------  ---------------      ----- ------------  ---------------
    22      8.947862  1 P  s                 56      5.043556  2 H  s          
    75      5.043534  3 H  s                 57     -4.952046  2 H  s          
    76     -4.952026  3 H  s                 19     -2.782397  1 P  px         
    21     -2.650856  1 P  pz                23      2.515762  1 P  px         
    38     -2.501209  1 P  dxx               43     -2.494069  1 P  dzz        
 
 Vector   30  Occ=0.000000D+00  E= 2.438136D-01
              MO Center=  4.6D-01,  1.2D-13,  4.4D-01, r^2= 4.3D+00
   Bfn.  Coefficient  Atom+Function         Bfn.  Coefficient  Atom+Function  
  ----- ------------  ---------------      ----- ------------  ---------------
    39      1.511318  1 P  dxy               42      1.439867  1 P  dyz        
    17      1.418691  1 P  py                65     -1.401366  2 H  py         
    84     -1.401361  3 H  py                20      1.373260  1 P  py         
    45     -0.508554  1 P  fxxy              52     -0.510157  1 P  fyzz       
    24     -0.397848  1 P  py                50     -0.385502  1 P  fyyy       
 
 Vector   31  Occ=0.000000D+00  E= 2.826037D-01
              MO Center=  6.0D-01,  6.7D-14,  5.7D-01, r^2= 4.4D+00
   Bfn.  Coefficient  Atom+Function         Bfn.  Coefficient  Atom+Function  
  ----- ------------  ---------------      ----- ------------  ---------------
    55      1.469664  2 H  s                 74     -1.469653  3 H  s          
    57      1.289088  2 H  s                 76     -1.289088  3 H  s          
    56     -1.062408  2 H  s                 75      1.062404  3 H  s          
    38      1.029227  1 P  dxx               43     -1.029240  1 P  dzz        
    85      0.945431  3 H  pz                64     -0.922102  2 H  px         
 
 Vector   32  Occ=0.000000D+00  E= 2.852675D-01
              MO Center=  2.1D-01,  4.0D-14,  2.0D-01, r^2= 4.8D+00
   Bfn.  Coefficient  Atom+Function         Bfn.  Coefficient  Atom+Function  
  ----- ------------  ---------------      ----- ------------  ---------------
    40      3.015048  1 P  dxz               19      1.498039  1 P  px         
    64     -1.483569  2 H  px                85     -1.464810  3 H  pz         
    21      1.427200  1 P  pz                38      1.067157  1 P  dxx        
     6     -0.935102  1 P  s                 43      0.921052  1 P  dzz        
    22     -0.891651  1 P  s                 55     -0.814272  2 H  s          
 
 Vector   33  Occ=0.000000D+00  E= 4.674254D-01
              MO Center=  5.1D-02,  6.4D-14,  4.8D-02, r^2= 6.0D+00
   Bfn.  Coefficient  Atom+Function         Bfn.  Coefficient  Atom+Function  
  ----- ------------  ---------------      ----- ------------  ---------------
     6     13.840705  1 P  s                 56     -7.270498  2 H  s          
    75     -7.270506  3 H  s                 16      5.885065  1 P  px         
    18      5.606808  1 P  pz                19      3.120077  1 P  px         
    21      2.972551  1 P  pz                66      2.890433  2 H  pz         
    83      2.878844  3 H  px                41     -2.184076  1 P  dyy        
 
 Vector   34  Occ=0.000000D+00  E= 5.038917D-01
              MO Center=  1.8D-01,  2.7D-14,  1.7D-01, r^2= 6.8D+00
   Bfn.  Coefficient  Atom+Function         Bfn.  Coefficient  Atom+Function  
  ----- ------------  ---------------      ----- ------------  ---------------
    56      9.890010  2 H  s                 75     -9.889989  3 H  s          
    18     -7.048860  1 P  pz                16      6.715571  1 P  px         
    21     -4.614504  1 P  pz                19      4.396320  1 P  px         
    38      3.304695  1 P  dxx               43     -3.304693  1 P  dzz        
    57     -3.180893  2 H  s                 66     -3.191159  2 H  pz         
 
 Vector   35  Occ=0.000000D+00  E= 5.104824D-01
              MO Center= -9.9D-02, -4.4D-14, -9.4D-02, r^2= 2.0D+00
   Bfn.  Coefficient  Atom+Function         Bfn.  Coefficient  Atom+Function  
  ----- ------------  ---------------      ----- ------------  ---------------
    36     -1.202046  1 P  dyz               33      1.145203  1 P  dxy        
    42      1.038616  1 P  dyz               39     -0.989501  1 P  dxy        
    30     -0.180999  1 P  dyz               27      0.172439  1 P  dxy        
    62     -0.092731  2 H  py                81      0.092730  3 H  py         
    65     -0.059490  2 H  py                84      0.059490  3 H  py         
 
 Vector   36  Occ=0.000000D+00  E= 5.176756D-01
              MO Center= -1.1D-01,  8.0D-15, -1.0D-01, r^2= 2.0D+00
   Bfn.  Coefficient  Atom+Function         Bfn.  Coefficient  Atom+Function  
  ----- ------------  ---------------      ----- ------------  ---------------
    33      1.205896  1 P  dxy               36      1.148871  1 P  dyz        
    39     -1.082925  1 P  dxy               42     -1.031715  1 P  dyz        
    17     -0.434994  1 P  py                45      0.197368  1 P  fxxy       
    52      0.195883  1 P  fyzz              27      0.181454  1 P  dxy        
    30      0.172873  1 P  dyz               14      0.113963  1 P  py         
 
 Vector   37  Occ=0.000000D+00  E= 5.264686D-01
              MO Center= -1.9D-01, -3.9D-14, -1.9D-01, r^2= 2.2D+00
   Bfn.  Coefficient  Atom+Function         Bfn.  Coefficient  Atom+Function  
  ----- ------------  ---------------      ----- ------------  ---------------
     6      2.199091  1 P  s                 40      1.889050  1 P  dxz        
    34     -1.577557  1 P  dxz               56     -1.252813  2 H  s          
    75     -1.252804  3 H  s                 16      1.090885  1 P  px         
    18      1.039312  1 P  pz                19      0.780911  1 P  px         
    21      0.743994  1 P  pz                55     -0.438904  2 H  s          
 
 Vector   38  Occ=0.000000D+00  E= 6.066880D-01
              MO Center=  1.3D-01, -2.6D-14,  1.3D-01, r^2= 4.2D+00
   Bfn.  Coefficient  Atom+Function         Bfn.  Coefficient  Atom+Function  
  ----- ------------  ---------------      ----- ------------  ---------------
     6      3.184828  1 P  s                 22     -2.343399  1 P  s          
    16     -2.310838  1 P  px                18     -2.201506  1 P  pz         
    56     -2.028747  2 H  s                 75     -2.028791  3 H  s          
    19      1.775925  1 P  px                21      1.691914  1 P  pz         
    49      1.359156  1 P  fxzz              46      1.316139  1 P  fxxz       
 
 Vector   39  Occ=0.000000D+00  E= 6.142063D-01
              MO Center=  1.5D-01,  5.6D-14,  1.4D-01, r^2= 4.6D+00
   Bfn.  Coefficient  Atom+Function         Bfn.  Coefficient  Atom+Function  
  ----- ------------  ---------------      ----- ------------  ---------------
    18     -3.696581  1 P  pz                16      3.521746  1 P  px         
    21      2.087958  1 P  pz                19     -1.989197  1 P  px         
    56     -1.980453  2 H  s                 75      1.980406  3 H  s          
    46      1.876605  1 P  fxxz              49     -1.800652  1 P  fxzz       
    53      1.792975  1 P  fzzz              51      1.779867  1 P  fyyz       
 
 Vector   40  Occ=0.000000D+00  E= 6.716504D-01
              MO Center= -7.4D-02, -4.6D-15, -7.0D-02, r^2= 4.8D+00
   Bfn.  Coefficient  Atom+Function         Bfn.  Coefficient  Atom+Function  
  ----- ------------  ---------------      ----- ------------  ---------------
    17      9.119532  1 P  py                45     -3.814470  1 P  fxxy       
    52     -3.815640  1 P  fyzz              50     -3.743087  1 P  fyyy       
    14     -3.098696  1 P  py                20     -2.343686  1 P  py         
    24      1.103360  1 P  py                11      0.215982  1 P  py         
    65     -0.144081  2 H  py                84     -0.144081  3 H  py         
 
 Vector   41  Occ=0.000000D+00  E= 7.521234D-01
              MO Center=  7.4D-02,  1.4D-14,  7.0D-02, r^2= 3.9D+00
   Bfn.  Coefficient  Atom+Function         Bfn.  Coefficient  Atom+Function  
  ----- ------------  ---------------      ----- ------------  ---------------
    16      8.588789  1 P  px                18      8.182679  1 P  pz         
     6      6.254465  1 P  s                 44     -3.337477  1 P  fxxx       
    56     -3.227558  2 H  s                 75     -3.227559  3 H  s          
    53     -3.202250  1 P  fzzz              49     -2.895123  1 P  fxzz       
    46     -2.690481  1 P  fxxz              47     -2.646624  1 P  fxyy       
 
 Vector   42  Occ=0.000000D+00  E= 8.368209D-01
              MO Center=  6.5D-02, -2.2D-15,  6.2D-02, r^2= 3.5D+00
   Bfn.  Coefficient  Atom+Function         Bfn.  Coefficient  Atom+Function  
  ----- ------------  ---------------      ----- ------------  ---------------
    18     -7.773906  1 P  pz                16      7.406329  1 P  px         
    56      4.060282  2 H  s                 75     -4.060267  3 H  s          
    53      3.034778  1 P  fzzz              44     -2.922921  1 P  fxxx       
    46      2.415051  1 P  fxxz              49     -2.205950  1 P  fxzz       
    66     -2.192071  2 H  pz                83      2.196004  3 H  px         
 
 Vector   43  Occ=0.000000D+00  E= 9.009745D-01
              MO Center= -2.0D-02,  8.6D-14, -1.9D-02, r^2= 4.4D+00
   Bfn.  Coefficient  Atom+Function         Bfn.  Coefficient  Atom+Function  
  ----- ------------  ---------------      ----- ------------  ---------------
     6     10.370135  1 P  s                 22      5.336459  1 P  s          
     5     -4.866308  1 P  s                 38     -4.729745  1 P  dxx        
    43     -4.733869  1 P  dzz               41     -4.075170  1 P  dyy        
    56      2.739904  2 H  s                 75      2.739893  3 H  s          
    57     -2.521157  2 H  s                 76     -2.521151  3 H  s          
 
 Vector   44  Occ=0.000000D+00  E= 9.727190D-01
              MO Center= -6.7D-02,  2.5D-14, -6.4D-02, r^2= 1.4D+00
   Bfn.  Coefficient  Atom+Function         Bfn.  Coefficient  Atom+Function  
  ----- ------------  ---------------      ----- ------------  ---------------
    48      3.768480  1 P  fxyz              45      0.167934  1 P  fxxy       
    68      0.094570  2 H  dxy               90      0.094432  3 H  dyz        
    17     -0.058347  1 P  py                39     -0.038345  1 P  dxy        
    42     -0.036532  1 P  dyz               65      0.031580  2 H  py         
    84      0.031580  3 H  py         
 
 Vector   45  Occ=0.000000D+00  E= 1.069347D+00
              MO Center=  5.5D-02,  1.6D-15,  5.2D-02, r^2= 2.1D+00
   Bfn.  Coefficient  Atom+Function         Bfn.  Coefficient  Atom+Function  
  ----- ------------  ---------------      ----- ------------  ---------------
    51     -1.571603  1 P  fyyz              47      1.497290  1 P  fxyy       
    49     -1.213772  1 P  fxzz              46      1.039526  1 P  fxxz       
    18      1.025834  1 P  pz                16     -0.977329  1 P  px         
    56     -0.843181  2 H  s                 75      0.843175  3 H  s          
    21      0.754457  1 P  pz                19     -0.718782  1 P  px         
 
 Vector   46  Occ=0.000000D+00  E= 1.093671D+00
              MO Center=  1.0D-01,  3.5D-14,  1.0D-01, r^2= 2.2D+00
   Bfn.  Coefficient  Atom+Function         Bfn.  Coefficient  Atom+Function  
  ----- ------------  ---------------      ----- ------------  ---------------
    45      1.860164  1 P  fxxy              52     -1.860123  1 P  fyzz       
    42     -0.808688  1 P  dyz               39      0.770478  1 P  dxy        
    65      0.769970  2 H  py                84     -0.769996  3 H  py         
    62     -0.277568  2 H  py                81      0.277575  3 H  py         
    48     -0.180266  1 P  fxyz              36      0.172764  1 P  dyz        
 
 Vector   47  Occ=0.000000D+00  E= 1.098345D+00
              MO Center=  4.2D-02,  3.2D-14,  4.0D-02, r^2= 2.0D+00
   Bfn.  Coefficient  Atom+Function         Bfn.  Coefficient  Atom+Function  
  ----- ------------  ---------------      ----- ------------  ---------------
    50      1.376869  1 P  fyyy              52     -1.158876  1 P  fyzz       
    45     -1.151414  1 P  fxxy              17     -1.105926  1 P  py         
    39     -0.830230  1 P  dxy               42     -0.791003  1 P  dyz        
    65      0.791773  2 H  py                84      0.791745  3 H  py         
    20     -0.614932  1 P  py                14      0.317151  1 P  py         
 
 Vector   48  Occ=0.000000D+00  E= 1.111995D+00
              MO Center=  2.2D-02,  1.9D-14,  2.1D-02, r^2= 2.2D+00
   Bfn.  Coefficient  Atom+Function         Bfn.  Coefficient  Atom+Function  
  ----- ------------  ---------------      ----- ------------  ---------------
    47     -1.962861  1 P  fxyy              51     -1.870048  1 P  fyyz       
    40      1.825513  1 P  dxz               16      1.572555  1 P  px         
    18      1.498195  1 P  pz                56     -1.423496  2 H  s          
    75     -1.423501  3 H  s                 19      1.043006  1 P  px         
    21      0.993688  1 P  pz                38      0.960894  1 P  dxx        
 
 Vector   49  Occ=0.000000D+00  E= 1.356195D+00
              MO Center= -1.1D-02,  1.5D-14, -1.1D-02, r^2= 2.9D+00
   Bfn.  Coefficient  Atom+Function         Bfn.  Coefficient  Atom+Function  
  ----- ------------  ---------------      ----- ------------  ---------------
    18     -7.833778  1 P  pz                16      7.463421  1 P  px         
    56      5.345783  2 H  s                 75     -5.345800  3 H  s          
    51      3.855514  1 P  fyyz              47     -3.673239  1 P  fxyy       
    49     -3.022900  1 P  fxzz              46      2.952945  1 P  fxxz       
    55      2.544823  2 H  s                 74     -2.544830  3 H  s          
 
 Vector   50  Occ=0.000000D+00  E= 1.391796D+00
              MO Center=  4.8D-02,  1.9D-15,  4.6D-02, r^2= 2.8D+00
   Bfn.  Coefficient  Atom+Function         Bfn.  Coefficient  Atom+Function  
  ----- ------------  ---------------      ----- ------------  ---------------
     6     11.056221  1 P  s                 16      6.919125  1 P  px         
    18      6.592027  1 P  pz                56     -4.234477  2 H  s          
    75     -4.234443  3 H  s                 47     -3.403370  1 P  fxyy       
    46     -3.298317  1 P  fxxz              51     -3.242477  1 P  fyyz       
    49     -3.141898  1 P  fxzz              55     -2.264158  2 H  s          
 
 Vector   51  Occ=0.000000D+00  E= 1.590161D+00
              MO Center=  4.4D-01,  1.6D-15,  4.2D-01, r^2= 2.6D+00
   Bfn.  Coefficient  Atom+Function         Bfn.  Coefficient  Atom+Function  
  ----- ------------  ---------------      ----- ------------  ---------------
    18     -2.510929  1 P  pz                55      2.420918  2 H  s          
    74     -2.420917  3 H  s                 16      2.392207  1 P  px         
    56      2.005302  2 H  s                 75     -2.005296  3 H  s          
    21     -1.535766  1 P  pz                19      1.463152  1 P  px         
    49     -1.432896  1 P  fxzz              46      1.306094  1 P  fxxz       
 
 Vector   52  Occ=0.000000D+00  E= 1.614849D+00
              MO Center=  4.8D-01,  1.8D-14,  4.6D-01, r^2= 3.0D+00
   Bfn.  Coefficient  Atom+Function         Bfn.  Coefficient  Atom+Function  
  ----- ------------  ---------------      ----- ------------  ---------------
     6      6.379670  1 P  s                 55     -3.804059  2 H  s          
    74     -3.804067  3 H  s                 16      3.405088  1 P  px         
    18      3.244093  1 P  pz                56     -2.072177  2 H  s          
    75     -2.072169  3 H  s                 19      1.558785  1 P  px         
    66      1.530436  2 H  pz                83      1.501181  3 H  px         
 
 Vector   53  Occ=0.000000D+00  E= 1.635499D+00
              MO Center=  5.1D-01, -1.3D-14,  4.8D-01, r^2= 2.2D+00
   Bfn.  Coefficient  Atom+Function         Bfn.  Coefficient  Atom+Function  
  ----- ------------  ---------------      ----- ------------  ---------------
    17      1.058592  1 P  py                50     -0.951686  1 P  fyyy       
    62     -0.950853  2 H  py                81     -0.950862  3 H  py         
    20     -0.667701  1 P  py                65      0.591250  2 H  py         
    84      0.591254  3 H  py                14     -0.233270  1 P  py         
    39     -0.228836  1 P  dxy               42     -0.218015  1 P  dyz        
 
 Vector   54  Occ=0.000000D+00  E= 1.677704D+00
              MO Center=  4.6D-01,  3.5D-15,  4.3D-01, r^2= 2.1D+00
   Bfn.  Coefficient  Atom+Function         Bfn.  Coefficient  Atom+Function  
  ----- ------------  ---------------      ----- ------------  ---------------
    45      1.261900  1 P  fxxy              52     -1.261903  1 P  fyzz       
    62      0.942703  2 H  py                81     -0.942693  3 H  py         
    65     -0.463862  2 H  py                84      0.463857  3 H  py         
    36     -0.198610  1 P  dyz               33      0.189217  1 P  dxy        
    48     -0.122288  1 P  fxyz              30     -0.106492  1 P  dyz        
 
 Vector   55  Occ=0.000000D+00  E= 1.794983D+00
              MO Center=  4.2D-01,  3.4D-15,  4.0D-01, r^2= 2.8D+00
   Bfn.  Coefficient  Atom+Function         Bfn.  Coefficient  Atom+Function  
  ----- ------------  ---------------      ----- ------------  ---------------
    55      3.280266  2 H  s                 74     -3.280289  3 H  s          
    54     -1.194328  2 H  s                 73      1.194337  3 H  s          
    49      1.181028  1 P  fxzz              46     -1.045457  1 P  fxxz       
    66     -0.943795  2 H  pz                83      0.935222  3 H  px         
    18     -0.846888  1 P  pz                16      0.806864  1 P  px         
 
 Vector   56  Occ=0.000000D+00  E= 1.821838D+00
              MO Center=  4.1D-01,  5.1D-16,  3.9D-01, r^2= 2.4D+00
   Bfn.  Coefficient  Atom+Function         Bfn.  Coefficient  Atom+Function  
  ----- ------------  ---------------      ----- ------------  ---------------
     6      2.898435  1 P  s                 55     -2.397050  2 H  s          
    74     -2.396991  3 H  s                 16      1.704009  1 P  px         
    18      1.623457  1 P  pz                46      0.936579  1 P  fxxz       
    83      0.895795  3 H  px                66      0.886511  2 H  pz         
    54      0.826559  2 H  s                 73      0.826539  3 H  s          
 
 Vector   57  Occ=0.000000D+00  E= 2.112710D+00
              MO Center=  4.7D-01,  3.1D-18,  4.5D-01, r^2= 2.3D+00
   Bfn.  Coefficient  Atom+Function         Bfn.  Coefficient  Atom+Function  
  ----- ------------  ---------------      ----- ------------  ---------------
    18     -3.244094  1 P  pz                16      3.090748  1 P  px         
    55      2.349678  2 H  s                 74     -2.349706  3 H  s          
    51      1.932556  1 P  fyyz              47     -1.841202  1 P  fxyy       
    49     -1.707981  1 P  fxzz              46      1.690943  1 P  fxxz       
    56     -1.088826  2 H  s                 75      1.088825  3 H  s          
 
 Vector   58  Occ=0.000000D+00  E= 2.195972D+00
              MO Center= -7.2D-02, -1.8D-14, -6.9D-02, r^2= 2.1D+00
   Bfn.  Coefficient  Atom+Function         Bfn.  Coefficient  Atom+Function  
  ----- ------------  ---------------      ----- ------------  ---------------
    17      8.991968  1 P  py                45     -5.087192  1 P  fxxy       
    50     -5.084355  1 P  fyyy              52     -5.086929  1 P  fyzz       
    20     -1.226596  1 P  py                14     -0.986409  1 P  py         
    24      0.531406  1 P  py                11     -0.412803  1 P  py         
     8     -0.205878  1 P  py                65     -0.145509  2 H  py         
 
 Vector   59  Occ=0.000000D+00  E= 2.236451D+00
              MO Center=  4.1D-01,  5.0D-14,  3.9D-01, r^2= 2.5D+00
   Bfn.  Coefficient  Atom+Function         Bfn.  Coefficient  Atom+Function  
  ----- ------------  ---------------      ----- ------------  ---------------
     6      7.632375  1 P  s                 16      6.647686  1 P  px         
    18      6.333392  1 P  pz                55     -3.674955  2 H  s          
    74     -3.674937  3 H  s                 47     -3.308908  1 P  fxyy       
    51     -3.152467  1 P  fyyz              46     -3.068634  1 P  fxxz       
    49     -3.070450  1 P  fxzz              41     -2.137759  1 P  dyy        
 
 Vector   60  Occ=0.000000D+00  E= 2.357700D+00
              MO Center= -2.4D-02, -7.4D-15, -2.2D-02, r^2= 2.2D+00
   Bfn.  Coefficient  Atom+Function         Bfn.  Coefficient  Atom+Function  
  ----- ------------  ---------------      ----- ------------  ---------------
    16      8.247291  1 P  px                18      7.857349  1 P  pz         
    44     -4.788566  1 P  fxxx              53     -4.618177  1 P  fzzz       
    47     -3.974711  1 P  fxyy              51     -3.786779  1 P  fyyz       
    49     -3.691251  1 P  fxzz              46     -3.348666  1 P  fxxz       
    56     -2.005770  2 H  s                 75     -2.005766  3 H  s          
 
 Vector   61  Occ=0.000000D+00  E= 2.395882D+00
              MO Center= -3.9D-02, -4.7D-15, -3.7D-02, r^2= 2.2D+00
   Bfn.  Coefficient  Atom+Function         Bfn.  Coefficient  Atom+Function  
  ----- ------------  ---------------      ----- ------------  ---------------
    18     -9.884893  1 P  pz                16      9.417511  1 P  px         
    53      5.248754  1 P  fzzz              44     -5.040816  1 P  fxxx       
    46      4.460623  1 P  fxxz              51      4.425660  1 P  fyyz       
    47     -4.216407  1 P  fxyy              49     -4.129014  1 P  fxzz       
    56      2.452706  2 H  s                 75     -2.452699  3 H  s          
 
 Vector   62  Occ=0.000000D+00  E= 2.736212D+00
              MO Center=  6.2D-01,  3.7D-15,  5.9D-01, r^2= 1.6D+00
   Bfn.  Coefficient  Atom+Function         Bfn.  Coefficient  Atom+Function  
  ----- ------------  ---------------      ----- ------------  ---------------
    68      1.227402  2 H  dxy               90     -1.230646  3 H  dyz        
    42      0.137854  1 P  dyz               39     -0.131336  1 P  dxy        
    71     -0.096732  2 H  dyz               30      0.066568  1 P  dyz        
    27     -0.063421  1 P  dxy               45      0.040771  1 P  fxxy       
    52     -0.040770  1 P  fyzz              87      0.037216  3 H  dxy        
 
 Vector   63  Occ=0.000000D+00  E= 2.827504D+00
              MO Center=  5.9D-01,  3.5D-15,  5.6D-01, r^2= 1.7D+00
   Bfn.  Coefficient  Atom+Function         Bfn.  Coefficient  Atom+Function  
  ----- ------------  ---------------      ----- ------------  ---------------
    70      0.639284  2 H  dyy               89      0.639285  3 H  dyy        
     5      0.610761  1 P  s                 67     -0.575215  2 H  dxx        
    91     -0.563776  3 H  dzz               22      0.532694  1 P  s          
    16     -0.489032  1 P  px                46      0.468998  1 P  fxxz       
    18     -0.465912  1 P  pz                49      0.462947  1 P  fxzz       
 
 Vector   64  Occ=0.000000D+00  E= 2.912513D+00
              MO Center=  5.8D-01,  1.7D-15,  5.5D-01, r^2= 1.7D+00
   Bfn.  Coefficient  Atom+Function         Bfn.  Coefficient  Atom+Function  
  ----- ------------  ---------------      ----- ------------  ---------------
    18     -1.412736  1 P  pz                16      1.345935  1 P  px         
    51      0.833015  1 P  fyyz              47     -0.793626  1 P  fxyy       
    53      0.708952  1 P  fzzz              44     -0.698562  1 P  fxxx       
    91     -0.625112  3 H  dzz               56      0.619969  2 H  s          
    75     -0.619965  3 H  s                 67      0.615418  2 H  dxx        
 
 Vector   65  Occ=0.000000D+00  E= 2.936987D+00
              MO Center=  5.7D-01,  3.7D-15,  5.5D-01, r^2= 1.7D+00
   Bfn.  Coefficient  Atom+Function         Bfn.  Coefficient  Atom+Function  
  ----- ------------  ---------------      ----- ------------  ---------------
    48      1.443072  1 P  fxyz              68     -1.270046  2 H  dxy        
    90     -1.261763  3 H  dyz               87     -0.201657  3 H  dxy        
    17      0.196883  1 P  py                52     -0.171418  1 P  fyzz       
    39      0.155981  1 P  dxy               42      0.148607  1 P  dyz        
    71     -0.140354  2 H  dyz               45     -0.101495  1 P  fxxy       
 
 Vector   66  Occ=0.000000D+00  E= 3.014873D+00
              MO Center= -3.1D-02, -5.9D-14, -3.0D-02, r^2= 1.7D+00
   Bfn.  Coefficient  Atom+Function         Bfn.  Coefficient  Atom+Function  
  ----- ------------  ---------------      ----- ------------  ---------------
     5      8.481041  1 P  s                  6      7.598863  1 P  s          
    32     -5.027075  1 P  dxx               37     -5.028651  1 P  dzz        
    35     -4.912177  1 P  dyy               38     -2.566726  1 P  dxx        
    43     -2.568718  1 P  dzz               41     -2.346492  1 P  dyy        
     4     -2.329338  1 P  s                 22      2.318127  1 P  s          
 
 Vector   67  Occ=0.000000D+00  E= 3.191677D+00
              MO Center=  3.5D-01,  6.0D-15,  3.3D-01, r^2= 1.6D+00
   Bfn.  Coefficient  Atom+Function         Bfn.  Coefficient  Atom+Function  
  ----- ------------  ---------------      ----- ------------  ---------------
    71      1.188767  2 H  dyz               87     -1.189702  3 H  dxy        
    45     -0.955893  1 P  fxxy              52      0.955856  1 P  fyzz       
    30      0.719865  1 P  dyz               27     -0.685852  1 P  dxy        
    42      0.490493  1 P  dyz               39     -0.467319  1 P  dxy        
    65     -0.331081  2 H  py                84      0.331093  3 H  py         
 
 Vector   68  Occ=0.000000D+00  E= 3.212062D+00
              MO Center=  3.5D-01, -5.6D-14,  3.3D-01, r^2= 1.6D+00
   Bfn.  Coefficient  Atom+Function         Bfn.  Coefficient  Atom+Function  
  ----- ------------  ---------------      ----- ------------  ---------------
    71      1.190849  2 H  dyz               87      1.185538  3 H  dxy        
    45      1.070293  1 P  fxxy              52      1.070354  1 P  fyzz       
    27      0.702332  1 P  dxy               30      0.669149  1 P  dyz        
    39      0.494114  1 P  dxy               42      0.470768  1 P  dyz        
    17     -0.388508  1 P  py                65     -0.356334  2 H  py         
 
 Vector   69  Occ=0.000000D+00  E= 3.214352D+00
              MO Center=  2.3D-01,  6.2D-14,  2.1D-01, r^2= 1.5D+00
   Bfn.  Coefficient  Atom+Function         Bfn.  Coefficient  Atom+Function  
  ----- ------------  ---------------      ----- ------------  ---------------
    28      1.189516  1 P  dxz               69      1.047127  2 H  dxz        
    40      1.037234  1 P  dxz               88      1.032420  3 H  dxz        
    46      0.933227  1 P  fxxz              49      0.852010  1 P  fxzz       
     5     -0.470488  1 P  s                 64     -0.389687  2 H  px         
    85     -0.389901  3 H  pz                55     -0.387017  2 H  s          
 
 Vector   70  Occ=0.000000D+00  E= 3.266222D+00
              MO Center=  5.3D-01,  2.6D-16,  5.0D-01, r^2= 1.8D+00
   Bfn.  Coefficient  Atom+Function         Bfn.  Coefficient  Atom+Function  
  ----- ------------  ---------------      ----- ------------  ---------------
    49     -1.468532  1 P  fxzz              88      1.412947  3 H  dxz        
    69     -1.402943  2 H  dxz               46      1.348697  1 P  fxxz       
    18     -0.455411  1 P  pz                16      0.433885  1 P  px         
    85     -0.327734  3 H  pz                64      0.325687  2 H  px         
    70      0.208974  2 H  dyy               89     -0.208975  3 H  dyy        
 
 Vector   71  Occ=0.000000D+00  E= 3.755245D+00
              MO Center=  4.3D-01,  3.6D-15,  4.1D-01, r^2= 1.6D+00
   Bfn.  Coefficient  Atom+Function         Bfn.  Coefficient  Atom+Function  
  ----- ------------  ---------------      ----- ------------  ---------------
    16      2.113284  1 P  px                18      2.013200  1 P  pz         
     6      1.973976  1 P  s                 55     -1.928278  2 H  s          
    74     -1.928407  3 H  s                 56     -1.845445  2 H  s          
    75     -1.845584  3 H  s                 66      1.082043  2 H  pz         
    83      1.079335  3 H  px                32      0.989872  1 P  dxx        
 
 Vector   72  Occ=0.000000D+00  E= 3.790244D+00
              MO Center=  4.8D-01,  4.2D-15,  4.6D-01, r^2= 1.6D+00
   Bfn.  Coefficient  Atom+Function         Bfn.  Coefficient  Atom+Function  
  ----- ------------  ---------------      ----- ------------  ---------------
    18     -2.890992  1 P  pz                16      2.754150  1 P  px         
    56      2.202508  2 H  s                 75     -2.202381  3 H  s          
    55      2.175700  2 H  s                 74     -2.175557  3 H  s          
    66     -1.333549  2 H  pz                83      1.332478  3 H  px         
    21     -1.092942  1 P  pz                19      1.041206  1 P  px         
 
 Vector   73  Occ=0.000000D+00  E= 3.933996D+00
              MO Center=  1.4D-01,  1.4D-14,  1.3D-01, r^2= 9.7D-01
   Bfn.  Coefficient  Atom+Function         Bfn.  Coefficient  Atom+Function  
  ----- ------------  ---------------      ----- ------------  ---------------
    27      1.241175  1 P  dxy               30      1.182475  1 P  dyz        
    33     -1.144323  1 P  dxy               36     -1.090205  1 P  dyz        
    71     -0.859791  2 H  dyz               87     -0.851583  3 H  dxy        
    45     -0.843159  1 P  fxxy              52     -0.839524  1 P  fyzz       
    17      0.326465  1 P  py                62      0.193148  2 H  py         
 
 Vector   74  Occ=0.000000D+00  E= 3.964977D+00
              MO Center=  1.2D-01,  1.1D-14,  1.1D-01, r^2= 1.0D+00
   Bfn.  Coefficient  Atom+Function         Bfn.  Coefficient  Atom+Function  
  ----- ------------  ---------------      ----- ------------  ---------------
    30     -1.233545  1 P  dyz               27      1.175207  1 P  dxy        
    36      1.171416  1 P  dyz               33     -1.116015  1 P  dxy        
    87     -0.909123  3 H  dxy               71      0.904542  2 H  dyz        
    45     -0.838835  1 P  fxxy              52      0.838849  1 P  fyzz       
    62     -0.221876  2 H  py                81      0.221873  3 H  py         
 
 Vector   75  Occ=0.000000D+00  E= 4.146687D+00
              MO Center=  2.4D-01,  2.5D-15,  2.3D-01, r^2= 1.6D+00
   Bfn.  Coefficient  Atom+Function         Bfn.  Coefficient  Atom+Function  
  ----- ------------  ---------------      ----- ------------  ---------------
     6      6.179662  1 P  s                 55     -4.038876  2 H  s          
    74     -4.038886  3 H  s                 16      3.620774  1 P  px         
    18      3.449577  1 P  pz                 5     -2.435081  1 P  s          
    32      1.530015  1 P  dxx               37      1.512368  1 P  dzz        
    47     -1.414257  1 P  fxyy              51     -1.347389  1 P  fyyz       
 
 Vector   76  Occ=0.000000D+00  E= 4.256506D+00
              MO Center=  5.6D-01,  1.9D-15,  5.3D-01, r^2= 2.0D+00
   Bfn.  Coefficient  Atom+Function         Bfn.  Coefficient  Atom+Function  
  ----- ------------  ---------------      ----- ------------  ---------------
    55      4.183229  2 H  s                 74     -4.183225  3 H  s          
    18     -3.457942  1 P  pz                16      3.294437  1 P  px         
    70     -1.258937  2 H  dyy               89      1.258940  3 H  dyy        
    67     -1.194273  2 H  dxx               91      1.188188  3 H  dzz        
    51      1.173169  1 P  fyyz              46      1.152590  1 P  fxxz       
 
 Vector   77  Occ=0.000000D+00  E= 4.371286D+00
              MO Center=  2.4D-01,  6.6D-15,  2.3D-01, r^2= 1.5D+00
   Bfn.  Coefficient  Atom+Function         Bfn.  Coefficient  Atom+Function  
  ----- ------------  ---------------      ----- ------------  ---------------
     5      2.889923  1 P  s                 37     -1.992407  1 P  dzz        
    32     -1.938577  1 P  dxx               53     -1.203575  1 P  fzzz       
     6     -1.190964  1 P  s                 86      1.196520  3 H  dxx        
    44     -1.170461  1 P  fxxx              72      1.169881  2 H  dzz        
    34      1.110820  1 P  dxz               28     -0.884618  1 P  dxz        
 
 Vector   78  Occ=0.000000D+00  E= 4.412441D+00
              MO Center=  4.1D-01,  1.7D-15,  3.9D-01, r^2= 1.3D+00
   Bfn.  Coefficient  Atom+Function         Bfn.  Coefficient  Atom+Function  
  ----- ------------  ---------------      ----- ------------  ---------------
    55      1.675445  2 H  s                 74      1.675433  3 H  s          
    34      1.514048  1 P  dxz                6     -1.504701  1 P  s          
    16     -1.505892  1 P  px                18     -1.434700  1 P  pz         
    46      1.347711  1 P  fxxz              49      1.324963  1 P  fxzz       
    28     -1.262263  1 P  dxz               69      0.954768  2 H  dxz        
 
 Vector   79  Occ=0.000000D+00  E= 5.039116D+00
              MO Center=  5.3D-02,  5.3D-15,  5.0D-02, r^2= 1.1D+00
   Bfn.  Coefficient  Atom+Function         Bfn.  Coefficient  Atom+Function  
  ----- ------------  ---------------      ----- ------------  ---------------
    32      2.199704  1 P  dxx               37     -2.199699  1 P  dzz        
    44      1.747602  1 P  fxxx              53     -1.736988  1 P  fzzz       
    56      1.395200  2 H  s                 75     -1.395202  3 H  s          
    63     -1.353187  2 H  pz                80      1.348437  3 H  px         
    72      1.183259  2 H  dzz               86     -1.177559  3 H  dxx        
 
 Vector   80  Occ=0.000000D+00  E= 8.271259D+00
              MO Center= -4.5D-02, -2.0D-14, -4.3D-02, r^2= 7.9D-01
   Bfn.  Coefficient  Atom+Function         Bfn.  Coefficient  Atom+Function  
  ----- ------------  ---------------      ----- ------------  ---------------
     5     18.835633  1 P  s                 32     -6.452796  1 P  dxx        
    37     -6.454064  1 P  dzz               35     -6.227661  1 P  dyy        
    29     -3.304774  1 P  dyy               26     -3.254531  1 P  dxx        
    31     -3.254172  1 P  dzz                3     -1.783989  1 P  s          
     6      1.174790  1 P  s                 22      1.005692  1 P  s          
 
 Vector   81  Occ=0.000000D+00  E= 8.394041D+00
              MO Center=  6.2D-01,  1.2D-15,  5.9D-01, r^2= 1.3D+00
   Bfn.  Coefficient  Atom+Function         Bfn.  Coefficient  Atom+Function  
  ----- ------------  ---------------      ----- ------------  ---------------
    58      0.902603  2 H  px                79     -0.902801  3 H  pz         
    61     -0.648482  2 H  px                82      0.649963  3 H  pz         
    85     -0.302635  3 H  pz                64      0.300576  2 H  px         
    49      0.216356  1 P  fxzz              21      0.199684  1 P  pz         
    19     -0.190242  1 P  px                46     -0.184430  1 P  fxxz       
 
 Vector   82  Occ=0.000000D+00  E= 8.421012D+00
              MO Center=  6.2D-01, -2.4D-17,  5.9D-01, r^2= 1.3D+00
   Bfn.  Coefficient  Atom+Function         Bfn.  Coefficient  Atom+Function  
  ----- ------------  ---------------      ----- ------------  ---------------
    59      0.906734  2 H  py                78     -0.906751  3 H  py         
    62     -0.671736  2 H  py                81      0.671749  3 H  py         
    45     -0.293667  1 P  fxxy              52      0.293664  1 P  fyzz       
    65      0.254956  2 H  py                84     -0.254962  3 H  py         
    36      0.182411  1 P  dyz               33     -0.173789  1 P  dxy        
 
 Vector   83  Occ=0.000000D+00  E= 8.440732D+00
              MO Center=  6.2D-01,  1.2D-15,  5.9D-01, r^2= 1.3D+00
   Bfn.  Coefficient  Atom+Function         Bfn.  Coefficient  Atom+Function  
  ----- ------------  ---------------      ----- ------------  ---------------
    59      0.907570  2 H  py                78      0.907552  3 H  py         
    62     -0.670921  2 H  py                81     -0.670907  3 H  py         
    65      0.285356  2 H  py                84      0.285351  3 H  py         
    20     -0.230871  1 P  py                45      0.219636  1 P  fxxy       
    52      0.220190  1 P  fyzz              33      0.172556  1 P  dxy        
 
 Vector   84  Occ=0.000000D+00  E= 8.553529D+00
              MO Center=  6.2D-01,  1.2D-16,  5.9D-01, r^2= 1.3D+00
   Bfn.  Coefficient  Atom+Function         Bfn.  Coefficient  Atom+Function  
  ----- ------------  ---------------      ----- ------------  ---------------
    58      0.913330  2 H  px                79      0.908408  3 H  pz         
    61     -0.734076  2 H  px                82     -0.728171  3 H  pz         
    34      0.467732  1 P  dxz                5     -0.354032  1 P  s          
     6      0.346045  1 P  s                 16      0.308472  1 P  px         
    46      0.308262  1 P  fxxz              18      0.293888  1 P  pz         
 
 Vector   85  Occ=0.000000D+00  E= 9.185533D+00
              MO Center=  5.7D-01, -1.7D-16,  5.4D-01, r^2= 1.4D+00
   Bfn.  Coefficient  Atom+Function         Bfn.  Coefficient  Atom+Function  
  ----- ------------  ---------------      ----- ------------  ---------------
    63      1.398794  2 H  pz                80     -1.397598  3 H  px         
    53      1.289872  1 P  fzzz              44     -1.267229  1 P  fxxx       
    18     -1.224049  1 P  pz                16      1.166174  1 P  px         
    32     -0.993754  1 P  dxx               37      0.993760  1 P  dzz        
    60     -0.988495  2 H  pz                77      0.988545  3 H  px         
 
 Vector   86  Occ=0.000000D+00  E= 9.330388D+00
              MO Center=  5.5D-01, -1.3D-15,  5.2D-01, r^2= 1.4D+00
   Bfn.  Coefficient  Atom+Function         Bfn.  Coefficient  Atom+Function  
  ----- ------------  ---------------      ----- ------------  ---------------
     5      3.166529  1 P  s                  6      1.819578  1 P  s          
    35     -1.622619  1 P  dyy               63      1.284202  2 H  pz         
    80      1.278705  3 H  px                55     -1.133555  2 H  s          
    74     -1.133551  3 H  s                 60     -0.970494  2 H  pz         
    77     -0.965321  3 H  px                44      0.832147  1 P  fxxx       
 
 Vector   87  Occ=0.000000D+00  E= 1.415717D+01
              MO Center= -8.4D-02,  4.8D-15, -8.0D-02, r^2= 2.5D-01
   Bfn.  Coefficient  Atom+Function         Bfn.  Coefficient  Atom+Function  
  ----- ------------  ---------------      ----- ------------  ---------------
    17      2.701007  1 P  py                45     -1.711821  1 P  fxxy       
    52     -1.711888  1 P  fyzz              50     -1.694406  1 P  fyyy       
    11     -1.591137  1 P  py                 8      1.225582  1 P  py         
    14      0.460017  1 P  py                20     -0.342230  1 P  py         
    24      0.145838  1 P  py         
 
 Vector   88  Occ=0.000000D+00  E= 1.438182D+01
              MO Center= -7.2D-02, -9.5D-17, -6.9D-02, r^2= 2.5D-01
   Bfn.  Coefficient  Atom+Function         Bfn.  Coefficient  Atom+Function  
  ----- ------------  ---------------      ----- ------------  ---------------
    16      2.477141  1 P  px                18      2.359882  1 P  pz         
    47     -1.419075  1 P  fxyy              49     -1.421118  1 P  fxzz       
    46     -1.384945  1 P  fxxz              51     -1.351901  1 P  fyyz       
    44     -1.218062  1 P  fxxx              10     -1.169033  1 P  px         
    53     -1.150039  1 P  fzzz              12     -1.113694  1 P  pz         
 
 Vector   89  Occ=0.000000D+00  E= 1.441187D+01
              MO Center= -6.8D-02,  6.6D-16, -6.4D-02, r^2= 2.5D-01
   Bfn.  Coefficient  Atom+Function         Bfn.  Coefficient  Atom+Function  
  ----- ------------  ---------------      ----- ------------  ---------------
    18     -2.441821  1 P  pz                16      2.326230  1 P  px         
    51      1.401953  1 P  fyyz              46      1.379665  1 P  fxxz       
    49     -1.348574  1 P  fxzz              47     -1.335587  1 P  fxyy       
    12      1.171424  1 P  pz                53      1.156206  1 P  fzzz       
    10     -1.115972  1 P  px                44     -1.090066  1 P  fxxx       
 
 Vector   90  Occ=0.000000D+00  E= 2.091786D+01
              MO Center= -8.4D-02, -5.5D-15, -8.0D-02, r^2= 3.1D-01
   Bfn.  Coefficient  Atom+Function         Bfn.  Coefficient  Atom+Function  
  ----- ------------  ---------------      ----- ------------  ---------------
     5     16.146527  1 P  s                  4     14.680575  1 P  s          
     3    -11.408106  1 P  s                 26     -6.605953  1 P  dxx        
    29     -6.609971  1 P  dyy               31     -6.605842  1 P  dzz        
    32     -4.907114  1 P  dxx               35     -4.906480  1 P  dyy        
    37     -4.907355  1 P  dzz                2      0.649278  1 P  s          
 
 Vector   91  Occ=0.000000D+00  E= 1.882978D+02
              MO Center= -8.3D-02, -8.2D-16, -7.9D-02, r^2= 3.9D-02
   Bfn.  Coefficient  Atom+Function         Bfn.  Coefficient  Atom+Function  
  ----- ------------  ---------------      ----- ------------  ---------------
     4      7.154647  1 P  s                  3     -6.024542  1 P  s          
     5      5.396489  1 P  s                 26     -2.674422  1 P  dxx        
    29     -2.677095  1 P  dyy               31     -2.674381  1 P  dzz        
     2      2.300138  1 P  s                 32     -1.661945  1 P  dxx        
    37     -1.662067  1 P  dzz               35     -1.653790  1 P  dyy        
 

 center of mass
 --------------
 x =  -0.07564361 y =   0.00000000 z =  -0.07206705

 moments of inertia (a.u.)
 ------------------
           7.047695790676           0.000000000000           0.559505460045
           0.000000000000          14.041180741426           0.000000000000
           0.559505460045           0.000000000000           6.993484950750
 
     Multipole analysis of the density
     ---------------------------------
 
     L   x y z        total         alpha         beta         nuclear
     -   - - -        -----         -----         ----         -------
     0   0 0 0      1.000000     -8.000000     -8.000000     17.000000
 
     1   1 0 0      0.242586      0.121293      0.121293      0.000000
     1   0 1 0      0.000000      0.000000      0.000000      0.000000
     1   0 0 1      0.231116      0.115558      0.115558     -0.000000
 
     2   2 0 0     -7.935181     -7.335994     -7.335994      6.736808
     2   1 1 0     -0.000000     -0.000000     -0.000000      0.000000
     2   1 0 1     -0.543059      0.102456      0.102456     -0.747971
     2   0 2 0     -6.754857     -3.377429     -3.377429      0.000000
     2   0 1 1     -0.000000     -0.000000     -0.000000      0.000000
     2   0 0 2     -7.882557     -7.345920     -7.345920      6.809283
 

 Parallel integral file used      91 records with       0 large values


 Task  times  cpu:        1.9s     wall:        2.7s
 
 
                                NWChem Input Module
                                -------------------
 
 
 Summary of allocated global arrays
-----------------------------------
  No active global arrays



                         GA Statistics for process    0
                         ------------------------------

       create   destroy   get      put      acc     scatter   gather  read&inc
calls:  152      152      836      682      236        0        0       76     
number of processes/call 3.13e+00 1.46e+00 4.13e+00 0.00e+00 0.00e+00
bytes total:             1.47e+07 2.91e+06 6.53e+06 0.00e+00 0.00e+00 6.08e+02
bytes remote:            7.95e+06 8.15e+05 3.96e+06 0.00e+00 0.00e+00 0.00e+00
Max memory consumed for GA by this process: 874072 bytes
 
MA_summarize_allocated_blocks: starting scan ...
MA_summarize_allocated_blocks: scan completed: 0 heap blocks, 0 stack blocks
MA usage statistics:

	allocation statistics:
					      heap	     stack
					      ----	     -----
	current number of blocks	         0	         0
	maximum number of blocks	        21	        53
	current total bytes		         0	         0
	maximum total bytes		  10382984	  23559848
	maximum total K-bytes		     10383	     23560
	maximum total M-bytes		        11	        24
 
 
                                     CITATION
                                     --------
                Please cite the following reference when publishing
                           results obtained with NWChem:
 
                 M. Valiev, E.J. Bylaska, N. Govind, K. Kowalski,
              T.P. Straatsma, H.J.J. van Dam, D. Wang, J. Nieplocha,
                        E. Apra, T.L. Windus, W.A. de Jong
                 "NWChem: a comprehensive and scalable open-source
                  solution for large scale molecular simulations"
                      Comput. Phys. Commun. 181, 1477 (2010)
                           doi:10.1016/j.cpc.2010.04.018
 
                                      AUTHORS
                                      -------
          E. Apra, E. J. Bylaska, W. A. de Jong, N. Govind, K. Kowalski,
       T. P. Straatsma, M. Valiev, H. J. J. van Dam, D. Wang, T. L. Windus,
        J. Hammond, J. Autschbach, K. Bhaskaran-Nair, J. Brabec, K. Lopata,
    S. A. Fischer, S. Krishnamoorthy, M. Jacquelin, W. Ma, M. Klemm, O. Villa,
      Y. Chen, V. Anisimov, F. Aquino, S. Hirata, M. T. Hackler, V. Konjkov,
            D. Mejia-Rodriguez, T. Risthaus, M. Malagoli, A. Marenich,
   A. Otero-de-la-Roza, J. Mullin, P. Nichols, R. Peverati, J. Pittner, Y. Zhao,
        P.-D. Fan, A. Fonari, M. J. Williamson, R. J. Harrison, J. R. Rehr,
      M. Dupuis, D. Silverstein, D. M. A. Smith, J. Nieplocha, V. Tipparaju,
    M. Krishnan, B. E. Van Kuiken, A. Vazquez-Mayagoitia, L. Jensen, M. Swart,
      Q. Wu, T. Van Voorhis, A. A. Auer, M. Nooijen, L. D. Crosby, E. Brown,
      G. Cisneros, G. I. Fann, H. Fruchtl, J. Garza, K. Hirao, R. A. Kendall,
      J. A. Nichols, K. Tsemekhman, K. Wolinski, J. Anchell, D. E. Bernholdt,
      P. Borowski, T. Clark, D. Clerc, H. Dachsel, M. J. O. Deegan, K. Dyall,
    D. Elwood, E. Glendening, M. Gutowski, A. C. Hess, J. Jaffe, B. G. Johnson,
     J. Ju, R. Kobayashi, R. Kutteh, Z. Lin, R. Littlefield, X. Long, B. Meng,
      T. Nakajima, S. Niu, L. Pollack, M. Rosing, K. Glaesemann, G. Sandrone,
      M. Stave, H. Taylor, G. Thomas, J. H. van Lenthe, A. T. Wong, Z. Zhang.

 Total times  cpu:        2.0s     wall:        3.1s
