 argument  1 = /storage/home/rabeet/work/nwc/ip13/nwtpss/PH2.nw
  NWChem w/ OpenMP: maximum threads =  1
                                         
                                         
 
 
              Northwest Computational Chemistry Package (NWChem) 6.8
              ------------------------------------------------------
 
 
                    Environmental Molecular Sciences Laboratory
                       Pacific Northwest National Laboratory
                                Richland, WA 99352
 
                              Copyright (c) 1994-2018
                       Pacific Northwest National Laboratory
                            Battelle Memorial Institute
 
             NWChem is an open-source computational chemistry package
                        distributed under the terms of the
                      Educational Community License (ECL) 2.0
             A copy of the license is included with this distribution
                              in the LICENSE.TXT file
 
                                  ACKNOWLEDGMENT
                                  --------------

            This software and its documentation were developed at the
            EMSL at Pacific Northwest National Laboratory, a multiprogram
            national laboratory, operated for the U.S. Department of Energy
            by Battelle under Contract Number DE-AC05-76RL01830. Support
            for this work was provided by the Department of Energy Office
            of Biological and Environmental Research, Office of Basic
            Energy Sciences, and the Office of Advanced Scientific Computing.


           Job information
           ---------------

    hostname        = r8n4.niserhpc.org
    program         = /home/rabeet/nwchem-6.8/bin/LINUX64/nwchem
    date            = Sun Oct 27 10:44:31 2019

    compiled        = Fri_Jun_28_18:24:12_2019
    source          = /home/rabeet/nwchem-6.8
    nwchem branch   = Development
    nwchem revision = N/A
    ga revision     = 5.6.5
    use scalapack   = T
    input           = /storage/home/rabeet/work/nwc/ip13/nwtpss/PH2.nw
    prefix          = PH2.
    data base       = ./PH2.db
    status          = startup
    nproc           =       16
    time left       =     -1s



           Memory information
           ------------------

    heap     =   13107196 doubles =    100.0 Mbytes
    stack    =   13107201 doubles =    100.0 Mbytes
    global   =   26214400 doubles =    200.0 Mbytes (distinct from heap & stack)
    total    =   52428797 doubles =    400.0 Mbytes
    verify   = yes
    hardfail = no 


           Directory information
           ---------------------
 
  0 permanent = .
  0 scratch   = .
 
 
 
 
                                NWChem Input Module
                                -------------------
 
 

 Scaling coordinates for geometry "geometry" by  1.889725989
 (inverse scale =  0.529177249)


          ------
          auto-z
          ------
  no constraints, skipping   0.000000000000000E+000
  no constraints, skipping   0.000000000000000E+000
 
 
                             Geometry "geometry" -> ""
                             -------------------------
 
 Output coordinates in angstroms (scale by  1.889725989 to convert to a.u.)
 
  No.       Tag          Charge          X              Y              Z
 ---- ---------------- ---------- -------------- -------------- --------------
    1 P                   15.0000     0.00000000     0.00000000    -0.11565765
    2 H                    1.0000     1.02013000     0.00000000     0.86743235
    3 H                    1.0000    -1.02013000     0.00000000     0.86743235
 
      Atomic Mass 
      ----------- 
 
      P                 30.973760
      H                  1.007825
 

 Effective nuclear repulsion energy (a.u.)      11.4649527488

            Nuclear Dipole moment (a.u.) 
            ----------------------------
        X                 Y               Z
 ---------------- ---------------- ----------------
     0.0000000000     0.0000000000     0.0000000000
 


                                Z-matrix (autoz)
                                -------- 

 Units are Angstrom for bonds and degrees for angles
 
      Type          Name      I     J     K     L     M      Value
      ----------- --------  ----- ----- ----- ----- ----- ----------
    1 Stretch                  1     2                       1.41673
    2 Stretch                  1     3                       1.41673
    3 Bend                     2     1     3                92.11858
 
 
            XYZ format geometry
            -------------------
     3
 geometry
 P                     0.00000000     0.00000000    -0.11565765
 H                     1.02013000     0.00000000     0.86743235
 H                    -1.02013000     0.00000000     0.86743235
 
 ==============================================================================
                                internuclear distances
 ------------------------------------------------------------------------------
       center one      |      center two      | atomic units |  angstroms
 ------------------------------------------------------------------------------
    2 H                |   1 P                |     2.67724  |     1.41673
    3 H                |   1 P                |     2.67724  |     1.41673
 ------------------------------------------------------------------------------
                         number of included internuclear distances:          2
 ==============================================================================



 ==============================================================================
                                 internuclear angles
 ------------------------------------------------------------------------------
        center 1       |       center 2       |       center 3       |  degrees
 ------------------------------------------------------------------------------
    2 H                |   1 P                |   3 H                |    92.12
 ------------------------------------------------------------------------------
                            number of included internuclear angles:          1
 ==============================================================================





 Summary of "ao basis" -> "" (cartesian)
 ------------------------------------------------------------------------------
       Tag                 Description            Shells   Functions and Types
 ---------------- ------------------------------  ------  ---------------------
 *                     6-311++G(3df,3pd)              on all atoms 


 
                                 NWChem DFT Module
                                 -----------------
 
 
                      Basis "ao basis" -> "ao basis" (cartesian)
                      -----
  P (Phosphorous)
  ---------------
            Exponent  Coefficients 
       -------------- ---------------------------------------------------------
  1 S  7.74924000E+04  0.000781
  1 S  1.16058000E+04  0.006068
  1 S  2.64596000E+03  0.031160
  1 S  7.54976000E+02  0.123431
  1 S  2.48755000E+02  0.378209
  1 S  9.11565000E+01  0.563262
 
  2 S  9.11565000E+01  0.160255
  2 S  3.62257000E+01  0.627647
  2 S  1.52113000E+01  0.263849
 
  3 S  4.79417000E+00  1.000000
 
  4 S  1.80793000E+00  1.000000
 
  5 S  3.56816000E-01  1.000000
 
  6 S  1.14783000E-01  1.000000
 
  7 P  3.84843000E+02  0.009206
  7 P  9.05521000E+01  0.069874
  7 P  2.91339000E+01  0.292470
  7 P  1.08862000E+01  0.728103
 
  8 P  4.35259000E+00  0.628349
  8 P  1.77706000E+00  0.428044
 
  9 P  6.97005000E-01  1.000000
 
 10 P  2.53532000E-01  1.000000
 
 11 P  6.84930000E-02  1.000000
 
 12 S  3.48000000E-02  1.000000
 
 13 P  3.48000000E-02  1.000000
 
 14 D  2.20000000E+00  1.000000
 
 15 D  5.50000000E-01  1.000000
 
 16 D  1.37500000E-01  1.000000
 
 17 F  4.50000000E-01  1.000000
 
  H (Hydrogen)
  ------------
            Exponent  Coefficients 
       -------------- ---------------------------------------------------------
  1 S  3.38650000E+01  0.025494
  1 S  5.09479000E+00  0.190373
  1 S  1.15879000E+00  0.852161
 
  2 S  3.25840000E-01  1.000000
 
  3 S  1.02741000E-01  1.000000
 
  4 S  3.60000000E-02  1.000000
 
  5 P  3.00000000E+00  1.000000
 
  6 P  7.50000000E-01  1.000000
 
  7 P  1.87500000E-01  1.000000
 
  8 D  1.00000000E+00  1.000000
 


 Summary of "ao basis" -> "ao basis" (cartesian)
 ------------------------------------------------------------------------------
       Tag                 Description            Shells   Functions and Types
 ---------------- ------------------------------  ------  ---------------------
 P                     6-311++G(3df,3pd)            17       53   7s6p3d1f
 H                     6-311++G(3df,3pd)             8       19   4s3p1d




 Summary of "ao basis" -> "ao basis" (cartesian)
 ------------------------------------------------------------------------------
       Tag                 Description            Shells   Functions and Types
 ---------------- ------------------------------  ------  ---------------------
 P                     6-311++G(3df,3pd)            17       53   7s6p3d1f
 H                     6-311++G(3df,3pd)             8       19   4s3p1d


  Caching 1-el integrals 
 
            General Information
            -------------------
          SCF calculation type: DFT
          Wavefunction type:  spin polarized.
          No. of atoms     :     3
          No. of electrons :    17
           Alpha electrons :     9
            Beta electrons :     8
          Charge           :     0
          Spin multiplicity:     2
          Use of symmetry is: off; symmetry adaption is: off
          Maximum number of iterations: ***
          AO basis - number of functions:    91
                     number of shells:    33
          Convergence on energy requested:  1.00D-06
          Convergence on density requested:  1.00D-05
          Convergence on gradient requested:  5.00D-04
 
              XC Information
              --------------
                  TPSS metaGGA Exchange Functional  1.000          
             TPSS03 metaGGA Correlation Functional  1.000          
 
             Grid Information
             ----------------
          Grid used for XC integration:  medium    
          Radial quadrature: Mura-Knowles        
          Angular quadrature: Lebedev. 
          Tag              B.-S. Rad. Rad. Pts. Rad. Cut. Ang. Pts.
          ---              ---------- --------- --------- ---------
          P                   1.00       88          11.0       590
          H                   0.35       45          11.0       434
          Grid pruning is: on 
          Number of quadrature shells:   178
          Spatial weights used:  Erf1
 
          Convergence Information
          -----------------------
          Convergence aids based upon iterative change in 
          total energy or number of iterations. 
          Levelshifting, if invoked, occurs when the 
          HOMO/LUMO gap drops below (HL_TOL):  1.00D-02
          DIIS, if invoked, will attempt to extrapolate 
          using up to (NFOCK): 10 stored Fock matrices.

                    Damping( 0%)  Levelshifting(0.5)       DIIS
                  --------------- ------------------- ---------------
          dE  on:    start            ASAP                start   
          dE off:    2 iters        *** iters           *** iters 

 
      Screening Tolerance Information
      -------------------------------
          Density screening/tol_rho:  1.00D-10
          AO Gaussian exp screening on grid/accAOfunc:  14
          CD Gaussian exp screening on grid/accCDfunc:  20
          XC Gaussian exp screening on grid/accXCfunc:  20
          Schwarz screening/accCoul:  1.00D-08

 
      Superposition of Atomic Density Guess
      -------------------------------------
 
 Sum of atomic energies:        -341.65011194
 
      Non-variational initial energy
      ------------------------------

 Total energy =    -341.683907
 1-e energy   =    -494.847257
 2-e energy   =     141.698398
 HOMO         =      -0.198355
 LUMO         =       0.038294
 
   Time after variat. SCF:      2.1
   Time prior to 1st pass:      2.1

 Integral file          = ./PH2.aoints.00
 Record size in doubles =    65536    No. of integs per rec  =    43688
 Max. records in memory =       19    Max. records in file   =  8902802
 No. of bits per label  =        8    No. of bits per value  =       64


 #quartets = 1.549D+05 #integrals = 4.198D+06 #direct =  0.0% #cached =100.0%


File balance: exchanges=    24  moved=    10  time=   0.0


 Grid_pts file          = ./PH2.gridpts.00
 Record size in doubles =  12289        No. of grid_pts per rec  =   3070
 Max. records in memory =      4        Max. recs in file   =    313895


           Memory utilization after 1st SCF pass: 
           Heap Space remaining (MW):       11.81            11809236
          Stack Space remaining (MW):       13.11            13106308

   convergence    iter        energy       DeltaE   RMS-Dens  Diis-err    time
 ---------------- ----- ----------------- --------- --------- ---------  ------
 d= 0,ls=0.0,diis     1   -342.5250651338 -3.54D+02  3.17D-03  1.30D-01     3.4
                                                     1.90D-03  1.18D-01
 d= 0,ls=0.0,diis     2   -342.5410257325 -1.60D-02  1.27D-03  4.31D-03     3.6
                                                     1.09D-03  4.04D-03
 d= 0,ls=0.0,diis     3   -342.5427454653 -1.72D-03  4.53D-04  2.38D-03     3.8
                                                     3.29D-04  1.94D-03
 d= 0,ls=0.0,diis     4   -342.5438515240 -1.11D-03  4.23D-05  8.67D-06     4.0
                                                     4.21D-05  8.98D-06
 d= 0,ls=0.0,diis     5   -342.5438566854 -5.16D-06  2.18D-05  6.37D-07     4.2
                                                     1.83D-05  9.33D-07
 d= 0,ls=0.0,diis     6   -342.5438572276 -5.42D-07  6.69D-06  3.69D-07     4.4
                                                     5.78D-06  3.07D-07


         Total DFT energy =     -342.543857227646
      One electron energy =     -495.780180083939
           Coulomb energy =      165.744473889550
          Exchange energy =      -23.365285225388
       Correlation energy =       -0.607818556689
 Nuclear repulsion energy =       11.464952748821

 Numeric. integr. density =       17.000007956879

     Total iterative time =      2.3s


 
                    DFT Final Alpha Molecular Orbital Analysis
                    ------------------------------------------
 
 Vector    1  Occ=1.000000D+00  E=-7.659527D+01
              MO Center=  1.2D-14, -6.9D-18, -1.2D-01, r^2= 4.1D-03
   Bfn.  Coefficient  Atom+Function         Bfn.  Coefficient  Atom+Function  
  ----- ------------  ---------------      ----- ------------  ---------------
     2      0.645124  1 P  s                  1      0.419612  1 P  s          
 
 Vector    2  Occ=1.000000D+00  E=-6.378308D+00
              MO Center=  5.3D-12,  1.6D-16, -1.1D-01, r^2= 9.0D-02
   Bfn.  Coefficient  Atom+Function         Bfn.  Coefficient  Atom+Function  
  ----- ------------  ---------------      ----- ------------  ---------------
     4      0.591747  1 P  s                  3      0.506823  1 P  s          
     2     -0.312539  1 P  s                  5      0.128680  1 P  s          
     1     -0.119813  1 P  s                  6     -0.050552  1 P  s          
 
 Vector    3  Occ=1.000000D+00  E=-4.560758D+00
              MO Center=  6.7D-13, -2.5D-15, -1.2D-01, r^2= 8.3D-02
   Bfn.  Coefficient  Atom+Function         Bfn.  Coefficient  Atom+Function  
  ----- ------------  ---------------      ----- ------------  ---------------
    11      0.680962  1 P  py                 8      0.407607  1 P  py         
    14      0.054318  1 P  py         
 
 Vector    4  Occ=1.000000D+00  E=-4.554849D+00
              MO Center= -9.3D-12,  3.3D-16, -1.2D-01, r^2= 8.3D-02
   Bfn.  Coefficient  Atom+Function         Bfn.  Coefficient  Atom+Function  
  ----- ------------  ---------------      ----- ------------  ---------------
    10      0.681268  1 P  px                 7      0.407447  1 P  px         
    13      0.053570  1 P  px         
 
 Vector    5  Occ=1.000000D+00  E=-4.551327D+00
              MO Center=  4.8D-12,  3.3D-15, -1.2D-01, r^2= 8.3D-02
   Bfn.  Coefficient  Atom+Function         Bfn.  Coefficient  Atom+Function  
  ----- ------------  ---------------      ----- ------------  ---------------
    12      0.681299  1 P  pz                 9      0.407599  1 P  pz         
    15      0.053422  1 P  pz         
 
 Vector    6  Occ=1.000000D+00  E=-5.919700D-01
              MO Center= -3.9D-11, -1.6D-14,  2.6D-01, r^2= 1.2D+00
   Bfn.  Coefficient  Atom+Function         Bfn.  Coefficient  Atom+Function  
  ----- ------------  ---------------      ----- ------------  ---------------
     6      0.582215  1 P  s                  5      0.447649  1 P  s          
     4     -0.311499  1 P  s                  3     -0.186583  1 P  s          
    55      0.105962  2 H  s                 74      0.105962  3 H  s          
    54      0.091668  2 H  s                 73      0.091668  3 H  s          
     2      0.084616  1 P  s                 43     -0.080900  1 P  dzz        
 
 Vector    7  Occ=1.000000D+00  E=-3.594395D-01
              MO Center=  3.7D-10,  4.8D-14,  4.6D-01, r^2= 1.7D+00
   Bfn.  Coefficient  Atom+Function         Bfn.  Coefficient  Atom+Function  
  ----- ------------  ---------------      ----- ------------  ---------------
    16      0.340514  1 P  px                55      0.233003  2 H  s          
    74     -0.233003  3 H  s                 13      0.160169  1 P  px         
    54      0.139733  2 H  s                 73     -0.139733  3 H  s          
    10     -0.137625  1 P  px                56      0.132027  2 H  s          
    75     -0.132027  3 H  s                 19      0.116074  1 P  px         
 
 Vector    8  Occ=1.000000D+00  E=-2.833199D-01
              MO Center= -1.6D-10, -1.1D-14, -1.7D-01, r^2= 1.9D+00
   Bfn.  Coefficient  Atom+Function         Bfn.  Coefficient  Atom+Function  
  ----- ------------  ---------------      ----- ------------  ---------------
     6      0.522676  1 P  s                 18     -0.480786  1 P  pz         
     5      0.218461  1 P  s                 21     -0.198027  1 P  pz         
    55     -0.172790  2 H  s                 74     -0.172790  3 H  s          
     4     -0.154665  1 P  s                 15     -0.149803  1 P  pz         
    12      0.146719  1 P  pz                22      0.119139  1 P  s          
 
 Vector    9  Occ=1.000000D+00  E=-2.270186D-01
              MO Center=  2.2D-11,  1.9D-15, -5.8D-02, r^2= 1.8D+00
   Bfn.  Coefficient  Atom+Function         Bfn.  Coefficient  Atom+Function  
  ----- ------------  ---------------      ----- ------------  ---------------
    17      0.774482  1 P  py                20      0.325796  1 P  py         
    11     -0.183573  1 P  py                14      0.165538  1 P  py         
     8     -0.106883  1 P  py                52     -0.089632  1 P  fyzz       
    45     -0.083286  1 P  fxxy              50     -0.062636  1 P  fyyy       
    42      0.032450  1 P  dyz               24     -0.029339  1 P  py         
 
 Vector   10  Occ=0.000000D+00  E=-1.493680D-02
              MO Center=  1.4D-10, -9.6D-14,  5.2D-01, r^2= 9.7D+00
   Bfn.  Coefficient  Atom+Function         Bfn.  Coefficient  Atom+Function  
  ----- ------------  ---------------      ----- ------------  ---------------
    57     -1.500837  2 H  s                 76     -1.500837  3 H  s          
    22      1.473872  1 P  s                 25      0.802782  1 P  pz         
    56      0.271575  2 H  s                 75      0.271575  3 H  s          
     5      0.249575  1 P  s                 21     -0.160039  1 P  pz         
     4     -0.128009  1 P  s                 41      0.097584  1 P  dyy        
 
 Vector   11  Occ=0.000000D+00  E=-9.131536D-03
              MO Center=  4.1D-10, -1.1D-14, -1.4D-01, r^2= 4.6D+00
   Bfn.  Coefficient  Atom+Function         Bfn.  Coefficient  Atom+Function  
  ----- ------------  ---------------      ----- ------------  ---------------
    57      1.288927  2 H  s                 76     -1.288927  3 H  s          
    23     -0.898598  1 P  px                16     -0.747174  1 P  px         
    19     -0.428703  1 P  px                56      0.417262  2 H  s          
    75     -0.417262  3 H  s                 40      0.293043  1 P  dxz        
    34      0.223917  1 P  dxz               55      0.205485  2 H  s          
 
 Vector   12  Occ=0.000000D+00  E= 3.295321D-02
              MO Center= -4.9D-10, -5.1D-15,  5.1D-01, r^2= 1.4D+01
   Bfn.  Coefficient  Atom+Function         Bfn.  Coefficient  Atom+Function  
  ----- ------------  ---------------      ----- ------------  ---------------
    57      0.931938  2 H  s                 76     -0.931938  3 H  s          
    23      0.903558  1 P  px                19     -0.666736  1 P  px         
    16      0.176028  1 P  px                13     -0.154136  1 P  px         
    49     -0.139290  1 P  fxzz              44     -0.127417  1 P  fxxx       
    47     -0.121325  1 P  fxyy              56     -0.113041  2 H  s          
 
 Vector   13  Occ=0.000000D+00  E= 3.817590D-02
              MO Center= -5.6D-10,  1.4D-13, -5.4D-01, r^2= 1.3D+01
   Bfn.  Coefficient  Atom+Function         Bfn.  Coefficient  Atom+Function  
  ----- ------------  ---------------      ----- ------------  ---------------
    25      1.836821  1 P  pz                21     -0.828348  1 P  pz         
    22      0.668582  1 P  s                 57     -0.384449  2 H  s          
    76     -0.384449  3 H  s                 18      0.245592  1 P  pz         
    46     -0.160198  1 P  fxxz               6      0.157344  1 P  s          
    15     -0.141734  1 P  pz                53     -0.139898  1 P  fzzz       
 
 Vector   14  Occ=0.000000D+00  E= 3.832078D-02
              MO Center=  2.9D-11, -6.4D-13, -1.1D-01, r^2= 1.4D+01
   Bfn.  Coefficient  Atom+Function         Bfn.  Coefficient  Atom+Function  
  ----- ------------  ---------------      ----- ------------  ---------------
    24      1.654087  1 P  py                20     -0.926748  1 P  py         
    14     -0.173911  1 P  py                17      0.140213  1 P  py         
    50     -0.138887  1 P  fyyy              45     -0.137520  1 P  fxxy       
    52     -0.135128  1 P  fyzz              11      0.061234  1 P  py         
     8      0.035698  1 P  py                65      0.027298  2 H  py         
 
 Vector   15  Occ=0.000000D+00  E= 4.625411D-02
              MO Center= -5.2D-10,  5.8D-13,  1.9D-01, r^2= 7.3D+00
   Bfn.  Coefficient  Atom+Function         Bfn.  Coefficient  Atom+Function  
  ----- ------------  ---------------      ----- ------------  ---------------
    22      5.934777  1 P  s                 57     -2.301083  2 H  s          
    76     -2.301083  3 H  s                 56     -1.488523  2 H  s          
    75     -1.488523  3 H  s                 21      1.289184  1 P  pz         
     6      1.277330  1 P  s                 25      1.092545  1 P  pz         
    18      1.007419  1 P  pz                38     -0.274558  1 P  dxx        
 
 Vector   16  Occ=0.000000D+00  E= 9.518604D-02
              MO Center=  5.3D-10, -3.4D-15, -5.5D-02, r^2= 1.7D+01
   Bfn.  Coefficient  Atom+Function         Bfn.  Coefficient  Atom+Function  
  ----- ------------  ---------------      ----- ------------  ---------------
    57      5.687720  2 H  s                 76     -5.687720  3 H  s          
    23     -4.504784  1 P  px                19      2.359239  1 P  px         
    56     -2.121230  2 H  s                 75      2.121230  3 H  s          
    16      1.033206  1 P  px                40      0.495044  1 P  dxz        
    49     -0.230859  1 P  fxzz              66      0.227929  2 H  pz         
 
 Vector   17  Occ=0.000000D+00  E= 1.019083D-01
              MO Center=  1.2D-09,  5.1D-15,  4.5D-01, r^2= 1.5D+01
   Bfn.  Coefficient  Atom+Function         Bfn.  Coefficient  Atom+Function  
  ----- ------------  ---------------      ----- ------------  ---------------
    22     10.868241  1 P  s                 57     -6.048818  2 H  s          
    76     -6.048818  3 H  s                 25      4.223939  1 P  pz         
     6     -1.832828  1 P  s                 21     -1.697903  1 P  pz         
    56      1.681737  2 H  s                 75      1.681737  3 H  s          
    18     -0.815284  1 P  pz                43     -0.582214  1 P  dzz        
 
 Vector   18  Occ=0.000000D+00  E= 1.370957D-01
              MO Center=  1.0D-10, -6.3D-14,  3.4D-02, r^2= 3.1D+00
   Bfn.  Coefficient  Atom+Function         Bfn.  Coefficient  Atom+Function  
  ----- ------------  ---------------      ----- ------------  ---------------
    39      1.305585  1 P  dxy               33      0.346233  1 P  dxy        
    65      0.129653  2 H  py                84     -0.129653  3 H  py         
    27      0.090704  1 P  dxy               48      0.048945  1 P  fxyz       
 
 Vector   19  Occ=0.000000D+00  E= 1.379601D-01
              MO Center=  2.3D-10,  2.0D-14,  4.3D-02, r^2= 3.4D+00
   Bfn.  Coefficient  Atom+Function         Bfn.  Coefficient  Atom+Function  
  ----- ------------  ---------------      ----- ------------  ---------------
    22      1.038679  1 P  s                 57     -0.692851  2 H  s          
    76     -0.692851  3 H  s                  6     -0.560458  1 P  s          
    38     -0.556224  1 P  dxx               56      0.553908  2 H  s          
    75      0.553908  3 H  s                 21     -0.544714  1 P  pz         
    18     -0.501771  1 P  pz                43      0.495032  1 P  dzz        
 
 Vector   20  Occ=0.000000D+00  E= 1.430235D-01
              MO Center=  6.9D-12, -3.8D-14, -6.4D-02, r^2= 3.1D+00
   Bfn.  Coefficient  Atom+Function         Bfn.  Coefficient  Atom+Function  
  ----- ------------  ---------------      ----- ------------  ---------------
    42      1.333524  1 P  dyz               36      0.340750  1 P  dyz        
    17     -0.206128  1 P  py                65      0.120289  2 H  py         
    84      0.120289  3 H  py                30      0.090979  1 P  dyz        
    52      0.085626  1 P  fyzz              20     -0.073660  1 P  py         
    45      0.051286  1 P  fxxy              50      0.042414  1 P  fyyy       
 
 Vector   21  Occ=0.000000D+00  E= 2.296417D-01
              MO Center=  3.6D-10, -2.2D-13,  4.3D-01, r^2= 7.6D+00
   Bfn.  Coefficient  Atom+Function         Bfn.  Coefficient  Atom+Function  
  ----- ------------  ---------------      ----- ------------  ---------------
    22      5.182499  1 P  s                  6      4.175914  1 P  s          
    56     -3.784325  2 H  s                 75     -3.784325  3 H  s          
    18      2.244005  1 P  pz                21      2.135394  1 P  pz         
    41     -1.511732  1 P  dyy               57     -1.432957  2 H  s          
    76     -1.432957  3 H  s                 25      1.133048  1 P  pz         
 
 Vector   22  Occ=0.000000D+00  E= 2.424568D-01
              MO Center= -3.0D-09,  1.5D-14,  2.1D-02, r^2= 1.0D+01
   Bfn.  Coefficient  Atom+Function         Bfn.  Coefficient  Atom+Function  
  ----- ------------  ---------------      ----- ------------  ---------------
    19      3.132017  1 P  px                16     -2.101420  1 P  px         
    23     -1.897583  1 P  px                49      0.709085  1 P  fxzz       
    44      0.662369  1 P  fxxx              47      0.618511  1 P  fxyy       
    55     -0.344782  2 H  s                 74      0.344782  3 H  s          
    40      0.302858  1 P  dxz               13      0.273678  1 P  px         
 
 Vector   23  Occ=0.000000D+00  E= 2.501749D-01
              MO Center=  1.9D-09,  1.6D-13, -8.7D-01, r^2= 9.6D+00
   Bfn.  Coefficient  Atom+Function         Bfn.  Coefficient  Atom+Function  
  ----- ------------  ---------------      ----- ------------  ---------------
    21      4.531839  1 P  pz                 6      2.833242  1 P  s          
    25     -2.529306  1 P  pz                56     -2.103981  2 H  s          
    75     -2.103981  3 H  s                 18     -1.196321  1 P  pz         
    22     -0.893075  1 P  s                 57      0.838427  2 H  s          
    76      0.838427  3 H  s                 43      0.568413  1 P  dzz        
 
 Vector   24  Occ=0.000000D+00  E= 2.576469D-01
              MO Center= -5.5D-11,  4.3D-14, -1.2D-01, r^2= 9.7D+00
   Bfn.  Coefficient  Atom+Function         Bfn.  Coefficient  Atom+Function  
  ----- ------------  ---------------      ----- ------------  ---------------
    20     -3.073347  1 P  py                17      2.911415  1 P  py         
    24      1.864781  1 P  py                45     -0.873133  1 P  fxxy       
    52     -0.876112  1 P  fyzz              50     -0.855288  1 P  fyyy       
    14     -0.412973  1 P  py                11     -0.121605  1 P  py         
    42     -0.105464  1 P  dyz               65      0.083633  2 H  py         
 
 Vector   25  Occ=0.000000D+00  E= 3.189585D-01
              MO Center= -1.5D-10, -3.3D-15,  4.1D-01, r^2= 9.4D+00
   Bfn.  Coefficient  Atom+Function         Bfn.  Coefficient  Atom+Function  
  ----- ------------  ---------------      ----- ------------  ---------------
    56      6.926362  2 H  s                 75     -6.926362  3 H  s          
    19     -6.124982  1 P  px                57     -4.339088  2 H  s          
    76      4.339088  3 H  s                 40     -3.953737  1 P  dxz        
    23      3.746129  1 P  px                16     -2.425477  1 P  px         
    47      0.811622  1 P  fxyy              44      0.739749  1 P  fxxx       
 
 Vector   26  Occ=0.000000D+00  E= 3.859285D-01
              MO Center= -8.2D-11,  4.9D-15,  3.8D-01, r^2= 4.6D+00
   Bfn.  Coefficient  Atom+Function         Bfn.  Coefficient  Atom+Function  
  ----- ------------  ---------------      ----- ------------  ---------------
     6      3.139360  1 P  s                 22      2.491602  1 P  s          
    38     -2.200153  1 P  dxx               18      1.589146  1 P  pz         
    64      0.886951  2 H  px                83     -0.886951  3 H  px         
    57     -0.830996  2 H  s                 76     -0.830996  3 H  s          
    25      0.812081  1 P  pz                41     -0.761436  1 P  dyy        
 
 Vector   27  Occ=0.000000D+00  E= 4.030814D-01
              MO Center= -3.0D-09,  2.7D-14,  4.5D-01, r^2= 8.8D+00
   Bfn.  Coefficient  Atom+Function         Bfn.  Coefficient  Atom+Function  
  ----- ------------  ---------------      ----- ------------  ---------------
    22      7.531370  1 P  s                 56      5.422975  2 H  s          
    75      5.422975  3 H  s                 57     -4.242630  2 H  s          
    76     -4.242630  3 H  s                 21     -3.940255  1 P  pz         
    25      3.015895  1 P  pz                43     -2.841889  1 P  dzz        
     6     -2.538588  1 P  s                 38     -2.372245  1 P  dxx        
 
 Vector   28  Occ=0.000000D+00  E= 4.206386D-01
              MO Center=  2.6D-09,  7.1D-15,  1.9D-01, r^2= 5.2D+00
   Bfn.  Coefficient  Atom+Function         Bfn.  Coefficient  Atom+Function  
  ----- ------------  ---------------      ----- ------------  ---------------
    56      2.422124  2 H  s                 75     -2.422124  3 H  s          
    19     -1.919111  1 P  px                57     -1.912510  2 H  s          
    76      1.912510  3 H  s                 23      1.459964  1 P  px         
    16     -1.243378  1 P  px                66     -1.016098  2 H  pz         
    85      1.016098  3 H  pz                55     -0.836279  2 H  s          
 
 Vector   29  Occ=0.000000D+00  E= 4.348027D-01
              MO Center=  1.6D-09, -1.1D-14,  5.7D-01, r^2= 4.2D+00
   Bfn.  Coefficient  Atom+Function         Bfn.  Coefficient  Atom+Function  
  ----- ------------  ---------------      ----- ------------  ---------------
    39      2.016467  1 P  dxy               65     -1.229954  2 H  py         
    84      1.229954  3 H  py                33      0.103729  1 P  dxy        
    48     -0.053238  1 P  fxyz              62      0.045847  2 H  py         
    81     -0.045847  3 H  py                27      0.032770  1 P  dxy        
 
 Vector   30  Occ=0.000000D+00  E= 4.692046D-01
              MO Center= -1.6D-09,  1.6D-14,  6.3D-01, r^2= 4.4D+00
   Bfn.  Coefficient  Atom+Function         Bfn.  Coefficient  Atom+Function  
  ----- ------------  ---------------      ----- ------------  ---------------
    42      2.197926  1 P  dyz               17      1.549334  1 P  py         
    65     -1.431650  2 H  py                84     -1.431650  3 H  py         
    20      1.283949  1 P  py                45     -0.523397  1 P  fxxy       
    52     -0.496256  1 P  fyzz              50     -0.441361  1 P  fyyy       
    24     -0.348315  1 P  py                14     -0.307940  1 P  py         
 
 Vector   31  Occ=0.000000D+00  E= 5.116923D-01
              MO Center=  1.9D-09, -5.0D-15,  2.8D-01, r^2= 4.8D+00
   Bfn.  Coefficient  Atom+Function         Bfn.  Coefficient  Atom+Function  
  ----- ------------  ---------------      ----- ------------  ---------------
    43      2.562862  1 P  dzz               21      1.831881  1 P  pz         
     6     -1.397313  1 P  s                 66     -1.388056  2 H  pz         
    85     -1.388056  3 H  pz                18      0.898758  1 P  pz         
    55     -0.864294  2 H  s                 74     -0.864294  3 H  s          
    64      0.697362  2 H  px                83     -0.697362  3 H  px         
 
 Vector   32  Occ=0.000000D+00  E= 5.141567D-01
              MO Center= -1.2D-09,  8.3D-15,  7.7D-01, r^2= 4.3D+00
   Bfn.  Coefficient  Atom+Function         Bfn.  Coefficient  Atom+Function  
  ----- ------------  ---------------      ----- ------------  ---------------
    40      2.155161  1 P  dxz               55     -1.501947  2 H  s          
    74      1.501947  3 H  s                 64     -1.075028  2 H  px         
    83     -1.075028  3 H  px                19      1.016494  1 P  px         
    57     -0.991612  2 H  s                 76      0.991612  3 H  s          
    56      0.980070  2 H  s                 75     -0.980070  3 H  s          
 
 Vector   33  Occ=0.000000D+00  E= 6.935089D-01
              MO Center=  9.4D-11, -3.0D-15,  1.7D-01, r^2= 6.0D+00
   Bfn.  Coefficient  Atom+Function         Bfn.  Coefficient  Atom+Function  
  ----- ------------  ---------------      ----- ------------  ---------------
     6     14.560516  1 P  s                 18      8.894771  1 P  pz         
    56     -7.335728  2 H  s                 75     -7.335728  3 H  s          
    21      4.293630  1 P  pz                64      2.397885  2 H  px         
    83     -2.397885  3 H  px                51     -2.379588  1 P  fyyz       
    53     -2.353925  1 P  fzzz              41     -2.165818  1 P  dyy        
 
 Vector   34  Occ=0.000000D+00  E= 7.241184D-01
              MO Center= -3.9D-10, -9.5D-16,  3.2D-01, r^2= 6.6D+00
   Bfn.  Coefficient  Atom+Function         Bfn.  Coefficient  Atom+Function  
  ----- ------------  ---------------      ----- ------------  ---------------
    16     10.107956  1 P  px                56     -9.867141  2 H  s          
    75      9.867140  3 H  s                 40      6.576359  1 P  dxz        
    19      6.205336  1 P  px                57      2.937785  2 H  s          
    76     -2.937785  3 H  s                 47     -2.837831  1 P  fxyy       
    44     -2.785346  1 P  fxxx              49     -2.596620  1 P  fxzz       
 
 Vector   35  Occ=0.000000D+00  E= 8.103871D-01
              MO Center=  8.7D-12,  3.8D-14, -1.1D-01, r^2= 1.8D+00
   Bfn.  Coefficient  Atom+Function         Bfn.  Coefficient  Atom+Function  
  ----- ------------  ---------------      ----- ------------  ---------------
    33      1.695075  1 P  dxy               39     -1.282188  1 P  dxy        
    27      0.239141  1 P  dxy               62      0.104880  2 H  py         
    81     -0.104880  3 H  py                48      0.098580  1 P  fxyz       
    71     -0.034273  2 H  dyz               90      0.034273  3 H  dyz        
 
 Vector   36  Occ=0.000000D+00  E= 8.177163D-01
              MO Center= -2.3D-11,  3.6D-14, -1.1D-01, r^2= 1.8D+00
   Bfn.  Coefficient  Atom+Function         Bfn.  Coefficient  Atom+Function  
  ----- ------------  ---------------      ----- ------------  ---------------
    36      1.698643  1 P  dyz               42     -1.346697  1 P  dyz        
    17     -0.757476  1 P  py                52      0.365609  1 P  fyzz       
    45      0.302248  1 P  fxxy              50      0.253387  1 P  fyyy       
    30      0.239772  1 P  dyz               14      0.230117  1 P  py         
    20      0.110715  1 P  py                62      0.096776  2 H  py         
 
 Vector   37  Occ=0.000000D+00  E= 8.196800D-01
              MO Center= -8.0D-11, -1.8D-14, -1.9D-01, r^2= 1.9D+00
   Bfn.  Coefficient  Atom+Function         Bfn.  Coefficient  Atom+Function  
  ----- ------------  ---------------      ----- ------------  ---------------
     6      1.098953  1 P  s                 43      1.042504  1 P  dzz        
    18      0.895774  1 P  pz                37     -0.862931  1 P  dzz        
    32      0.773442  1 P  dxx               56     -0.626053  2 H  s          
    75     -0.626053  3 H  s                 21      0.586290  1 P  pz         
    38     -0.584317  1 P  dxx               55     -0.301387  2 H  s          
 
 Vector   38  Occ=0.000000D+00  E= 8.691588D-01
              MO Center=  1.3D-09, -2.6D-14,  1.9D-01, r^2= 4.0D+00
   Bfn.  Coefficient  Atom+Function         Bfn.  Coefficient  Atom+Function  
  ----- ------------  ---------------      ----- ------------  ---------------
    16      6.613460  1 P  px                44     -3.037396  1 P  fxxx       
    47     -2.944227  1 P  fxyy              49     -2.922387  1 P  fxzz       
    13     -2.446837  1 P  px                19     -1.989346  1 P  px         
    23      1.010271  1 P  px                34     -0.798906  1 P  dxz        
    56      0.718569  2 H  s                 75     -0.718569  3 H  s          
 
 Vector   39  Occ=0.000000D+00  E= 8.699425D-01
              MO Center= -1.0D-09,  6.8D-14,  1.7D-01, r^2= 3.6D+00
   Bfn.  Coefficient  Atom+Function         Bfn.  Coefficient  Atom+Function  
  ----- ------------  ---------------      ----- ------------  ---------------
    18      5.161532  1 P  pz                53     -2.445487  1 P  fzzz       
    51     -2.352145  1 P  fyyz              46     -2.264740  1 P  fxxz       
    22      2.239294  1 P  s                 15     -1.970448  1 P  pz         
    21     -1.866294  1 P  pz                25      1.430772  1 P  pz         
    57     -1.043497  2 H  s                 76     -1.043497  3 H  s          
 
 Vector   40  Occ=0.000000D+00  E= 9.174900D-01
              MO Center= -3.6D-12, -1.6D-13, -1.2D-01, r^2= 4.4D+00
   Bfn.  Coefficient  Atom+Function         Bfn.  Coefficient  Atom+Function  
  ----- ------------  ---------------      ----- ------------  ---------------
    17      9.136694  1 P  py                45     -3.906583  1 P  fxxy       
    52     -3.887002  1 P  fyzz              50     -3.820181  1 P  fyyy       
    14     -3.099914  1 P  py                20     -2.178782  1 P  py         
    24      0.996971  1 P  py                11      0.217486  1 P  py         
    65     -0.138034  2 H  py                84     -0.138034  3 H  py         
 
 Vector   41  Occ=0.000000D+00  E= 1.016661D+00
              MO Center=  4.9D-10,  1.1D-13,  3.8D-04, r^2= 3.6D+00
   Bfn.  Coefficient  Atom+Function         Bfn.  Coefficient  Atom+Function  
  ----- ------------  ---------------      ----- ------------  ---------------
    18     11.192049  1 P  pz                 6      4.873129  1 P  s          
    46     -4.754990  1 P  fxxz              53     -4.087593  1 P  fzzz       
    51     -3.529143  1 P  fyyz              15     -3.127140  1 P  pz         
    56     -3.070702  2 H  s                 75     -3.070702  3 H  s          
    64      1.342857  2 H  px                83     -1.342857  3 H  px         
 
 Vector   42  Occ=0.000000D+00  E= 1.106221D+00
              MO Center= -3.3D-10, -3.8D-15,  2.9D-02, r^2= 3.1D+00
   Bfn.  Coefficient  Atom+Function         Bfn.  Coefficient  Atom+Function  
  ----- ------------  ---------------      ----- ------------  ---------------
    16     10.096698  1 P  px                49     -4.515400  1 P  fxzz       
    44     -3.564075  1 P  fxxx              56     -3.571922  2 H  s          
    75      3.571922  3 H  s                 47     -2.751616  1 P  fxyy       
    13     -2.660781  1 P  px                66      1.492099  2 H  pz         
    85     -1.492099  3 H  pz                64      1.369698  2 H  px         
 
 Vector   43  Occ=0.000000D+00  E= 1.162136D+00
              MO Center=  2.0D-12, -2.1D-14, -1.6D-02, r^2= 4.0D+00
   Bfn.  Coefficient  Atom+Function         Bfn.  Coefficient  Atom+Function  
  ----- ------------  ---------------      ----- ------------  ---------------
     6     10.809390  1 P  s                 22      4.829007  1 P  s          
     5     -4.645513  1 P  s                 38     -4.632211  1 P  dxx        
    43     -4.574259  1 P  dzz               41     -3.984029  1 P  dyy        
    56      2.417623  2 H  s                 75      2.417623  3 H  s          
    57     -2.268680  2 H  s                 76     -2.268680  3 H  s          
 
 Vector   44  Occ=0.000000D+00  E= 1.276699D+00
              MO Center= -3.5D-11,  5.6D-15, -9.4D-02, r^2= 1.4D+00
   Bfn.  Coefficient  Atom+Function         Bfn.  Coefficient  Atom+Function  
  ----- ------------  ---------------      ----- ------------  ---------------
    52     -1.920743  1 P  fyzz              45      1.849860  1 P  fxxy       
    71     -0.071330  2 H  dyz               90     -0.071330  3 H  dyz        
    68      0.067194  2 H  dxy               87     -0.067194  3 H  dxy        
    42      0.058321  1 P  dyz               17      0.052866  1 P  py         
    65     -0.040368  2 H  py                84     -0.040368  3 H  py         
 
 Vector   45  Occ=0.000000D+00  E= 1.360186D+00
              MO Center=  3.4D-10, -1.3D-15,  8.0D-02, r^2= 2.0D+00
   Bfn.  Coefficient  Atom+Function         Bfn.  Coefficient  Atom+Function  
  ----- ------------  ---------------      ----- ------------  ---------------
    47      1.976649  1 P  fxyy              49      1.573143  1 P  fxzz       
    16     -0.897885  1 P  px                19     -0.855260  1 P  px         
    44     -0.639730  1 P  fxxx              56      0.548076  2 H  s          
    75     -0.548076  3 H  s                 64      0.486647  2 H  px         
    83      0.486647  3 H  px                40     -0.481183  1 P  dxz        
 
 Vector   46  Occ=0.000000D+00  E= 1.387815D+00
              MO Center=  2.6D-09, -8.2D-17,  1.4D-01, r^2= 2.1D+00
   Bfn.  Coefficient  Atom+Function         Bfn.  Coefficient  Atom+Function  
  ----- ------------  ---------------      ----- ------------  ---------------
    48      3.657345  1 P  fxyz              39      1.065550  1 P  dxy        
    65     -0.743683  2 H  py                84      0.743683  3 H  py         
    62      0.299479  2 H  py                81     -0.299479  3 H  py         
    33     -0.266449  1 P  dxy               27     -0.064424  1 P  dxy        
    71      0.030398  2 H  dyz               90     -0.030398  3 H  dyz        
 
 Vector   47  Occ=0.000000D+00  E= 1.393313D+00
              MO Center= -2.4D-09,  3.4D-15,  5.9D-02, r^2= 2.0D+00
   Bfn.  Coefficient  Atom+Function         Bfn.  Coefficient  Atom+Function  
  ----- ------------  ---------------      ----- ------------  ---------------
    50      1.354559  1 P  fyyy              45     -1.173651  1 P  fxxy       
    52     -1.124969  1 P  fyzz              42     -1.112360  1 P  dyz        
    17     -1.088406  1 P  py                65      0.769441  2 H  py         
    84      0.769441  3 H  py                20     -0.580915  1 P  py         
    14      0.321998  1 P  py                36      0.217537  1 P  dyz        
 
 Vector   48  Occ=0.000000D+00  E= 1.405514D+00
              MO Center=  1.0D-11, -1.2D-15,  2.4D-02, r^2= 2.1D+00
   Bfn.  Coefficient  Atom+Function         Bfn.  Coefficient  Atom+Function  
  ----- ------------  ---------------      ----- ------------  ---------------
    51      2.473845  1 P  fyyz              43     -1.634901  1 P  dzz        
    18     -1.587518  1 P  pz                46      1.513407  1 P  fxxz       
    21     -1.234587  1 P  pz                56      1.102220  2 H  s          
    75      1.102220  3 H  s                 64     -0.609302  2 H  px         
    83      0.609302  3 H  px                66      0.564510  2 H  pz         
 
 Vector   49  Occ=0.000000D+00  E= 1.637759D+00
              MO Center=  1.3D-10,  3.5D-15, -5.9D-03, r^2= 2.8D+00
   Bfn.  Coefficient  Atom+Function         Bfn.  Coefficient  Atom+Function  
  ----- ------------  ---------------      ----- ------------  ---------------
    16     10.378003  1 P  px                47     -5.220488  1 P  fxyy       
    56     -4.988976  2 H  s                 75      4.988976  3 H  s          
    40      4.613153  1 P  dxz               44     -3.034175  1 P  fxxx       
    19      2.772051  1 P  px                13     -2.645624  1 P  px         
    55     -2.570025  2 H  s                 74      2.570025  3 H  s          
 
 Vector   50  Occ=0.000000D+00  E= 1.675449D+00
              MO Center=  7.1D-11,  1.3D-14,  6.5D-02, r^2= 2.7D+00
   Bfn.  Coefficient  Atom+Function         Bfn.  Coefficient  Atom+Function  
  ----- ------------  ---------------      ----- ------------  ---------------
     6     10.688725  1 P  s                 18      9.319835  1 P  pz         
    51     -4.698768  1 P  fyyz              56     -3.997053  2 H  s          
    75     -3.997053  3 H  s                 53     -2.936208  1 P  fzzz       
    15     -2.395250  1 P  pz                55     -2.247534  2 H  s          
    74     -2.247534  3 H  s                 21      1.818639  1 P  pz         
 
 Vector   51  Occ=0.000000D+00  E= 1.860778D+00
              MO Center=  1.8D-09, -4.8D-16,  6.1D-01, r^2= 2.6D+00
   Bfn.  Coefficient  Atom+Function         Bfn.  Coefficient  Atom+Function  
  ----- ------------  ---------------      ----- ------------  ---------------
    16      3.660306  1 P  px                40      2.545036  1 P  dxz        
    55     -2.549828  2 H  s                 74      2.549828  3 H  s          
    19      2.065435  1 P  px                56     -1.996083  2 H  s          
    75      1.996083  3 H  s                 66      1.191573  2 H  pz         
    85     -1.191573  3 H  pz                44     -1.069480  1 P  fxxx       
 
 Vector   52  Occ=0.000000D+00  E= 1.876212D+00
              MO Center= -6.9D-09, -2.8D-15,  6.7D-01, r^2= 3.0D+00
   Bfn.  Coefficient  Atom+Function         Bfn.  Coefficient  Atom+Function  
  ----- ------------  ---------------      ----- ------------  ---------------
     6      6.579322  1 P  s                 18      5.135610  1 P  pz         
    55     -4.016870  2 H  s                 74     -4.016870  3 H  s          
    21      2.111368  1 P  pz                56     -2.073995  2 H  s          
    75     -2.073995  3 H  s                 15     -1.510081  1 P  pz         
    64      1.501665  2 H  px                83     -1.501665  3 H  px         
 
 Vector   53  Occ=0.000000D+00  E= 1.918703D+00
              MO Center=  3.8D-09,  1.5D-15,  6.9D-01, r^2= 2.1D+00
   Bfn.  Coefficient  Atom+Function         Bfn.  Coefficient  Atom+Function  
  ----- ------------  ---------------      ----- ------------  ---------------
    17      1.001931  1 P  py                50     -0.946237  1 P  fyyy       
    62     -0.943912  2 H  py                81     -0.943912  3 H  py         
    20     -0.618140  1 P  py                65      0.560975  2 H  py         
    84      0.560975  3 H  py                45      0.319819  1 P  fxxy       
    36      0.301316  1 P  dyz               42     -0.290065  1 P  dyz        
 
 Vector   54  Occ=0.000000D+00  E= 1.963336D+00
              MO Center= -4.1D-09, -9.7D-16,  6.2D-01, r^2= 2.1D+00
   Bfn.  Coefficient  Atom+Function         Bfn.  Coefficient  Atom+Function  
  ----- ------------  ---------------      ----- ------------  ---------------
    48      2.611189  1 P  fxyz              62     -0.933531  2 H  py         
    81      0.933531  3 H  py                65      0.440970  2 H  py         
    84     -0.440970  3 H  py                33      0.285039  1 P  dxy        
    27      0.137550  1 P  dxy               39     -0.109664  1 P  dxy        
    59      0.059240  2 H  py                78     -0.059240  3 H  py         
 
 Vector   55  Occ=0.000000D+00  E= 2.059784D+00
              MO Center=  1.7D-09,  2.2D-15,  5.8D-01, r^2= 2.7D+00
   Bfn.  Coefficient  Atom+Function         Bfn.  Coefficient  Atom+Function  
  ----- ------------  ---------------      ----- ------------  ---------------
    55      3.261484  2 H  s                 74     -3.261484  3 H  s          
    49      1.444514  1 P  fxzz              16     -1.371364  1 P  px         
    54     -1.205749  2 H  s                 73      1.205749  3 H  s          
    40     -1.049988  1 P  dxz               47     -0.794761  1 P  fxyy       
    64     -0.754460  2 H  px                83     -0.754460  3 H  px         
 
 Vector   56  Occ=0.000000D+00  E= 2.097074D+00
              MO Center=  3.1D-09, -1.5D-15,  5.5D-01, r^2= 2.4D+00
   Bfn.  Coefficient  Atom+Function         Bfn.  Coefficient  Atom+Function  
  ----- ------------  ---------------      ----- ------------  ---------------
     6      2.598446  1 P  s                 18      2.361110  1 P  pz         
    55     -2.220845  2 H  s                 74     -2.220845  3 H  s          
    46     -2.144951  1 P  fxxz              15     -0.792046  1 P  pz         
    54      0.773741  2 H  s                 73      0.773741  3 H  s          
    66      0.704205  2 H  pz                85      0.704205  3 H  pz         
 
 Vector   57  Occ=0.000000D+00  E= 2.390695D+00
              MO Center=  1.4D-09,  6.5D-15,  6.5D-01, r^2= 2.3D+00
   Bfn.  Coefficient  Atom+Function         Bfn.  Coefficient  Atom+Function  
  ----- ------------  ---------------      ----- ------------  ---------------
    16      4.277500  1 P  px                47     -2.635612  1 P  fxyy       
    55     -2.208618  2 H  s                 74      2.208618  3 H  s          
    44     -1.854074  1 P  fxxx              34      1.067637  1 P  dxz        
    56      1.045430  2 H  s                 75     -1.045430  3 H  s          
    40      1.024795  1 P  dxz               49     -0.792706  1 P  fxzz       
 
 Vector   58  Occ=0.000000D+00  E= 2.513697D+00
              MO Center= -8.7D-10,  3.2D-13,  5.8D-01, r^2= 2.4D+00
   Bfn.  Coefficient  Atom+Function         Bfn.  Coefficient  Atom+Function  
  ----- ------------  ---------------      ----- ------------  ---------------
    18      8.640856  1 P  pz                 6      7.568384  1 P  s          
    51     -4.375771  1 P  fyyz              55     -3.565390  2 H  s          
    74     -3.565390  3 H  s                 53     -3.367272  1 P  fzzz       
    41     -2.146473  1 P  dyy               46     -1.843391  1 P  fxxz       
    22      1.558130  1 P  s                 15     -1.457377  1 P  pz         
 
 Vector   59  Occ=0.000000D+00  E= 2.524362D+00
              MO Center= -1.1D-11, -3.4D-13, -9.9D-02, r^2= 2.0D+00
   Bfn.  Coefficient  Atom+Function         Bfn.  Coefficient  Atom+Function  
  ----- ------------  ---------------      ----- ------------  ---------------
    17      8.751011  1 P  py                45     -4.968573  1 P  fxxy       
    50     -4.988819  1 P  fyyy              52     -4.975505  1 P  fyzz       
    20     -1.158223  1 P  py                14     -0.901195  1 P  py         
    24      0.499571  1 P  py                11     -0.420663  1 P  py         
     8     -0.208189  1 P  py                42      0.165547  1 P  dyz        
 
 Vector   60  Occ=0.000000D+00  E= 2.650297D+00
              MO Center= -7.6D-11, -3.4D-15, -6.0D-02, r^2= 2.1D+00
   Bfn.  Coefficient  Atom+Function         Bfn.  Coefficient  Atom+Function  
  ----- ------------  ---------------      ----- ------------  ---------------
    18     11.375928  1 P  pz                46     -7.466726  1 P  fxxz       
    53     -5.838995  1 P  fzzz              51     -5.540327  1 P  fyyz       
    15     -1.944542  1 P  pz                56     -1.907835  2 H  s          
    75     -1.907835  3 H  s                  6      1.207578  1 P  s          
    43      1.168109  1 P  dzz               64      0.838339  2 H  px         
 
 Vector   61  Occ=0.000000D+00  E= 2.686692D+00
              MO Center=  5.2D-10, -5.4D-16, -6.6D-02, r^2= 2.1D+00
   Bfn.  Coefficient  Atom+Function         Bfn.  Coefficient  Atom+Function  
  ----- ------------  ---------------      ----- ------------  ---------------
    16     13.209055  1 P  px                49     -7.760902  1 P  fxzz       
    44     -6.535390  1 P  fxxx              47     -5.979802  1 P  fxyy       
    13     -2.356690  1 P  px                56     -2.306624  2 H  s          
    75      2.306624  3 H  s                 40      1.690748  1 P  dxz        
    55     -1.345136  2 H  s                 74      1.345136  3 H  s          
 
 Vector   62  Occ=0.000000D+00  E= 3.026825D+00
              MO Center=  1.4D-09,  8.2D-16,  8.6D-01, r^2= 1.6D+00
   Bfn.  Coefficient  Atom+Function         Bfn.  Coefficient  Atom+Function  
  ----- ------------  ---------------      ----- ------------  ---------------
    68      0.929218  2 H  dxy               87      0.929218  3 H  dxy        
    71     -0.808443  2 H  dyz               90      0.808443  3 H  dyz        
    39     -0.179204  1 P  dxy               27     -0.085016  1 P  dxy        
    48      0.080695  1 P  fxyz              33      0.031997  1 P  dxy        
 
 Vector   63  Occ=0.000000D+00  E= 3.116027D+00
              MO Center=  4.2D-09,  2.1D-15,  8.1D-01, r^2= 1.7D+00
   Bfn.  Coefficient  Atom+Function         Bfn.  Coefficient  Atom+Function  
  ----- ------------  ---------------      ----- ------------  ---------------
    18      0.774626  1 P  pz                70     -0.631218  2 H  dyy        
    89     -0.631218  3 H  dyy                5     -0.592782  1 P  s          
    69     -0.583178  2 H  dxz               88      0.583178  3 H  dxz        
    53     -0.563298  1 P  fzzz              22     -0.522612  1 P  s          
    37      0.428446  1 P  dzz               35      0.404892  1 P  dyy        
 
 Vector   64  Occ=0.000000D+00  E= 3.207121D+00
              MO Center= -4.7D-09, -4.0D-16,  8.1D-01, r^2= 1.7D+00
   Bfn.  Coefficient  Atom+Function         Bfn.  Coefficient  Atom+Function  
  ----- ------------  ---------------      ----- ------------  ---------------
    16      1.967368  1 P  px                49     -1.377112  1 P  fxzz       
    47     -1.161898  1 P  fxyy              44     -0.666501  1 P  fxxx       
    69      0.648832  2 H  dxz               88      0.648832  3 H  dxz        
    56     -0.635059  2 H  s                 75      0.635059  3 H  s          
    70      0.580652  2 H  dyy               89     -0.580652  3 H  dyy        
 
 Vector   65  Occ=0.000000D+00  E= 3.225647D+00
              MO Center= -9.3D-10,  1.8D-15,  8.0D-01, r^2= 1.7D+00
   Bfn.  Coefficient  Atom+Function         Bfn.  Coefficient  Atom+Function  
  ----- ------------  ---------------      ----- ------------  ---------------
    71      1.023657  2 H  dyz               90      1.023657  3 H  dyz        
    45      0.884119  1 P  fxxy              68     -0.765272  2 H  dxy        
    87      0.765272  3 H  dxy               52     -0.571892  1 P  fyzz       
    17     -0.209769  1 P  py                42     -0.197949  1 P  dyz        
    50      0.108313  1 P  fyyy              30     -0.087384  1 P  dyz        
 
 Vector   66  Occ=0.000000D+00  E= 3.332651D+00
              MO Center= -1.2D-09,  5.1D-14, -4.3D-02, r^2= 1.7D+00
   Bfn.  Coefficient  Atom+Function         Bfn.  Coefficient  Atom+Function  
  ----- ------------  ---------------      ----- ------------  ---------------
     5      8.689356  1 P  s                  6      7.220352  1 P  s          
    32     -5.059323  1 P  dxx               37     -5.026104  1 P  dzz        
    35     -4.885112  1 P  dyy               38     -2.492141  1 P  dxx        
    43     -2.443972  1 P  dzz                4     -2.338516  1 P  s          
    41     -2.236666  1 P  dyy               22      2.208406  1 P  s          
 
 Vector   67  Occ=0.000000D+00  E= 3.485126D+00
              MO Center=  8.0D-09, -5.0D-15,  5.2D-01, r^2= 1.6D+00
   Bfn.  Coefficient  Atom+Function         Bfn.  Coefficient  Atom+Function  
  ----- ------------  ---------------      ----- ------------  ---------------
    48      2.023698  1 P  fxyz              27      0.901813  1 P  dxy        
    71      0.904594  2 H  dyz               90     -0.904594  3 H  dyz        
    68      0.844351  2 H  dxy               87      0.844351  3 H  dxy        
    39      0.656770  1 P  dxy               65     -0.333952  2 H  py         
    84      0.333952  3 H  py                62     -0.096347  2 H  py         
 
 Vector   68  Occ=0.000000D+00  E= 3.503190D+00
              MO Center= -8.1D-09,  1.5D-14,  5.2D-01, r^2= 1.6D+00
   Bfn.  Coefficient  Atom+Function         Bfn.  Coefficient  Atom+Function  
  ----- ------------  ---------------      ----- ------------  ---------------
    52      1.161984  1 P  fyzz              45      1.111296  1 P  fxxy       
    68      0.963186  2 H  dxy               87     -0.963186  3 H  dxy        
    30      0.881366  1 P  dyz               71      0.776133  2 H  dyz        
    90      0.776133  3 H  dyz               42      0.666418  1 P  dyz        
    17     -0.434448  1 P  py                65     -0.357837  2 H  py         
 
 Vector   69  Occ=0.000000D+00  E= 3.506932D+00
              MO Center= -1.2D-08, -7.5D-15,  3.4D-01, r^2= 1.5D+00
   Bfn.  Coefficient  Atom+Function         Bfn.  Coefficient  Atom+Function  
  ----- ------------  ---------------      ----- ------------  ---------------
    43      0.778858  1 P  dzz               53      0.735588  1 P  fzzz       
    31      0.648879  1 P  dzz                5     -0.602855  1 P  s          
    72      0.578044  2 H  dzz               91      0.578044  3 H  dzz        
    46     -0.569423  1 P  fxxz              67     -0.504562  2 H  dxx        
    86     -0.504562  3 H  dxx               26     -0.486521  1 P  dxx        
 
 Vector   70  Occ=0.000000D+00  E= 3.523678D+00
              MO Center=  1.3D-08,  9.2D-16,  7.4D-01, r^2= 1.8D+00
   Bfn.  Coefficient  Atom+Function         Bfn.  Coefficient  Atom+Function  
  ----- ------------  ---------------      ----- ------------  ---------------
    44      1.106516  1 P  fxxx              49     -0.716157  1 P  fxzz       
    16     -0.710158  1 P  px                67      0.712978  2 H  dxx        
    86     -0.712978  3 H  dxx               72     -0.691841  2 H  dzz        
    91      0.691841  3 H  dzz               64     -0.269917  2 H  px         
    83     -0.269917  3 H  px                56      0.212399  2 H  s          
 
 Vector   71  Occ=0.000000D+00  E= 4.046840D+00
              MO Center= -2.9D-09,  7.8D-15,  6.3D-01, r^2= 1.7D+00
   Bfn.  Coefficient  Atom+Function         Bfn.  Coefficient  Atom+Function  
  ----- ------------  ---------------      ----- ------------  ---------------
    18      3.199395  1 P  pz                 6      2.296385  1 P  s          
    55     -2.127971  2 H  s                 74     -2.127971  3 H  s          
    56     -1.931650  2 H  s                 75     -1.931650  3 H  s          
    21      1.370968  1 P  pz                69     -1.294864  2 H  dxz        
    88      1.294864  3 H  dxz               32      1.241745  1 P  dxx        
 
 Vector   72  Occ=0.000000D+00  E= 4.070879D+00
              MO Center=  3.7D-09,  7.3D-15,  6.7D-01, r^2= 1.6D+00
   Bfn.  Coefficient  Atom+Function         Bfn.  Coefficient  Atom+Function  
  ----- ------------  ---------------      ----- ------------  ---------------
    16      3.974808  1 P  px                56     -2.214366  2 H  s          
    75      2.214366  3 H  s                 55     -2.167012  2 H  s          
    74      2.167012  3 H  s                 40      1.772686  1 P  dxz        
    19      1.498716  1 P  px                47     -1.459766  1 P  fxyy       
    69     -1.207943  2 H  dxz               88     -1.207943  3 H  dxz        
 
 Vector   73  Occ=0.000000D+00  E= 4.270350D+00
              MO Center=  1.2D-09, -5.9D-15,  1.4D-01, r^2= 8.9D-01
   Bfn.  Coefficient  Atom+Function         Bfn.  Coefficient  Atom+Function  
  ----- ------------  ---------------      ----- ------------  ---------------
    30      1.765577  1 P  dyz               36     -1.579049  1 P  dyz        
    52     -0.835677  1 P  fyzz              45     -0.747761  1 P  fxxy       
    68     -0.673431  2 H  dxy               87      0.673431  3 H  dxy        
    71     -0.449466  2 H  dyz               90     -0.449466  3 H  dyz        
    17      0.311656  1 P  py                42      0.186918  1 P  dyz        
 
 Vector   74  Occ=0.000000D+00  E= 4.293479D+00
              MO Center= -1.4D-09, -1.0D-14,  1.2D-01, r^2= 9.3D-01
   Bfn.  Coefficient  Atom+Function         Bfn.  Coefficient  Atom+Function  
  ----- ------------  ---------------      ----- ------------  ---------------
    27      1.757624  1 P  dxy               33     -1.609320  1 P  dxy        
    48     -1.571056  1 P  fxyz              71     -0.663521  2 H  dyz        
    90      0.663521  3 H  dyz               68     -0.521678  2 H  dxy        
    87     -0.521678  3 H  dxy               62      0.211928  2 H  py         
    81     -0.211928  3 H  py                39      0.153698  1 P  dxy        
 
 Vector   75  Occ=0.000000D+00  E= 4.455962D+00
              MO Center=  1.9D-08,  1.1D-15,  3.8D-01, r^2= 1.6D+00
   Bfn.  Coefficient  Atom+Function         Bfn.  Coefficient  Atom+Function  
  ----- ------------  ---------------      ----- ------------  ---------------
     6      5.933797  1 P  s                 18      4.943579  1 P  pz         
    55     -3.989540  2 H  s                 74     -3.989540  3 H  s          
    51     -1.902486  1 P  fyyz               5     -1.811194  1 P  s          
    37      1.279338  1 P  dzz               53     -1.111139  1 P  fzzz       
    56     -0.996249  2 H  s                 75     -0.996249  3 H  s          
 
 Vector   76  Occ=0.000000D+00  E= 4.522315D+00
              MO Center= -3.1D-08,  4.8D-15,  7.7D-01, r^2= 2.0D+00
   Bfn.  Coefficient  Atom+Function         Bfn.  Coefficient  Atom+Function  
  ----- ------------  ---------------      ----- ------------  ---------------
    16      4.819165  1 P  px                55     -4.140711  2 H  s          
    74      4.140711  3 H  s                 47     -1.635802  1 P  fxyy       
    44     -1.602001  1 P  fxxx              49     -1.587158  1 P  fxzz       
    40      1.525732  1 P  dxz               70      1.271145  2 H  dyy        
    89     -1.271145  3 H  dyy               72      1.180696  2 H  dzz        
 
 Vector   77  Occ=0.000000D+00  E= 4.654745D+00
              MO Center=  3.9D-09, -5.0D-15,  3.0D-01, r^2= 1.4D+00
   Bfn.  Coefficient  Atom+Function         Bfn.  Coefficient  Atom+Function  
  ----- ------------  ---------------      ----- ------------  ---------------
     5      3.088055  1 P  s                 46     -3.015911  1 P  fxxz       
    32     -2.507181  1 P  dxx               37     -1.666064  1 P  dzz        
     6     -1.538483  1 P  s                 72      1.074205  2 H  dzz        
    91      1.074205  3 H  dzz               29     -0.922906  1 P  dyy        
    56      0.868945  2 H  s                 75      0.868945  3 H  s          
 
 Vector   78  Occ=0.000000D+00  E= 4.713928D+00
              MO Center=  7.1D-09,  1.2D-15,  4.7D-01, r^2= 1.2D+00
   Bfn.  Coefficient  Atom+Function         Bfn.  Coefficient  Atom+Function  
  ----- ------------  ---------------      ----- ------------  ---------------
    18      1.809434  1 P  pz                53     -1.389983  1 P  fzzz       
    55     -1.353583  2 H  s                 74     -1.353583  3 H  s          
     6      1.294687  1 P  s                 37     -1.291641  1 P  dzz        
    67      1.062600  2 H  dxx               86      1.062600  3 H  dxx        
    26     -0.745743  1 P  dxx               31      0.677168  1 P  dzz        
 
 Vector   79  Occ=0.000000D+00  E= 5.341978D+00
              MO Center=  5.4D-11,  2.5D-15,  5.1D-02, r^2= 1.1D+00
   Bfn.  Coefficient  Atom+Function         Bfn.  Coefficient  Atom+Function  
  ----- ------------  ---------------      ----- ------------  ---------------
    34      4.388180  1 P  dxz               49      3.836735  1 P  fxzz       
    28     -1.949254  1 P  dxz               56     -1.330662  2 H  s          
    75      1.330662  3 H  s                 40      1.108456  1 P  dxz        
    19      1.058242  1 P  px                44      1.057023  1 P  fxxx       
    61      1.008048  2 H  px                69     -1.004675  2 H  dxz        
 
 Vector   80  Occ=0.000000D+00  E= 8.602585D+00
              MO Center=  1.6D-09, -7.2D-14, -4.6D-02, r^2= 8.0D-01
   Bfn.  Coefficient  Atom+Function         Bfn.  Coefficient  Atom+Function  
  ----- ------------  ---------------      ----- ------------  ---------------
     5     18.697458  1 P  s                 32     -6.428336  1 P  dxx        
    37     -6.397501  1 P  dzz               35     -6.147513  1 P  dyy        
    29     -3.286654  1 P  dyy               26     -3.221309  1 P  dxx        
    31     -3.230930  1 P  dzz                3     -1.775404  1 P  s          
     6      1.042370  1 P  s                 22      0.961462  1 P  s          
 
 Vector   81  Occ=0.000000D+00  E= 8.626615D+00
              MO Center=  5.0D-09, -3.3D-16,  8.6D-01, r^2= 1.3D+00
   Bfn.  Coefficient  Atom+Function         Bfn.  Coefficient  Atom+Function  
  ----- ------------  ---------------      ----- ------------  ---------------
    58      0.646757  2 H  px                77      0.646757  3 H  px         
    60     -0.629987  2 H  pz                79      0.629987  3 H  pz         
    61     -0.482732  2 H  px                80     -0.482732  3 H  px         
    63      0.434769  2 H  pz                82     -0.434769  3 H  pz         
    49     -0.306505  1 P  fxzz              19     -0.274092  1 P  px         
 
 Vector   82  Occ=0.000000D+00  E= 8.660802D+00
              MO Center=  7.5D-08,  1.3D-15,  8.6D-01, r^2= 1.3D+00
   Bfn.  Coefficient  Atom+Function         Bfn.  Coefficient  Atom+Function  
  ----- ------------  ---------------      ----- ------------  ---------------
    59      0.906741  2 H  py                78     -0.906741  3 H  py         
    62     -0.673843  2 H  py                81      0.673843  3 H  py         
    48      0.602505  1 P  fxyz              33      0.257664  1 P  dxy        
    65      0.253153  2 H  py                84     -0.253153  3 H  py         
    39     -0.135798  1 P  dxy               27     -0.105206  1 P  dxy        
 
 Vector   83  Occ=0.000000D+00  E= 8.682056D+00
              MO Center= -7.5D-08, -4.5D-15,  8.6D-01, r^2= 1.3D+00
   Bfn.  Coefficient  Atom+Function         Bfn.  Coefficient  Atom+Function  
  ----- ------------  ---------------      ----- ------------  ---------------
    59      0.907705  2 H  py                78      0.907705  3 H  py         
    62     -0.673742  2 H  py                81     -0.673742  3 H  py         
    65      0.282902  2 H  py                84      0.282902  3 H  py         
    36      0.247625  1 P  dyz               45      0.231649  1 P  fxxy       
    20     -0.228015  1 P  py                52      0.227025  1 P  fyzz       
 
 Vector   84  Occ=0.000000D+00  E= 8.791103D+00
              MO Center= -6.0D-09,  2.1D-15,  8.5D-01, r^2= 1.3D+00
   Bfn.  Coefficient  Atom+Function         Bfn.  Coefficient  Atom+Function  
  ----- ------------  ---------------      ----- ------------  ---------------
     5      0.802206  1 P  s                 60     -0.713904  2 H  pz         
    79     -0.713904  3 H  pz                46      0.624953  1 P  fxxz       
    63      0.601829  2 H  pz                82      0.601829  3 H  pz         
    58      0.574368  2 H  px                77     -0.574368  3 H  px         
    37     -0.436976  1 P  dzz               61     -0.439099  2 H  px         
 
 Vector   85  Occ=0.000000D+00  E= 9.359148D+00
              MO Center=  4.4D-09, -1.0D-15,  8.0D-01, r^2= 1.4D+00
   Bfn.  Coefficient  Atom+Function         Bfn.  Coefficient  Atom+Function  
  ----- ------------  ---------------      ----- ------------  ---------------
    49      2.351157  1 P  fxzz              34      2.000044  1 P  dxz        
    16     -1.583462  1 P  px                44      1.187605  1 P  fxxx       
    61      0.997368  2 H  px                80      0.997368  3 H  px         
    63      0.979467  2 H  pz                82     -0.979467  3 H  pz         
    55     -0.830512  2 H  s                 74      0.830512  3 H  s          
 
 Vector   86  Occ=0.000000D+00  E= 9.511606D+00
              MO Center= -5.3D-09,  9.3D-14,  7.5D-01, r^2= 1.4D+00
   Bfn.  Coefficient  Atom+Function         Bfn.  Coefficient  Atom+Function  
  ----- ------------  ---------------      ----- ------------  ---------------
     5      3.803097  1 P  s                  6      1.893062  1 P  s          
    35     -1.832470  1 P  dyy               46      1.646140  1 P  fxxz       
    55     -1.163481  2 H  s                 74     -1.163481  3 H  s          
    61      0.979402  2 H  px                80     -0.979402  3 H  px         
    32     -0.912632  1 P  dxx               31     -0.899726  1 P  dzz        
 
 Vector   87  Occ=0.000000D+00  E= 1.453142D+01
              MO Center= -2.0D-13,  2.2D-14, -1.2D-01, r^2= 2.5D-01
   Bfn.  Coefficient  Atom+Function         Bfn.  Coefficient  Atom+Function  
  ----- ------------  ---------------      ----- ------------  ---------------
    17      2.690567  1 P  py                45     -1.706317  1 P  fxxy       
    52     -1.705407  1 P  fyzz              50     -1.689329  1 P  fyyy       
    11     -1.590902  1 P  py                 8      1.225679  1 P  py         
    14      0.461079  1 P  py                20     -0.339563  1 P  py         
    24      0.144617  1 P  py                42      0.025491  1 P  dyz        
 
 Vector   88  Occ=0.000000D+00  E= 1.474462D+01
              MO Center=  7.8D-12,  9.6D-16, -1.0D-01, r^2= 2.5D-01
   Bfn.  Coefficient  Atom+Function         Bfn.  Coefficient  Atom+Function  
  ----- ------------  ---------------      ----- ------------  ---------------
    18      3.406287  1 P  pz                51     -1.952304  1 P  fyyz       
    53     -1.820423  1 P  fzzz              12     -1.614266  1 P  pz         
    46     -1.516851  1 P  fxxz               9      1.224315  1 P  pz         
     6      0.942506  1 P  s                 55     -0.506258  2 H  s          
    74     -0.506258  3 H  s                 15      0.421100  1 P  pz         
 
 Vector   89  Occ=0.000000D+00  E= 1.476950D+01
              MO Center= -5.2D-11,  4.0D-18, -9.5D-02, r^2= 2.5D-01
   Bfn.  Coefficient  Atom+Function         Bfn.  Coefficient  Atom+Function  
  ----- ------------  ---------------      ----- ------------  ---------------
    16      3.359981  1 P  px                47     -1.929617  1 P  fxyy       
    44     -1.757676  1 P  fxxx              10     -1.617050  1 P  px         
    49     -1.418426  1 P  fxzz               7      1.224062  1 P  px         
    34      0.553446  1 P  dxz               55     -0.521569  2 H  s          
    74      0.521569  3 H  s                 40      0.476809  1 P  dxz        
 
 Vector   90  Occ=0.000000D+00  E= 2.127595D+01
              MO Center=  2.8D-12,  1.3D-14, -1.2D-01, r^2= 3.1D-01
   Bfn.  Coefficient  Atom+Function         Bfn.  Coefficient  Atom+Function  
  ----- ------------  ---------------      ----- ------------  ---------------
     5     16.130891  1 P  s                  4     14.681660  1 P  s          
     3    -11.406574  1 P  s                 26     -6.601607  1 P  dxx        
    29     -6.606710  1 P  dyy               31     -6.603693  1 P  dzz        
    32     -4.903753  1 P  dxx               35     -4.899763  1 P  dyy        
    37     -4.898927  1 P  dzz                2      0.649578  1 P  s          
 
 Vector   91  Occ=0.000000D+00  E= 1.886753D+02
              MO Center= -5.6D-13,  1.9D-15, -1.2D-01, r^2= 3.9D-02
   Bfn.  Coefficient  Atom+Function         Bfn.  Coefficient  Atom+Function  
  ----- ------------  ---------------      ----- ------------  ---------------
     4      7.154152  1 P  s                  3     -6.024107  1 P  s          
     5      5.395475  1 P  s                 26     -2.673759  1 P  dxx        
    29     -2.676783  1 P  dyy               31     -2.674503  1 P  dzz        
     2      2.300117  1 P  s                 32     -1.662757  1 P  dxx        
    35     -1.653567  1 P  dyy               37     -1.660519  1 P  dzz        
 
 
                     DFT Final Beta Molecular Orbital Analysis
                     -----------------------------------------
 
 Vector    1  Occ=1.000000D+00  E=-7.659110D+01
              MO Center=  1.2D-14, -7.7D-18, -1.2D-01, r^2= 4.1D-03
   Bfn.  Coefficient  Atom+Function         Bfn.  Coefficient  Atom+Function  
  ----- ------------  ---------------      ----- ------------  ---------------
     2      0.645134  1 P  s                  1      0.419627  1 P  s          
 
 Vector    2  Occ=1.000000D+00  E=-6.374529D+00
              MO Center=  4.4D-12, -2.1D-16, -1.1D-01, r^2= 9.0D-02
   Bfn.  Coefficient  Atom+Function         Bfn.  Coefficient  Atom+Function  
  ----- ------------  ---------------      ----- ------------  ---------------
     4      0.594255  1 P  s                  3      0.506254  1 P  s          
     2     -0.312446  1 P  s                  5      0.122149  1 P  s          
     1     -0.119790  1 P  s                  6     -0.049519  1 P  s          
 
 Vector    3  Occ=1.000000D+00  E=-4.552462D+00
              MO Center= -1.4D-11,  3.1D-16, -1.2D-01, r^2= 8.3D-02
   Bfn.  Coefficient  Atom+Function         Bfn.  Coefficient  Atom+Function  
  ----- ------------  ---------------      ----- ------------  ---------------
    10      0.681742  1 P  px                 7      0.407333  1 P  px         
    13      0.052832  1 P  px         
 
 Vector    4  Occ=1.000000D+00  E=-4.549151D+00
              MO Center=  9.3D-12, -5.7D-14, -1.2D-01, r^2= 8.3D-02
   Bfn.  Coefficient  Atom+Function         Bfn.  Coefficient  Atom+Function  
  ----- ------------  ---------------      ----- ------------  ---------------
    12      0.681787  1 P  pz                 9      0.407502  1 P  pz         
    15      0.052705  1 P  pz         
 
 Vector    5  Occ=1.000000D+00  E=-4.548878D+00
              MO Center=  7.1D-13,  5.8D-14, -1.2D-01, r^2= 8.3D-02
   Bfn.  Coefficient  Atom+Function         Bfn.  Coefficient  Atom+Function  
  ----- ------------  ---------------      ----- ------------  ---------------
    11      0.682411  1 P  py                 8      0.407092  1 P  py         
    14      0.051915  1 P  py         
 
 Vector    6  Occ=1.000000D+00  E=-5.644903D-01
              MO Center= -1.4D-10, -4.0D-15,  3.2D-01, r^2= 1.3D+00
   Bfn.  Coefficient  Atom+Function         Bfn.  Coefficient  Atom+Function  
  ----- ------------  ---------------      ----- ------------  ---------------
     6      0.475959  1 P  s                  5      0.425989  1 P  s          
     4     -0.306053  1 P  s                  3     -0.174314  1 P  s          
    55      0.138689  2 H  s                 74      0.138689  3 H  s          
    54      0.099070  2 H  s                 73      0.099070  3 H  s          
     2      0.081644  1 P  s                 41     -0.069206  1 P  dyy        
 
 Vector    7  Occ=1.000000D+00  E=-3.545097D-01
              MO Center= -5.7D-11, -2.7D-16,  4.8D-01, r^2= 1.7D+00
   Bfn.  Coefficient  Atom+Function         Bfn.  Coefficient  Atom+Function  
  ----- ------------  ---------------      ----- ------------  ---------------
    16      0.290098  1 P  px                55      0.249589  2 H  s          
    74     -0.249589  3 H  s                 13      0.164740  1 P  px         
    56      0.159510  2 H  s                 75     -0.159510  3 H  s          
    54      0.141651  2 H  s                 73     -0.141651  3 H  s          
    10     -0.134186  1 P  px                34      0.107386  1 P  dxz        
 
 Vector    8  Occ=1.000000D+00  E=-2.699167D-01
              MO Center= -2.4D-10, -9.3D-15, -2.6D-01, r^2= 1.9D+00
   Bfn.  Coefficient  Atom+Function         Bfn.  Coefficient  Atom+Function  
  ----- ------------  ---------------      ----- ------------  ---------------
     6      0.535309  1 P  s                 18     -0.465974  1 P  pz         
     5      0.225677  1 P  s                 21     -0.174619  1 P  pz         
     4     -0.168498  1 P  s                 55     -0.168796  2 H  s          
    74     -0.168796  3 H  s                 15     -0.153191  1 P  pz         
    12      0.146191  1 P  pz                22      0.128156  1 P  s          
 
 Vector    9  Occ=0.000000D+00  E=-1.485405D-01
              MO Center= -2.2D-11, -5.8D-15, -5.7D-02, r^2= 2.2D+00
   Bfn.  Coefficient  Atom+Function         Bfn.  Coefficient  Atom+Function  
  ----- ------------  ---------------      ----- ------------  ---------------
    17      0.695817  1 P  py                20      0.367560  1 P  py         
    11     -0.169447  1 P  py                14      0.154438  1 P  py         
     8     -0.100215  1 P  py                50     -0.087910  1 P  fyyy       
    52     -0.055960  1 P  fyzz              45     -0.051399  1 P  fxxy       
    65      0.040274  2 H  py                84      0.040274  3 H  py         
 
 Vector   10  Occ=0.000000D+00  E=-7.514860D-03
              MO Center= -3.7D-10, -5.5D-14,  6.5D-01, r^2= 1.0D+01
   Bfn.  Coefficient  Atom+Function         Bfn.  Coefficient  Atom+Function  
  ----- ------------  ---------------      ----- ------------  ---------------
    22      2.054537  1 P  s                 57     -1.816449  2 H  s          
    76     -1.816449  3 H  s                 25      0.986937  1 P  pz         
    56      0.312479  2 H  s                 75      0.312479  3 H  s          
     5      0.217156  1 P  s                 21     -0.207196  1 P  pz         
[...]
  ----- ------------  ---------------      ----- ------------  ---------------
    30      1.745888  1 P  dyz               36     -1.590679  1 P  dyz        
    52     -0.866134  1 P  fyzz              45     -0.774118  1 P  fxxy       
    68     -0.690695  2 H  dxy               87      0.690695  3 H  dxy        
    71     -0.465416  2 H  dyz               90     -0.465416  3 H  dyz        
    17      0.325480  1 P  py                62      0.196907  2 H  py         
 
 Vector   74  Occ=0.000000D+00  E= 4.325215D+00
              MO Center=  9.0D-10, -1.3D-14,  1.3D-01, r^2= 9.5D-01
   Bfn.  Coefficient  Atom+Function         Bfn.  Coefficient  Atom+Function  
  ----- ------------  ---------------      ----- ------------  ---------------
    27      1.737760  1 P  dxy               33     -1.621504  1 P  dxy        
    48     -1.624179  1 P  fxyz              71     -0.679680  2 H  dyz        
    90      0.679680  3 H  dyz               68     -0.538137  2 H  dxy        
    87     -0.538137  3 H  dxy               62      0.222477  2 H  py         
    81     -0.222477  3 H  py                39      0.143056  1 P  dxy        
 
 Vector   75  Occ=0.000000D+00  E= 4.487187D+00
              MO Center=  1.4D-08,  2.0D-15,  3.7D-01, r^2= 1.6D+00
   Bfn.  Coefficient  Atom+Function         Bfn.  Coefficient  Atom+Function  
  ----- ------------  ---------------      ----- ------------  ---------------
     6      5.961002  1 P  s                 18      4.897580  1 P  pz         
    55     -3.967232  2 H  s                 74     -3.967232  3 H  s          
    51     -1.897721  1 P  fyyz               5     -1.846789  1 P  s          
    37      1.304452  1 P  dzz               53     -1.075617  1 P  fzzz       
    56     -0.993206  2 H  s                 75     -0.993206  3 H  s          
 
 Vector   76  Occ=0.000000D+00  E= 4.560257D+00
              MO Center= -3.0D-08,  4.8D-15,  7.7D-01, r^2= 2.0D+00
   Bfn.  Coefficient  Atom+Function         Bfn.  Coefficient  Atom+Function  
  ----- ------------  ---------------      ----- ------------  ---------------
    16      4.662111  1 P  px                55     -4.074414  2 H  s          
    74      4.074414  3 H  s                 47     -1.585731  1 P  fxyy       
    44     -1.541963  1 P  fxxx              40      1.482677  1 P  dxz        
    49     -1.487939  1 P  fxzz              70      1.241665  2 H  dyy        
    89     -1.241665  3 H  dyy               72      1.172084  2 H  dzz        
 
 Vector   77  Occ=0.000000D+00  E= 4.699838D+00
              MO Center=  4.4D-09,  7.2D-16,  2.7D-01, r^2= 1.4D+00
   Bfn.  Coefficient  Atom+Function         Bfn.  Coefficient  Atom+Function  
  ----- ------------  ---------------      ----- ------------  ---------------
    46     -2.951952  1 P  fxxz               5      2.934448  1 P  s          
    32     -2.535943  1 P  dxx                6     -1.710292  1 P  s          
    37     -1.452651  1 P  dzz               72      1.066226  2 H  dzz        
    91      1.066226  3 H  dzz               56      0.892817  2 H  s          
    75      0.892817  3 H  s                 29     -0.868532  1 P  dyy        
 
 Vector   78  Occ=0.000000D+00  E= 4.754396D+00
              MO Center=  1.0D-08,  7.7D-16,  5.3D-01, r^2= 1.2D+00
   Bfn.  Coefficient  Atom+Function         Bfn.  Coefficient  Atom+Function  
  ----- ------------  ---------------      ----- ------------  ---------------
    18      1.801446  1 P  pz                37     -1.521120  1 P  dzz        
    53     -1.444814  1 P  fzzz              55     -1.393203  2 H  s          
    74     -1.393203  3 H  s                 67      1.156201  2 H  dxx        
    86      1.156201  3 H  dxx                5      1.032987  1 P  s          
     6      1.036890  1 P  s                 46     -0.706905  1 P  fxxz       
 
 Vector   79  Occ=0.000000D+00  E= 5.387544D+00
              MO Center=  3.5D-10,  1.2D-15,  6.0D-02, r^2= 1.1D+00
   Bfn.  Coefficient  Atom+Function         Bfn.  Coefficient  Atom+Function  
  ----- ------------  ---------------      ----- ------------  ---------------
    34      4.414512  1 P  dxz               49      3.872283  1 P  fxzz       
    28     -1.928600  1 P  dxz               56     -1.349659  2 H  s          
    75      1.349659  3 H  s                 40      1.125885  1 P  dxz        
    19      1.076933  1 P  px                44      1.072069  1 P  fxxx       
    69     -1.022886  2 H  dxz               88     -1.022886  3 H  dxz        
 
 Vector   80  Occ=0.000000D+00  E= 8.644702D+00
              MO Center=  9.3D-10, -8.6D-14, -6.4D-02, r^2= 7.8D-01
   Bfn.  Coefficient  Atom+Function         Bfn.  Coefficient  Atom+Function  
  ----- ------------  ---------------      ----- ------------  ---------------
     5     18.836733  1 P  s                 32     -6.453077  1 P  dxx        
    37     -6.430996  1 P  dzz               35     -6.210998  1 P  dyy        
    29     -3.308419  1 P  dyy               26     -3.250177  1 P  dxx        
    31     -3.256497  1 P  dzz                3     -1.784242  1 P  s          
     6      1.120358  1 P  s                 22      0.988759  1 P  s          
 
 Vector   81  Occ=0.000000D+00  E= 8.729768D+00
              MO Center= -9.7D-09,  1.3D-15,  8.6D-01, r^2= 1.3D+00
   Bfn.  Coefficient  Atom+Function         Bfn.  Coefficient  Atom+Function  
  ----- ------------  ---------------      ----- ------------  ---------------
    58      0.645762  2 H  px                77      0.645762  3 H  px         
    60     -0.630790  2 H  pz                79      0.630790  3 H  pz         
    61     -0.479194  2 H  px                80     -0.479194  3 H  px         
    63      0.434579  2 H  pz                82     -0.434579  3 H  pz         
    49     -0.299278  1 P  fxzz              19     -0.272989  1 P  px         
 
 Vector   82  Occ=0.000000D+00  E= 8.758679D+00
              MO Center= -4.1D-08, -6.5D-16,  8.6D-01, r^2= 1.3D+00
   Bfn.  Coefficient  Atom+Function         Bfn.  Coefficient  Atom+Function  
  ----- ------------  ---------------      ----- ------------  ---------------
    59      0.906593  2 H  py                78     -0.906593  3 H  py         
    62     -0.670343  2 H  py                81      0.670343  3 H  py         
    48      0.590844  1 P  fxyz              33      0.253102  1 P  dxy        
    65      0.253066  2 H  py                84     -0.253066  3 H  py         
    39     -0.136233  1 P  dxy               27     -0.102446  1 P  dxy        
 
 Vector   83  Occ=0.000000D+00  E= 8.780223D+00
              MO Center=  4.1D-08, -1.7D-15,  8.6D-01, r^2= 1.3D+00
   Bfn.  Coefficient  Atom+Function         Bfn.  Coefficient  Atom+Function  
  ----- ------------  ---------------      ----- ------------  ---------------
    59      0.907569  2 H  py                78      0.907569  3 H  py         
    62     -0.670416  2 H  py                81     -0.670416  3 H  py         
    65      0.282728  2 H  py                84      0.282728  3 H  py         
    36      0.243444  1 P  dyz               20     -0.228477  1 P  py         
    45      0.225128  1 P  fxxy              52      0.221065  1 P  fyzz       
 
 Vector   84  Occ=0.000000D+00  E= 8.891537D+00
              MO Center=  8.8D-09,  1.1D-15,  8.5D-01, r^2= 1.3D+00
   Bfn.  Coefficient  Atom+Function         Bfn.  Coefficient  Atom+Function  
  ----- ------------  ---------------      ----- ------------  ---------------
    60      0.710893  2 H  pz                79      0.710893  3 H  pz         
    46     -0.618269  1 P  fxxz              63     -0.596248  2 H  pz         
    82     -0.596248  3 H  pz                58     -0.578975  2 H  px         
    77      0.578975  3 H  px                 5     -0.450326  1 P  s          
    61      0.441378  2 H  px                80     -0.441378  3 H  px         
 
 Vector   85  Occ=0.000000D+00  E= 9.550961D+00
              MO Center= -7.1D-09,  1.9D-15,  7.9D-01, r^2= 1.4D+00
   Bfn.  Coefficient  Atom+Function         Bfn.  Coefficient  Atom+Function  
  ----- ------------  ---------------      ----- ------------  ---------------
    49      2.380254  1 P  fxzz              34      1.992555  1 P  dxz        
    16     -1.666072  1 P  px                44      1.217827  1 P  fxxx       
    61      0.997638  2 H  px                80      0.997638  3 H  px         
    63      0.978529  2 H  pz                82     -0.978529  3 H  pz         
    55     -0.772537  2 H  s                 74      0.772537  3 H  s          
 
 Vector   86  Occ=0.000000D+00  E= 9.702000D+00
              MO Center=  6.6D-09,  7.9D-14,  7.6D-01, r^2= 1.4D+00
   Bfn.  Coefficient  Atom+Function         Bfn.  Coefficient  Atom+Function  
  ----- ------------  ---------------      ----- ------------  ---------------
     5      3.109404  1 P  s                  6      1.796930  1 P  s          
    46      1.707980  1 P  fxxz              35     -1.600700  1 P  dyy        
    55     -1.116884  2 H  s                 74     -1.116884  3 H  s          
    61      0.985588  2 H  px                80     -0.985588  3 H  px         
    63      0.833879  2 H  pz                82      0.833879  3 H  pz         
 
 Vector   87  Occ=0.000000D+00  E= 1.454832D+01
              MO Center= -1.4D-13,  6.7D-15, -1.2D-01, r^2= 2.5D-01
   Bfn.  Coefficient  Atom+Function         Bfn.  Coefficient  Atom+Function  
  ----- ------------  ---------------      ----- ------------  ---------------
    17      2.685070  1 P  py                45     -1.704460  1 P  fxxy       
    52     -1.703568  1 P  fyzz              50     -1.685984  1 P  fyyy       
    11     -1.590914  1 P  py                 8      1.225683  1 P  py         
    14      0.463752  1 P  py                20     -0.339063  1 P  py         
    24      0.144340  1 P  py         
 
 Vector   88  Occ=0.000000D+00  E= 1.475655D+01
              MO Center= -3.6D-11,  3.2D-16, -1.0D-01, r^2= 2.5D-01
   Bfn.  Coefficient  Atom+Function         Bfn.  Coefficient  Atom+Function  
  ----- ------------  ---------------      ----- ------------  ---------------
    18      3.405903  1 P  pz                51     -1.951959  1 P  fyyz       
    53     -1.819317  1 P  fzzz              12     -1.614577  1 P  pz         
    46     -1.510458  1 P  fxxz               9      1.223798  1 P  pz         
     6      0.947409  1 P  s                 55     -0.508631  2 H  s          
    74     -0.508631  3 H  s                 15      0.424098  1 P  pz         
 
 Vector   89  Occ=0.000000D+00  E= 1.478160D+01
              MO Center= -2.6D-12, -1.2D-17, -9.4D-02, r^2= 2.5D-01
   Bfn.  Coefficient  Atom+Function         Bfn.  Coefficient  Atom+Function  
  ----- ------------  ---------------      ----- ------------  ---------------
    16      3.353719  1 P  px                47     -1.927007  1 P  fxyy       
    44     -1.753035  1 P  fxxx              10     -1.617301  1 P  px         
    49     -1.406733  1 P  fxzz               7      1.223527  1 P  px         
    34      0.565063  1 P  dxz               55     -0.523319  2 H  s          
    74      0.523319  3 H  s                 40      0.477672  1 P  dxz        
 
 Vector   90  Occ=0.000000D+00  E= 2.129470D+01
              MO Center=  9.7D-12,  2.1D-15, -1.2D-01, r^2= 3.1D-01
   Bfn.  Coefficient  Atom+Function         Bfn.  Coefficient  Atom+Function  
  ----- ------------  ---------------      ----- ------------  ---------------
     5     16.139907  1 P  s                  4     14.681782  1 P  s          
     3    -11.407371  1 P  s                 26     -6.603400  1 P  dxx        
    29     -6.608930  1 P  dyy               31     -6.605490  1 P  dzz        
    32     -4.905292  1 P  dxx               35     -4.901699  1 P  dyy        
    37     -4.900518  1 P  dzz                2      0.649382  1 P  s          
 
 Vector   91  Occ=0.000000D+00  E= 1.886811D+02
              MO Center= -5.9D-13,  9.5D-19, -1.2D-01, r^2= 3.9D-02
   Bfn.  Coefficient  Atom+Function         Bfn.  Coefficient  Atom+Function  
  ----- ------------  ---------------      ----- ------------  ---------------
     4      7.154552  1 P  s                  3     -6.024396  1 P  s          
     5      5.395899  1 P  s                 26     -2.673947  1 P  dxx        
    29     -2.676977  1 P  dyy               31     -2.674691  1 P  dzz        
     2      2.300132  1 P  s                 32     -1.662840  1 P  dxx        
    35     -1.653676  1 P  dyy               37     -1.660603  1 P  dzz        
 

   alpha - beta orbital overlaps 
   ----------------------------- 


   alpha      1      2      3      4      5      6      7      8      9     10
    beta      1      2      5      3      4      6      7      8      9     10
 overlap   1.000  1.000  1.000  1.000  1.000  0.997  1.000  0.998  0.995  0.996


   alpha     11     12     13     14     15     16     17     18     19     20
    beta     11     12     13     14     15     16     17     19     18     20
 overlap   0.999  1.000  0.974  0.996  0.962  0.999  0.983  0.999  0.996  0.999


   alpha     21     22     23     24     25     26     27     28     29     30
    beta     23     21     22     24     25     26     27     28     29     30
 overlap   0.951  0.999  0.959  0.997  1.000  0.996  0.996  0.999  0.999  0.999


   alpha     31     32     33     34     35     36     37     38     39     40
    beta     31     32     33     34     36     37     35     38     39     40
 overlap   0.999  0.999  0.996  1.000  1.000  0.999  0.996  1.000  0.990  0.999


   alpha     41     42     43     44     45     46     47     48     49     50
    beta     41     42     43     44     45     46     48     47     49     50
 overlap   0.994  0.999  0.998  1.000  0.998  1.000  0.999  0.998  0.999  0.999


   alpha     51     52     53     54     55     56     57     58     59     60
    beta     51     52     53     54     55     56     57     58     59     60
 overlap   1.000  1.000  1.000  1.000  1.000  1.000  1.000  0.999  1.000  1.000


   alpha     61     62     63     64     65     66     67     68     69     70
    beta     61     62     63     64     65     66     67     69     68     70
 overlap   1.000  1.000  1.000  1.000  1.000  1.000  1.000  1.000  1.000  1.000


   alpha     71     72     73     74     75     76     77     78     79     80
    beta     71     72     73     74     75     76     77     78     79     80
 overlap   0.999  0.999  1.000  1.000  1.000  0.999  0.989  0.989  1.000  0.999


   alpha     81     82     83     84     85     86     87     88     89     90
    beta     81     82     83     84     85     86     87     88     89     90
 overlap   1.000  1.000  1.000  1.000  1.000  0.999  1.000  1.000  1.000  1.000


   alpha     91
    beta     91
 overlap   1.000

     --------------------------
     Expectation value of S2:  
     --------------------------
      <S2> =      0.7570 (Exact =     0.7500)
 

 center of mass
 --------------
 x =   0.00000000 y =   0.00000000 z =  -0.10505164

 moments of inertia (a.u.)
 ------------------
           6.531587238255           0.000000000000           0.000000000000
           0.000000000000          14.022311891522           0.000000000000
           0.000000000000           0.000000000000           7.490724653267
 
     Multipole analysis of the density
     ---------------------------------
 
     L   x y z        total         alpha         beta         nuclear
     -   - - -        -----         -----         ----         -------
     0   0 0 0     -0.000000     -9.000000     -8.000000     17.000000
 
     1   1 0 0      0.000000     -0.000000      0.000000      0.000000
     1   0 1 0     -0.000000     -0.000000      0.000000      0.000000
     1   0 0 1      0.230670      0.151572      0.079098      0.000000
 
     2   2 0 0    -10.382773     -9.465132     -8.350206      7.432565
     2   1 1 0     -0.000000     -0.000000     -0.000000      0.000000
     2   1 0 1     -0.000000     -0.000000      0.000000      0.000000
     2   0 2 0    -11.205453     -7.670314     -3.535139      0.000000
     2   0 1 1     -0.000000     -0.000000     -0.000000      0.000000
     2   0 0 2    -11.527020     -9.317856     -8.299715      6.090551
 

 Parallel integral file used     104 records with       0 large values


 Task  times  cpu:        2.3s     wall:        2.9s
 
 
                                NWChem Input Module
                                -------------------
 
 
 Summary of allocated global arrays
-----------------------------------
  No active global arrays



                         GA Statistics for process    0
                         ------------------------------

       create   destroy   get      put      acc     scatter   gather  read&inc
calls:  221      221     1414      926      286        0        0       71     
number of processes/call 3.39e+00 1.60e+00 5.56e+00 0.00e+00 0.00e+00
bytes total:             2.45e+07 5.15e+06 1.05e+07 0.00e+00 0.00e+00 5.68e+02
bytes remote:            1.41e+07 1.36e+06 7.02e+06 0.00e+00 0.00e+00 0.00e+00
Max memory consumed for GA by this process: 1635784 bytes
 
MA_summarize_allocated_blocks: starting scan ...
MA_summarize_allocated_blocks: scan completed: 0 heap blocks, 0 stack blocks
MA usage statistics:

	allocation statistics:
					      heap	     stack
					      ----	     -----
	current number of blocks	         0	         0
	maximum number of blocks	        21	        53
	current total bytes		         0	         0
	maximum total bytes		  10383176	  23827176
	maximum total K-bytes		     10384	     23828
	maximum total M-bytes		        11	        24
 
 
                                     CITATION
                                     --------
                Please cite the following reference when publishing
                           results obtained with NWChem:
 
                 M. Valiev, E.J. Bylaska, N. Govind, K. Kowalski,
              T.P. Straatsma, H.J.J. van Dam, D. Wang, J. Nieplocha,
                        E. Apra, T.L. Windus, W.A. de Jong
                 "NWChem: a comprehensive and scalable open-source
                  solution for large scale molecular simulations"
                      Comput. Phys. Commun. 181, 1477 (2010)
                           doi:10.1016/j.cpc.2010.04.018
 
                                      AUTHORS
                                      -------
          E. Apra, E. J. Bylaska, W. A. de Jong, N. Govind, K. Kowalski,
       T. P. Straatsma, M. Valiev, H. J. J. van Dam, D. Wang, T. L. Windus,
        J. Hammond, J. Autschbach, K. Bhaskaran-Nair, J. Brabec, K. Lopata,
    S. A. Fischer, S. Krishnamoorthy, M. Jacquelin, W. Ma, M. Klemm, O. Villa,
      Y. Chen, V. Anisimov, F. Aquino, S. Hirata, M. T. Hackler, V. Konjkov,
            D. Mejia-Rodriguez, T. Risthaus, M. Malagoli, A. Marenich,
   A. Otero-de-la-Roza, J. Mullin, P. Nichols, R. Peverati, J. Pittner, Y. Zhao,
        P.-D. Fan, A. Fonari, M. J. Williamson, R. J. Harrison, J. R. Rehr,
      M. Dupuis, D. Silverstein, D. M. A. Smith, J. Nieplocha, V. Tipparaju,
    M. Krishnan, B. E. Van Kuiken, A. Vazquez-Mayagoitia, L. Jensen, M. Swart,
      Q. Wu, T. Van Voorhis, A. A. Auer, M. Nooijen, L. D. Crosby, E. Brown,
      G. Cisneros, G. I. Fann, H. Fruchtl, J. Garza, K. Hirao, R. A. Kendall,
      J. A. Nichols, K. Tsemekhman, K. Wolinski, J. Anchell, D. E. Bernholdt,
      P. Borowski, T. Clark, D. Clerc, H. Dachsel, M. J. O. Deegan, K. Dyall,
    D. Elwood, E. Glendening, M. Gutowski, A. C. Hess, J. Jaffe, B. G. Johnson,
     J. Ju, R. Kobayashi, R. Kutteh, Z. Lin, R. Littlefield, X. Long, B. Meng,
      T. Nakajima, S. Niu, L. Pollack, M. Rosing, K. Glaesemann, G. Sandrone,
      M. Stave, H. Taylor, G. Thomas, J. H. van Lenthe, A. T. Wong, Z. Zhang.

 Total times  cpu:        3.7s     wall:        4.7s
