 argument  1 = /storage/home/rabeet/work/nwc/ip13/nwtpss/S+.nw
  NWChem w/ OpenMP: maximum threads =  1
                                         
                                         
 
 
              Northwest Computational Chemistry Package (NWChem) 6.8
              ------------------------------------------------------
 
 
                    Environmental Molecular Sciences Laboratory
                       Pacific Northwest National Laboratory
                                Richland, WA 99352
 
                              Copyright (c) 1994-2018
                       Pacific Northwest National Laboratory
                            Battelle Memorial Institute
 
             NWChem is an open-source computational chemistry package
                        distributed under the terms of the
                      Educational Community License (ECL) 2.0
             A copy of the license is included with this distribution
                              in the LICENSE.TXT file
 
                                  ACKNOWLEDGMENT
                                  --------------

            This software and its documentation were developed at the
            EMSL at Pacific Northwest National Laboratory, a multiprogram
            national laboratory, operated for the U.S. Department of Energy
            by Battelle under Contract Number DE-AC05-76RL01830. Support
            for this work was provided by the Department of Energy Office
            of Biological and Environmental Research, Office of Basic
            Energy Sciences, and the Office of Advanced Scientific Computing.


           Job information
           ---------------

    hostname        = r8n4.niserhpc.org
    program         = /home/rabeet/nwchem-6.8/bin/LINUX64/nwchem
    date            = Sun Oct 27 10:44:41 2019

    compiled        = Fri_Jun_28_18:24:12_2019
    source          = /home/rabeet/nwchem-6.8
    nwchem branch   = Development
    nwchem revision = N/A
    ga revision     = 5.6.5
    use scalapack   = T
    input           = /storage/home/rabeet/work/nwc/ip13/nwtpss/S+.nw
    prefix          = S+.
    data base       = ./S+.db
    status          = startup
    nproc           =       16
    time left       =     -1s



           Memory information
           ------------------

    heap     =   13107194 doubles =    100.0 Mbytes
    stack    =   13107199 doubles =    100.0 Mbytes
    global   =   26214400 doubles =    200.0 Mbytes (distinct from heap & stack)
    total    =   52428793 doubles =    400.0 Mbytes
    verify   = yes
    hardfail = no 


           Directory information
           ---------------------
 
  0 permanent = .
  0 scratch   = .
 
 
 
 
                                NWChem Input Module
                                -------------------
 
 

 Scaling coordinates for geometry "geometry" by  1.889725989
 (inverse scale =  0.529177249)

 
 
                             Geometry "geometry" -> ""
                             -------------------------
 
 Output coordinates in angstroms (scale by  1.889725989 to convert to a.u.)
 
  No.       Tag          Charge          X              Y              Z
 ---- ---------------- ---------- -------------- -------------- --------------
    1 S                   16.0000     0.00000000     0.00000000     0.00000000
 
      Atomic Mass 
      ----------- 
 
      S                 31.972070
 

 Effective nuclear repulsion energy (a.u.)       0.0000000000

            Nuclear Dipole moment (a.u.) 
            ----------------------------
        X                 Y               Z
 ---------------- ---------------- ----------------
     0.0000000000     0.0000000000     0.0000000000
 
 
            XYZ format geometry
            -------------------
     1
 geometry
 S                     0.00000000     0.00000000     0.00000000
 


 Summary of "ao basis" -> "" (cartesian)
 ------------------------------------------------------------------------------
       Tag                 Description            Shells   Functions and Types
 ---------------- ------------------------------  ------  ---------------------
 *                     6-311++G(3df,3pd)              on all atoms 


 
                                 NWChem DFT Module
                                 -----------------
 
 
                      Basis "ao basis" -> "ao basis" (cartesian)
                      -----
  S (Sulphur)
  -----------
            Exponent  Coefficients 
       -------------- ---------------------------------------------------------
  1 S  9.34134000E+04  0.000743
  1 S  1.39617000E+04  0.005793
  1 S  3.16991000E+03  0.029954
  1 S  9.02456000E+02  0.119028
  1 S  2.97158000E+02  0.368432
  1 S  1.08702000E+02  0.577299
 
  2 S  1.08702000E+02  0.143186
  2 S  4.31553000E+01  0.624465
  2 S  1.81079000E+01  0.283366
 
  3 S  5.56009000E+00  1.000000
 
  4 S  2.13183000E+00  1.000000
 
  5 S  4.20403000E-01  1.000000
 
  6 S  1.36045000E-01  1.000000
 
  7 P  4.95040000E+02  0.008309
  7 P  1.17221000E+02  0.064024
  7 P  3.77749000E+01  0.277614
  7 P  1.40584000E+01  0.745076
 
  8 P  5.56574000E+00  0.613712
  8 P  2.26297000E+00  0.443818
 
  9 P  8.07994000E-01  1.000000
 
 10 P  2.77460000E-01  1.000000
 
 11 P  7.71410000E-02  1.000000
 
 12 S  4.05000000E-02  1.000000
 
 13 P  4.05000000E-02  1.000000
 
 14 D  2.60000000E+00  1.000000
 
 15 D  6.50000000E-01  1.000000
 
 16 D  1.62500000E-01  1.000000
 
 17 F  5.50000000E-01  1.000000
 


 Summary of "ao basis" -> "ao basis" (cartesian)
 ------------------------------------------------------------------------------
       Tag                 Description            Shells   Functions and Types
 ---------------- ------------------------------  ------  ---------------------
 S                     6-311++G(3df,3pd)            17       53   7s6p3d1f




 Summary of "ao basis" -> "ao basis" (cartesian)
 ------------------------------------------------------------------------------
       Tag                 Description            Shells   Functions and Types
 ---------------- ------------------------------  ------  ---------------------
 S                     6-311++G(3df,3pd)            17       53   7s6p3d1f


  Caching 1-el integrals 
 
            General Information
            -------------------
          SCF calculation type: DFT
          Wavefunction type:  spin polarized.
          No. of atoms     :     1
          No. of electrons :    15
           Alpha electrons :     9
            Beta electrons :     6
          Charge           :     1
          Spin multiplicity:     4
          Use of symmetry is: off; symmetry adaption is: off
          Maximum number of iterations: ***
          AO basis - number of functions:    53
                     number of shells:    17
          Convergence on energy requested:  1.00D-06
          Convergence on density requested:  1.00D-05
          Convergence on gradient requested:  5.00D-04
 
              XC Information
              --------------
                  TPSS metaGGA Exchange Functional  1.000          
             TPSS03 metaGGA Correlation Functional  1.000          
 
             Grid Information
             ----------------
          Grid used for XC integration:  medium    
          Radial quadrature: Mura-Knowles        
          Angular quadrature: Lebedev. 
          Tag              B.-S. Rad. Rad. Pts. Rad. Cut. Ang. Pts.
          ---              ---------- --------- --------- ---------
          S                   1.00       88           8.0       590
          Grid pruning is: on 
          Number of quadrature shells:    88
          Spatial weights used:  Erf1
 
          Convergence Information
          -----------------------
          Convergence aids based upon iterative change in 
          total energy or number of iterations. 
          Levelshifting, if invoked, occurs when the 
          HOMO/LUMO gap drops below (HL_TOL):  1.00D-02
          DIIS, if invoked, will attempt to extrapolate 
          using up to (NFOCK): 10 stored Fock matrices.

                    Damping( 0%)  Levelshifting(0.5)       DIIS
                  --------------- ------------------- ---------------
          dE  on:    start            ASAP                start   
          dE off:    2 iters        *** iters           *** iters 

 
      Screening Tolerance Information
      -------------------------------
          Density screening/tol_rho:  1.00D-10
          AO Gaussian exp screening on grid/accAOfunc:  14
          CD Gaussian exp screening on grid/accCDfunc:  20
          XC Gaussian exp screening on grid/accXCfunc:  20
          Schwarz screening/accCoul:  1.00D-08

 
      Superposition of Atomic Density Guess
      -------------------------------------
 
 Sum of atomic energies:        -397.48025101

 Renormalizing density from      16.00 to     15
 
      Non-variational initial energy
      ------------------------------

 Total energy =    -381.277192
 1-e energy   =    -514.991343
 2-e energy   =     133.714151
 HOMO         =      -0.828271
 LUMO         =      -0.828271
 
   Time after variat. SCF:      1.6
   Time prior to 1st pass:      1.6

 #quartets = 1.178D+04 #integrals = 1.645D+05 #direct =  0.0% #cached =100.0%


 Integral file          = ./S+.aoints.00
 Record size in doubles =    65536    No. of integs per rec  =    43688
 Max. records in memory =        4    Max. records in file   =  8902637
 No. of bits per label  =        8    No. of bits per value  =       64


File balance: exchanges=     0  moved=     0  time=   0.0


 Grid_pts file          = ./S+.gridpts.00
 Record size in doubles =  12289        No. of grid_pts per rec  =   3070
 Max. records in memory =      3        Max. recs in file   =    312213


           Memory utilization after 1st SCF pass: 
           Heap Space remaining (MW):       12.81            12805258
          Stack Space remaining (MW):       13.11            13106660

   convergence    iter        energy       DeltaE   RMS-Dens  Diis-err    time
 ---------------- ----- ----------------- --------- --------- ---------  ------
 d= 0,ls=0.0,diis     1   -397.6178105229 -3.98D+02  1.57D-02  1.85D+00     2.5
                                                     1.63D-02  1.93D+00
 d= 0,ls=0.0,diis     2   -397.7250089623 -1.07D-01  4.39D-03  3.98D-01     2.6
                                                     4.02D-03  3.72D-01
 d= 0,ls=0.0,diis     3   -397.7551125511 -3.01D-02  4.97D-04  2.47D-04     2.7
                                                     4.38D-04  1.62D-04
 d= 0,ls=0.0,diis     4   -397.7551791870 -6.66D-05  8.14D-05  1.87D-05     2.8
                                                     6.83D-05  1.15D-05
 d= 0,ls=0.0,diis     5   -397.7551845816 -5.39D-06  5.65D-06  2.00D-08     2.8
                                                     2.90D-06  1.60D-08
 d= 0,ls=0.0,diis     6   -397.7551845850 -3.46D-09  2.40D-07  3.81D-11     2.9
                                                     1.35D-07  1.07D-11


         Total DFT energy =     -397.755184585024
      One electron energy =     -543.022823934695
           Coulomb energy =      170.637050347725
          Exchange energy =      -24.821723529441
       Correlation energy =       -0.547687468613
 Nuclear repulsion energy =        0.000000000000

 Numeric. integr. density =       14.999999999290

     Total iterative time =      1.4s


 
                    DFT Final Alpha Molecular Orbital Analysis
                    ------------------------------------------
 
 Vector    1  Occ=1.000000D+00  E=-8.884448D+01
              MO Center= -8.8D-18, -7.4D-18, -7.6D-18, r^2= 3.6D-03
   Bfn.  Coefficient  Atom+Function         Bfn.  Coefficient  Atom+Function  
  ----- ------------  ---------------      ----- ------------  ---------------
     2      0.653576  1 S  s                  1      0.411401  1 S  s          
 
 Vector    2  Occ=1.000000D+00  E=-8.218797D+00
              MO Center= -3.6D-15, -3.4D-15, -2.5D-15, r^2= 7.7D-02
   Bfn.  Coefficient  Atom+Function         Bfn.  Coefficient  Atom+Function  
  ----- ------------  ---------------      ----- ------------  ---------------
     4      0.584403  1 S  s                  3      0.514997  1 S  s          
     2     -0.320780  1 S  s                  5      0.127920  1 S  s          
     1     -0.119516  1 S  s                  6     -0.048597  1 S  s          
 
 Vector    3  Occ=1.000000D+00  E=-6.200084D+00
              MO Center= -1.2D-15,  1.2D-15,  4.8D-17, r^2= 6.9D-02
   Bfn.  Coefficient  Atom+Function         Bfn.  Coefficient  Atom+Function  
  ----- ------------  ---------------      ----- ------------  ---------------
    11      0.613007  1 S  py                 8      0.328391  1 S  py         
    10     -0.315823  1 S  px                 7     -0.169188  1 S  px         
    12      0.152826  1 S  pz                 9      0.081869  1 S  pz         
    14      0.049951  1 S  py                13     -0.025735  1 S  px         
 
 Vector    4  Occ=1.000000D+00  E=-6.200084D+00
              MO Center=  3.3D-15,  9.4D-16,  2.1D-15, r^2= 6.9D-02
   Bfn.  Coefficient  Atom+Function         Bfn.  Coefficient  Atom+Function  
  ----- ------------  ---------------      ----- ------------  ---------------
    10      0.563356  1 S  px                12      0.378312  1 S  pz         
     7      0.301792  1 S  px                 9      0.202664  1 S  pz         
    11      0.195928  1 S  py                 8      0.104959  1 S  py         
    13      0.045905  1 S  px                15      0.030827  1 S  pz         
 
 Vector    5  Occ=1.000000D+00  E=-6.200084D+00
              MO Center= -2.1D-17, -4.2D-17, -9.7D-16, r^2= 6.9D-02
   Bfn.  Coefficient  Atom+Function         Bfn.  Coefficient  Atom+Function  
  ----- ------------  ---------------      ----- ------------  ---------------
    12      0.576543  1 S  pz                 9      0.308857  1 S  pz         
    11     -0.291054  1 S  py                10     -0.285943  1 S  px         
     8     -0.155919  1 S  py                 7     -0.153181  1 S  px         
    15      0.046979  1 S  pz         
 
 Vector    6  Occ=1.000000D+00  E=-1.073037D+00
              MO Center= -7.1D-14, -6.8D-14, -7.0D-14, r^2= 8.6D-01
   Bfn.  Coefficient  Atom+Function         Bfn.  Coefficient  Atom+Function  
  ----- ------------  ---------------      ----- ------------  ---------------
     5      0.748123  1 S  s                  6      0.623218  1 S  s          
     4     -0.409985  1 S  s                  3     -0.240218  1 S  s          
     2      0.108847  1 S  s                 38     -0.076380  1 S  dxx        
    41     -0.076380  1 S  dyy               43     -0.076380  1 S  dzz        
     1      0.038186  1 S  s          
 
 Vector    7  Occ=1.000000D+00  E=-6.656152D-01
              MO Center= -2.9D-14, -2.9D-14, -3.1D-14, r^2= 1.1D+00
   Bfn.  Coefficient  Atom+Function         Bfn.  Coefficient  Atom+Function  
  ----- ------------  ---------------      ----- ------------  ---------------
    16      0.491525  1 S  px                18     -0.341626  1 S  pz         
    13      0.280853  1 S  px                15     -0.195202  1 S  pz         
    10     -0.178309  1 S  px                17     -0.150604  1 S  py         
    19      0.150133  1 S  px                12      0.123930  1 S  pz         
    21     -0.104347  1 S  pz                 7     -0.093444  1 S  px         
 
 Vector    8  Occ=1.000000D+00  E=-6.656152D-01
              MO Center=  3.4D-14,  3.4D-14,  3.4D-14, r^2= 1.1D+00
   Bfn.  Coefficient  Atom+Function         Bfn.  Coefficient  Atom+Function  
  ----- ------------  ---------------      ----- ------------  ---------------
    16      0.356799  1 S  px                17      0.355780  1 S  py         
    18      0.356513  1 S  pz                13      0.203872  1 S  px         
    14      0.203290  1 S  py                15      0.203709  1 S  pz         
    10     -0.129435  1 S  px                11     -0.129065  1 S  py         
    12     -0.129331  1 S  pz                19      0.108982  1 S  px         
 
 Vector    9  Occ=1.000000D+00  E=-6.656152D-01
              MO Center= -2.9D-14, -2.9D-14, -3.0D-14, r^2= 1.1D+00
   Bfn.  Coefficient  Atom+Function         Bfn.  Coefficient  Atom+Function  
  ----- ------------  ---------------      ----- ------------  ---------------
    17      0.481379  1 S  py                18     -0.370374  1 S  pz         
    14      0.275056  1 S  py                15     -0.211629  1 S  pz         
    11     -0.174628  1 S  py                20      0.147034  1 S  py         
    12      0.134359  1 S  pz                21     -0.113128  1 S  pz         
    16     -0.109927  1 S  px                 8     -0.091515  1 S  py         
 
 Vector   10  Occ=0.000000D+00  E=-1.986810D-01
              MO Center= -2.7D-13, -2.6D-13, -2.7D-13, r^2= 6.8D+00
   Bfn.  Coefficient  Atom+Function         Bfn.  Coefficient  Atom+Function  
  ----- ------------  ---------------      ----- ------------  ---------------
    22      1.247965  1 S  s                  6     -0.528078  1 S  s          
     5     -0.418974  1 S  s                  4      0.166905  1 S  s          
     3      0.086035  1 S  s                 38      0.060853  1 S  dxx        
    41      0.060853  1 S  dyy               43      0.060853  1 S  dzz        
     2     -0.038844  1 S  s          
 
 Vector   11  Occ=0.000000D+00  E=-1.422460D-01
              MO Center=  6.2D-12,  2.6D-12,  8.4D-13, r^2= 2.2D+00
   Bfn.  Coefficient  Atom+Function         Bfn.  Coefficient  Atom+Function  
  ----- ------------  ---------------      ----- ------------  ---------------
    38      0.741746  1 S  dxx               41     -0.545042  1 S  dyy        
    32      0.331495  1 S  dxx               35     -0.243586  1 S  dyy        
    43     -0.196704  1 S  dzz               37     -0.087910  1 S  dzz        
    42      0.083348  1 S  dyz               26      0.079939  1 S  dxx        
    29     -0.058740  1 S  dyy               39      0.058762  1 S  dxy        
 
 Vector   12  Occ=0.000000D+00  E=-1.422460D-01
              MO Center=  9.0D-15,  2.9D-14,  7.5D-14, r^2= 2.2D+00
   Bfn.  Coefficient  Atom+Function         Bfn.  Coefficient  Atom+Function  
  ----- ------------  ---------------      ----- ------------  ---------------
    43      0.649703  1 S  dzz               42      0.586518  1 S  dyz        
    41     -0.443923  1 S  dyy               37      0.290360  1 S  dzz        
    36      0.262122  1 S  dyz               40      0.248181  1 S  dxz        
    39      0.238451  1 S  dxy               38     -0.205780  1 S  dxx        
    35     -0.198395  1 S  dyy               34      0.110915  1 S  dxz        
 
 Vector   13  Occ=0.000000D+00  E=-1.422460D-01
              MO Center=  2.7D-14,  5.9D-14,  6.3D-14, r^2= 2.2D+00
   Bfn.  Coefficient  Atom+Function         Bfn.  Coefficient  Atom+Function  
  ----- ------------  ---------------      ----- ------------  ---------------
    42      1.007602  1 S  dyz               36      0.450310  1 S  dyz        
    39      0.394890  1 S  dxy               40      0.373940  1 S  dxz        
    43     -0.366408  1 S  dzz               41      0.317102  1 S  dyy        
    33      0.176481  1 S  dxy               34      0.167118  1 S  dxz        
    37     -0.163752  1 S  dzz               35      0.141717  1 S  dyy        
 
 Vector   14  Occ=0.000000D+00  E=-1.422460D-01
              MO Center=  1.9D-14, -1.9D-14,  4.9D-14, r^2= 2.2D+00
   Bfn.  Coefficient  Atom+Function         Bfn.  Coefficient  Atom+Function  
  ----- ------------  ---------------      ----- ------------  ---------------
    40      1.250617  1 S  dxz               34      0.558916  1 S  dxz        
    42     -0.467884  1 S  dyz               36     -0.209103  1 S  dyz        
    28      0.134781  1 S  dxz               30     -0.050425  1 S  dyz        
    39     -0.038162  1 S  dxy        
 
 Vector   15  Occ=0.000000D+00  E=-1.422460D-01
              MO Center=  3.0D-14,  3.9D-14, -2.6D-14, r^2= 2.2D+00
   Bfn.  Coefficient  Atom+Function         Bfn.  Coefficient  Atom+Function  
  ----- ------------  ---------------      ----- ------------  ---------------
    39      1.252120  1 S  dxy               33      0.559588  1 S  dxy        
    42     -0.447642  1 S  dyz               36     -0.200057  1 S  dyz        
    27      0.134943  1 S  dxy               40     -0.129738  1 S  dxz        
    34     -0.057981  1 S  dxz               30     -0.048243  1 S  dyz        
 
 Vector   16  Occ=0.000000D+00  E=-1.272529D-01
              MO Center=  2.4D-13,  2.4D-13,  2.5D-13, r^2= 9.4D+00
   Bfn.  Coefficient  Atom+Function         Bfn.  Coefficient  Atom+Function  
  ----- ------------  ---------------      ----- ------------  ---------------
    23      0.641637  1 S  px                24      0.639807  1 S  py         
    25      0.641092  1 S  pz                16     -0.120985  1 S  px         
    17     -0.120640  1 S  py                18     -0.120883  1 S  pz         
    13     -0.096021  1 S  px                14     -0.095747  1 S  py         
    15     -0.095940  1 S  pz                19     -0.052683  1 S  px         
 
 Vector   17  Occ=0.000000D+00  E=-1.272529D-01
              MO Center= -6.1D-12, -2.6D-12, -8.8D-13, r^2= 9.4D+00
   Bfn.  Coefficient  Atom+Function         Bfn.  Coefficient  Atom+Function  
  ----- ------------  ---------------      ----- ------------  ---------------
    23      0.905041  1 S  px                24     -0.483616  1 S  py         
    25     -0.423163  1 S  pz                16     -0.170652  1 S  px         
    13     -0.135440  1 S  px                17      0.091189  1 S  py         
    18      0.079791  1 S  pz                19     -0.074310  1 S  px         
    14      0.072373  1 S  py                10      0.063434  1 S  px         
 
 Vector   18  Occ=0.000000D+00  E=-1.272529D-01
              MO Center= -3.8D-14, -3.8D-14, -3.8D-14, r^2= 9.4D+00
   Bfn.  Coefficient  Atom+Function         Bfn.  Coefficient  Atom+Function  
  ----- ------------  ---------------      ----- ------------  ---------------
    25     -0.801239  1 S  pz                24      0.767341  1 S  py         
    18      0.151080  1 S  pz                17     -0.144688  1 S  py         
    15      0.119906  1 S  pz                14     -0.114833  1 S  py         
    21      0.065787  1 S  pz                20     -0.063004  1 S  py         
    12     -0.056159  1 S  pz                11      0.053783  1 S  py         
 
 Vector   19  Occ=0.000000D+00  E= 7.583457D-02
              MO Center= -1.1D-12, -1.1D-12, -1.1D-12, r^2= 1.1D+01
   Bfn.  Coefficient  Atom+Function         Bfn.  Coefficient  Atom+Function  
  ----- ------------  ---------------      ----- ------------  ---------------
    19      1.712432  1 S  px                20      1.708254  1 S  py         
    21      1.712091  1 S  pz                23     -1.283965  1 S  px         
    24     -1.280833  1 S  py                25     -1.283710  1 S  pz         
    16     -0.819568  1 S  px                17     -0.817568  1 S  py         
    18     -0.819404  1 S  pz                44      0.167412  1 S  fxxx       
 
 Vector   20  Occ=0.000000D+00  E= 7.583457D-02
              MO Center= -5.4D-14,  4.8D-15,  6.3D-15, r^2= 1.1D+01
   Bfn.  Coefficient  Atom+Function         Bfn.  Coefficient  Atom+Function  
  ----- ------------  ---------------      ----- ------------  ---------------
    19      2.417766  1 S  px                23     -1.812818  1 S  px         
    21     -1.265165  1 S  pz                16     -1.157140  1 S  px         
    20     -1.155672  1 S  py                25      0.948609  1 S  pz         
    24      0.866512  1 S  py                18      0.605506  1 S  pz         
    17      0.553103  1 S  py                44      0.236368  1 S  fxxx       
 
 Vector   21  Occ=0.000000D+00  E= 7.583457D-02
              MO Center= -1.3D-14, -4.9D-14,  1.7D-14, r^2= 1.1D+01
   Bfn.  Coefficient  Atom+Function         Bfn.  Coefficient  Atom+Function  
  ----- ------------  ---------------      ----- ------------  ---------------
    20      2.127933  1 S  py                21     -2.061532  1 S  pz         
    24     -1.595505  1 S  py                25      1.545718  1 S  pz         
    17     -1.018426  1 S  py                18      0.986647  1 S  pz         
    45      0.208033  1 S  fxxy              50      0.208033  1 S  fyyy       
    52      0.208033  1 S  fyzz              46     -0.201541  1 S  fxxz       
 
 Vector   22  Occ=0.000000D+00  E= 9.243298D-02
              MO Center=  1.1D-12,  1.0D-12,  9.7D-13, r^2= 7.8D+00
   Bfn.  Coefficient  Atom+Function         Bfn.  Coefficient  Atom+Function  
  ----- ------------  ---------------      ----- ------------  ---------------
    22      1.983017  1 S  s                  6      1.647182  1 S  s          
    38     -1.479815  1 S  dxx               41     -1.479815  1 S  dyy        
    43     -1.479815  1 S  dzz               32     -0.288864  1 S  dxx        
    35     -0.288864  1 S  dyy               37     -0.288864  1 S  dzz        
     4     -0.286408  1 S  s                  3     -0.170760  1 S  s          
 
 Vector   23  Occ=0.000000D+00  E= 5.366470D-01
              MO Center=  1.1D-14,  2.1D-14,  3.9D-15, r^2= 1.8D+00
   Bfn.  Coefficient  Atom+Function         Bfn.  Coefficient  Atom+Function  
  ----- ------------  ---------------      ----- ------------  ---------------
    33      0.826590  1 S  dxy               35      0.729206  1 S  dyy        
    39     -0.696025  1 S  dxy               41     -0.614024  1 S  dyy        
    36      0.534412  1 S  dyz               32     -0.506689  1 S  dxx        
    42     -0.449998  1 S  dyz               38      0.426654  1 S  dxx        
    34      0.259803  1 S  dxz               37     -0.222518  1 S  dzz        
 
 Vector   24  Occ=0.000000D+00  E= 5.366470D-01
              MO Center=  2.5D-14,  2.2D-14,  7.8D-14, r^2= 1.8D+00
   Bfn.  Coefficient  Atom+Function         Bfn.  Coefficient  Atom+Function  
  ----- ------------  ---------------      ----- ------------  ---------------
    36      1.013360  1 S  dyz               42     -0.853293  1 S  dyz        
    33      0.568973  1 S  dxy               35     -0.569134  1 S  dyy        
    37      0.559401  1 S  dzz               39     -0.479100  1 S  dxy        
    41      0.479236  1 S  dyy               43     -0.471040  1 S  dzz        
    34      0.296344  1 S  dxz               40     -0.249534  1 S  dxz        
 
 Vector   25  Occ=0.000000D+00  E= 5.366470D-01
              MO Center= -5.3D-16,  9.6D-15, -4.7D-15, r^2= 1.8D+00
   Bfn.  Coefficient  Atom+Function         Bfn.  Coefficient  Atom+Function  
  ----- ------------  ---------------      ----- ------------  ---------------
    33      1.248611  1 S  dxy               39     -1.051385  1 S  dxy        
    36     -0.918738  1 S  dyz               42      0.773617  1 S  dyz        
    34     -0.436927  1 S  dxz               40      0.367911  1 S  dxz        
    27      0.216772  1 S  dxy               35     -0.198211  1 S  dyy        
    41      0.166902  1 S  dyy               30     -0.159502  1 S  dyz        
 
 Vector   26  Occ=0.000000D+00  E= 5.366470D-01
              MO Center=  6.3D-15, -4.2D-15,  1.4D-14, r^2= 1.8D+00
   Bfn.  Coefficient  Atom+Function         Bfn.  Coefficient  Atom+Function  
  ----- ------------  ---------------      ----- ------------  ---------------
    34      1.533866  1 S  dxz               40     -1.291582  1 S  dxz        
    36     -0.583012  1 S  dyz               42      0.490922  1 S  dyz        
    28      0.266295  1 S  dxz               30     -0.101217  1 S  dyz        
    33      0.077515  1 S  dxy               39     -0.065271  1 S  dxy        
    35     -0.064698  1 S  dyy               41      0.054479  1 S  dyy        
 
 Vector   27  Occ=0.000000D+00  E= 5.366470D-01
              MO Center=  1.3D-14, -1.1D-15,  6.1D-15, r^2= 1.8D+00
   Bfn.  Coefficient  Atom+Function         Bfn.  Coefficient  Atom+Function  
  ----- ------------  ---------------      ----- ------------  ---------------
    32      0.798149  1 S  dxx               37     -0.727589  1 S  dzz        
    38     -0.672077  1 S  dxx               43      0.612662  1 S  dzz        
    36      0.464594  1 S  dyz               42     -0.391208  1 S  dyz        
    33      0.374573  1 S  dxy               39     -0.315406  1 S  dxy        
    26      0.138567  1 S  dxx               31     -0.126317  1 S  dzz        
 
 Vector   28  Occ=0.000000D+00  E= 7.588237D-01
              MO Center=  3.6D-14,  4.5D-15, -1.8D-14, r^2= 4.2D+00
   Bfn.  Coefficient  Atom+Function         Bfn.  Coefficient  Atom+Function  
  ----- ------------  ---------------      ----- ------------  ---------------
    16      4.370635  1 S  px                18     -4.002288  1 S  pz         
    19     -1.812773  1 S  px                21      1.659997  1 S  pz         
    44     -1.631762  1 S  fxxx              47     -1.631762  1 S  fxyy       
    49     -1.631762  1 S  fxzz              46      1.494241  1 S  fxxz       
    51      1.494241  1 S  fyyz              53      1.494241  1 S  fzzz       
 
 Vector   29  Occ=0.000000D+00  E= 7.588237D-01
              MO Center= -1.5D-13, -1.5D-13, -1.5D-13, r^2= 4.2D+00
   Bfn.  Coefficient  Atom+Function         Bfn.  Coefficient  Atom+Function  
  ----- ------------  ---------------      ----- ------------  ---------------
    16      3.434303  1 S  px                17      3.422804  1 S  py         
    18      3.428213  1 S  pz                19     -1.424418  1 S  px         
    20     -1.419649  1 S  py                21     -1.421892  1 S  pz         
    44     -1.282186  1 S  fxxx              45     -1.277892  1 S  fxxy       
    46     -1.279912  1 S  fxxz              47     -1.282186  1 S  fxyy       
 
 Vector   30  Occ=0.000000D+00  E= 7.588237D-01
              MO Center=  1.4D-14, -1.2D-14,  1.8D-14, r^2= 4.2D+00
   Bfn.  Coefficient  Atom+Function         Bfn.  Coefficient  Atom+Function  
  ----- ------------  ---------------      ----- ------------  ---------------
    17      4.837890  1 S  py                18     -2.737100  1 S  pz         
    16     -2.089444  1 S  px                20     -2.006572  1 S  py         
    45     -1.806210  1 S  fxxy              50     -1.806210  1 S  fyyy       
    52     -1.806210  1 S  fyzz              14     -1.637280  1 S  py         
    21      1.135245  1 S  pz                46      1.021887  1 S  fxxz       
 
 Vector   31  Occ=0.000000D+00  E= 9.016204D-01
              MO Center=  1.2D-13,  1.8D-13,  1.7D-13, r^2= 3.8D+00
   Bfn.  Coefficient  Atom+Function         Bfn.  Coefficient  Atom+Function  
  ----- ------------  ---------------      ----- ------------  ---------------
     6     10.685636  1 S  s                  5     -4.133048  1 S  s          
    38     -3.286976  1 S  dxx               41     -3.286976  1 S  dyy        
    43     -3.286976  1 S  dzz               22      1.163341  1 S  s          
    32     -1.015510  1 S  dxx               35     -1.015510  1 S  dyy        
    37     -1.015510  1 S  dzz                4      0.264195  1 S  s          
 
 Vector   32  Occ=0.000000D+00  E= 1.170445D+00
              MO Center=  1.1D-14,  1.0D-14, -3.7D-15, r^2= 1.1D+00
   Bfn.  Coefficient  Atom+Function         Bfn.  Coefficient  Atom+Function  
  ----- ------------  ---------------      ----- ------------  ---------------
    45      2.010296  1 S  fxxy              48     -1.320503  1 S  fxyz       
    47      0.960501  1 S  fxyy              50     -0.668986  1 S  fyyy       
    44     -0.267694  1 S  fxxx              46     -0.208477  1 S  fxxz       
    51      0.195889  1 S  fyyz              49     -0.157419  1 S  fxzz       
 
 Vector   33  Occ=0.000000D+00  E= 1.170445D+00
              MO Center=  1.8D-14,  6.4D-15,  1.9D-15, r^2= 1.1D+00
   Bfn.  Coefficient  Atom+Function         Bfn.  Coefficient  Atom+Function  
  ----- ------------  ---------------      ----- ------------  ---------------
    47      1.463894  1 S  fxyy              48     -1.225256  1 S  fxyz       
    45     -1.029749  1 S  fxxy              49      1.010467  1 S  fxzz       
    44     -0.824787  1 S  fxxx              50      0.334053  1 S  fyyy       
    46     -0.252605  1 S  fxxz              51     -0.164076  1 S  fyyz       
    53      0.138894  1 S  fzzz              52      0.027589  1 S  fyzz       
 
 Vector   34  Occ=0.000000D+00  E= 1.170445D+00
              MO Center=  5.8D-15,  9.2D-15,  1.0D-14, r^2= 1.1D+00
   Bfn.  Coefficient  Atom+Function         Bfn.  Coefficient  Atom+Function  
  ----- ------------  ---------------      ----- ------------  ---------------
    48      2.374446  1 S  fxyz              47      1.585839  1 S  fxyy       
    49     -1.281781  1 S  fxzz              52      0.596077  1 S  fyzz       
    45     -0.224904  1 S  fxxy              51     -0.173761  1 S  fyyz       
    50     -0.123724  1 S  fyyy              44     -0.101353  1 S  fxxx       
    53      0.058664  1 S  fzzz       
 
 Vector   35  Occ=0.000000D+00  E= 1.170445D+00
              MO Center=  1.2D-14,  9.8D-15,  1.5D-14, r^2= 1.1D+00
   Bfn.  Coefficient  Atom+Function         Bfn.  Coefficient  Atom+Function  
  ----- ------------  ---------------      ----- ------------  ---------------
    48      2.194082  1 S  fxyz              49      1.770276  1 S  fxzz       
    51      0.529760  1 S  fyyz              52      0.505200  1 S  fyzz       
    45      0.489056  1 S  fxxy              44     -0.449184  1 S  fxxx       
    47     -0.422723  1 S  fxyy              50     -0.331419  1 S  fyyy       
    53     -0.138248  1 S  fzzz              46     -0.115017  1 S  fxxz       
 
 Vector   36  Occ=0.000000D+00  E= 1.170445D+00
              MO Center=  1.1D-14,  7.4D-15,  9.8D-15, r^2= 1.1D+00
   Bfn.  Coefficient  Atom+Function         Bfn.  Coefficient  Atom+Function  
  ----- ------------  ---------------      ----- ------------  ---------------
    46      2.030207  1 S  fxxz              51     -1.737253  1 S  fyyz       
    49      0.341637  1 S  fxzz              52      0.254056  1 S  fyzz       
    45      0.205443  1 S  fxxy              50     -0.153166  1 S  fyyy       
    44     -0.111709  1 S  fxxx              53     -0.097652  1 S  fzzz       
 
 Vector   37  Occ=0.000000D+00  E= 1.170445D+00
              MO Center=  4.8D-15,  7.1D-15,  1.7D-14, r^2= 1.1D+00
   Bfn.  Coefficient  Atom+Function         Bfn.  Coefficient  Atom+Function  
  ----- ------------  ---------------      ----- ------------  ---------------
    51      1.556934  1 S  fyyz              46      1.324536  1 S  fxxz       
    53     -0.960490  1 S  fzzz              52     -0.438898  1 S  fyzz       
    47      0.417579  1 S  fxyy              49     -0.197738  1 S  fxzz       
    50      0.186393  1 S  fyyy              48     -0.161447  1 S  fxyz       
    45     -0.120281  1 S  fxxy              44     -0.073280  1 S  fxxx       
 
 Vector   38  Occ=0.000000D+00  E= 1.170445D+00
              MO Center= -7.7D-17,  1.1D-14,  1.4D-14, r^2= 1.1D+00
   Bfn.  Coefficient  Atom+Function         Bfn.  Coefficient  Atom+Function  
  ----- ------------  ---------------      ----- ------------  ---------------
    52      2.265285  1 S  fyzz              48     -1.129783  1 S  fxyz       
    45     -0.742897  1 S  fxxy              50     -0.507463  1 S  fyyy       
    51      0.426355  1 S  fyyz              47     -0.257794  1 S  fxyy       
    53     -0.161433  1 S  fzzz              49     -0.146687  1 S  fxzz       
    44      0.134827  1 S  fxxx              46      0.057944  1 S  fxxz       
 
 Vector   39  Occ=0.000000D+00  E= 2.577107D+00
              MO Center= -1.2D-14,  1.1D-15,  2.4D-16, r^2= 1.8D+00
   Bfn.  Coefficient  Atom+Function         Bfn.  Coefficient  Atom+Function  
  ----- ------------  ---------------      ----- ------------  ---------------
    16      5.013032  1 S  px                44     -3.049470  1 S  fxxx       
    47     -3.049470  1 S  fxyy              49     -3.049470  1 S  fxzz       
    17     -2.795692  1 S  py                18     -2.225071  1 S  pz         
    45      1.700643  1 S  fxxy              50      1.700643  1 S  fyyy       
    52      1.700643  1 S  fyzz              46      1.353530  1 S  fxxz       
 
 Vector   40  Occ=0.000000D+00  E= 2.577107D+00
              MO Center= -1.8D-15, -3.9D-16, -7.1D-15, r^2= 1.8D+00
   Bfn.  Coefficient  Atom+Function         Bfn.  Coefficient  Atom+Function  
  ----- ------------  ---------------      ----- ------------  ---------------
    18     -4.505574  1 S  pz                17      4.181716  1 S  py         
    46      2.740779  1 S  fxxz              51      2.740779  1 S  fyyz       
    53      2.740779  1 S  fzzz              45     -2.543773  1 S  fxxy       
    50     -2.543773  1 S  fyyy              52     -2.543773  1 S  fyzz       
    21      1.008633  1 S  pz                20     -0.936133  1 S  py         
 
 Vector   41  Occ=0.000000D+00  E= 2.577107D+00
              MO Center= -2.3D-14, -2.3D-14, -2.3D-14, r^2= 1.8D+00
   Bfn.  Coefficient  Atom+Function         Bfn.  Coefficient  Atom+Function  
  ----- ------------  ---------------      ----- ------------  ---------------
    16      3.557590  1 S  px                17      3.548900  1 S  py         
    18      3.556148  1 S  pz                44     -2.164112  1 S  fxxx       
    45     -2.158826  1 S  fxxy              46     -2.163235  1 S  fxxz       
    47     -2.164112  1 S  fxyy              49     -2.164112  1 S  fxzz       
    50     -2.158826  1 S  fyyy              51     -2.163235  1 S  fyyz       
 
 Vector   42  Occ=0.000000D+00  E= 3.340537D+00
              MO Center=  3.1D-14,  1.1D-14,  1.7D-14, r^2= 1.5D+00
   Bfn.  Coefficient  Atom+Function         Bfn.  Coefficient  Atom+Function  
  ----- ------------  ---------------      ----- ------------  ---------------
     5      8.372983  1 S  s                  6      6.971456  1 S  s          
    32     -4.648827  1 S  dxx               35     -4.648827  1 S  dyy        
    37     -4.648827  1 S  dzz                4     -2.169845  1 S  s          
    38     -1.963401  1 S  dxx               41     -1.963401  1 S  dyy        
    43     -1.963401  1 S  dzz                3     -1.099483  1 S  s          
 
 Vector   43  Occ=0.000000D+00  E= 4.093790D+00
              MO Center=  1.7D-15,  1.9D-15,  1.7D-15, r^2= 4.6D-01
   Bfn.  Coefficient  Atom+Function         Bfn.  Coefficient  Atom+Function  
  ----- ------------  ---------------      ----- ------------  ---------------
    29      0.919288  1 S  dyy               30      0.819785  1 S  dyz        
    28      0.664157  1 S  dxz               35     -0.642158  1 S  dyy        
    36     -0.572651  1 S  dyz               26     -0.518321  1 S  dxx        
    34     -0.463939  1 S  dxz               31     -0.400967  1 S  dzz        
    27      0.388856  1 S  dxy               32      0.362067  1 S  dxx        
 
 Vector   44  Occ=0.000000D+00  E= 4.093790D+00
              MO Center=  4.8D-15,  4.4D-15,  5.9D-15, r^2= 4.6D-01
   Bfn.  Coefficient  Atom+Function         Bfn.  Coefficient  Atom+Function  
  ----- ------------  ---------------      ----- ------------  ---------------
    30      1.303576  1 S  dyz               36     -0.910598  1 S  dyz        
    28      0.831875  1 S  dxz               29     -0.647320  1 S  dyy        
    34     -0.581097  1 S  dxz               35      0.452178  1 S  dyy        
    27      0.399122  1 S  dxy               31      0.361457  1 S  dzz        
    42      0.303894  1 S  dyz               26      0.285863  1 S  dxx        
 
 Vector   45  Occ=0.000000D+00  E= 4.093790D+00
              MO Center=  6.2D-16,  3.8D-15,  2.7D-15, r^2= 4.6D-01
   Bfn.  Coefficient  Atom+Function         Bfn.  Coefficient  Atom+Function  
  ----- ------------  ---------------      ----- ------------  ---------------
    27      1.165553  1 S  dxy               30     -1.145234  1 S  dyz        
    28      1.059804  1 S  dxz               33     -0.814183  1 S  dxy        
    36      0.799990  1 S  dyz               34     -0.740314  1 S  dxz        
    39      0.271718  1 S  dxy               42     -0.266981  1 S  dyz        
    40      0.247065  1 S  dxz               29     -0.077095  1 S  dyy        
 
 Vector   46  Occ=0.000000D+00  E= 4.093790D+00
              MO Center=  3.1D-15,  2.2D-15, -5.9D-16, r^2= 4.6D-01
   Bfn.  Coefficient  Atom+Function         Bfn.  Coefficient  Atom+Function  
  ----- ------------  ---------------      ----- ------------  ---------------
    27      1.462530  1 S  dxy               28     -1.242323  1 S  dxz        
    33     -1.021633  1 S  dxy               34      0.867810  1 S  dxz        
    30      0.344443  1 S  dyz               39      0.340950  1 S  dxy        
    40     -0.289614  1 S  dxz               36     -0.240607  1 S  dyz        
    42      0.080298  1 S  dyz               26      0.057887  1 S  dxx        
 
 Vector   47  Occ=0.000000D+00  E= 4.093790D+00
              MO Center=  3.8D-15,  8.1D-17,  6.0D-15, r^2= 4.6D-01
   Bfn.  Coefficient  Atom+Function         Bfn.  Coefficient  Atom+Function  
  ----- ------------  ---------------      ----- ------------  ---------------
    31     -0.988266  1 S  dzz               26      0.955767  1 S  dxx        
    37      0.690342  1 S  dzz               32     -0.667640  1 S  dxx        
    43     -0.230388  1 S  dzz               38      0.222812  1 S  dxx        
    28      0.117192  1 S  dxz               30      0.108844  1 S  dyz        
    34     -0.081863  1 S  dxz               36     -0.076032  1 S  dyz        
 
 Vector   48  Occ=0.000000D+00  E= 9.603447D+00
              MO Center=  1.8D-15, -3.3D-15, -1.2D-15, r^2= 6.1D-01
   Bfn.  Coefficient  Atom+Function         Bfn.  Coefficient  Atom+Function  
  ----- ------------  ---------------      ----- ------------  ---------------
     5     19.126778  1 S  s                 32     -6.290328  1 S  dxx        
    35     -6.290328  1 S  dyy               37     -6.290328  1 S  dzz        
    26     -3.379862  1 S  dxx               29     -3.379862  1 S  dyy        
    31     -3.379862  1 S  dzz                3     -1.952901  1 S  s          
     6      1.075404  1 S  s                  4     -0.593866  1 S  s          
 
 Vector   49  Occ=0.000000D+00  E= 1.797752D+01
              MO Center= -3.0D-15,  1.2D-15,  1.9D-15, r^2= 2.2D-01
   Bfn.  Coefficient  Atom+Function         Bfn.  Coefficient  Atom+Function  
  ----- ------------  ---------------      ----- ------------  ---------------
    16      1.532588  1 S  px                10     -1.240142  1 S  px         
    44     -1.061289  1 S  fxxx              47     -1.061289  1 S  fxyy       
    49     -1.061289  1 S  fxzz               7      0.998667  1 S  px         
    18     -0.889273  1 S  pz                12      0.719584  1 S  pz         
    17     -0.643265  1 S  py                46      0.615805  1 S  fxxz       
 
 Vector   50  Occ=0.000000D+00  E= 1.797752D+01
              MO Center=  4.5D-16,  4.6D-16,  4.8D-16, r^2= 2.2D-01
   Bfn.  Coefficient  Atom+Function         Bfn.  Coefficient  Atom+Function  
  ----- ------------  ---------------      ----- ------------  ---------------
    16      1.088383  1 S  px                17      1.087642  1 S  py         
    18      1.088981  1 S  pz                10     -0.880700  1 S  px         
    11     -0.880100  1 S  py                12     -0.881183  1 S  pz         
    44     -0.753685  1 S  fxxx              45     -0.753172  1 S  fxxy       
    46     -0.754099  1 S  fxxz              47     -0.753685  1 S  fxyy       
 
 Vector   51  Occ=0.000000D+00  E= 1.797752D+01
              MO Center=  9.6D-17,  2.2D-15, -1.8D-15, r^2= 2.2D-01
   Bfn.  Coefficient  Atom+Function         Bfn.  Coefficient  Atom+Function  
  ----- ------------  ---------------      ----- ------------  ---------------
    17      1.398809  1 S  py                18     -1.255681  1 S  pz         
    11     -1.131891  1 S  py                12      1.016074  1 S  pz         
    45     -0.968650  1 S  fxxy              50     -0.968650  1 S  fyyy       
    52     -0.968650  1 S  fyzz               8      0.911494  1 S  py         
    46      0.869536  1 S  fxxz              51      0.869536  1 S  fyyz       
 
 Vector   52  Occ=0.000000D+00  E= 2.436729D+01
              MO Center=  1.7D-15, -1.3D-15,  1.5D-17, r^2= 2.6D-01
   Bfn.  Coefficient  Atom+Function         Bfn.  Coefficient  Atom+Function  
  ----- ------------  ---------------      ----- ------------  ---------------
     5     16.180552  1 S  s                  4     15.754983  1 S  s          
     3    -12.055027  1 S  s                 26     -6.814658  1 S  dxx        
    29     -6.814658  1 S  dyy               31     -6.814658  1 S  dzz        
    32     -4.820137  1 S  dxx               35     -4.820137  1 S  dyy        
    37     -4.820137  1 S  dzz                2      0.664252  1 S  s          
 
 Vector   53  Occ=0.000000D+00  E= 2.186640D+02
              MO Center=  1.8D-18,  3.4D-17, -8.5D-19, r^2= 3.2D-02
   Bfn.  Coefficient  Atom+Function         Bfn.  Coefficient  Atom+Function  
  ----- ------------  ---------------      ----- ------------  ---------------
     4      7.654889  1 S  s                  3     -6.329487  1 S  s          
     5      5.373780  1 S  s                 26     -2.766907  1 S  dxx        
    29     -2.766907  1 S  dyy               31     -2.766907  1 S  dzz        
     2      2.291570  1 S  s                  1     -1.625391  1 S  s          
    32     -1.613376  1 S  dxx               35     -1.613376  1 S  dyy        
 
 
                     DFT Final Beta Molecular Orbital Analysis
                     -----------------------------------------
 
 Vector    1  Occ=1.000000D+00  E=-8.882630D+01
              MO Center= -2.9D-18, -8.3D-18, -8.3D-18, r^2= 3.6D-03
   Bfn.  Coefficient  Atom+Function         Bfn.  Coefficient  Atom+Function  
  ----- ------------  ---------------      ----- ------------  ---------------
     2      0.653614  1 S  s                  1      0.411460  1 S  s          
 
 Vector    2  Occ=1.000000D+00  E=-8.203968D+00
              MO Center= -2.1D-15, -1.8D-15, -2.6D-15, r^2= 7.7D-02
   Bfn.  Coefficient  Atom+Function         Bfn.  Coefficient  Atom+Function  
  ----- ------------  ---------------      ----- ------------  ---------------
     4      0.594609  1 S  s                  3      0.510288  1 S  s          
     2     -0.320342  1 S  s                  1     -0.119425  1 S  s          
     5      0.117165  1 S  s                  6     -0.047190  1 S  s          
 
 Vector    3  Occ=1.000000D+00  E=-6.177681D+00
              MO Center=  2.9D-17, -3.2D-16, -4.8D-16, r^2= 6.8D-02
   Bfn.  Coefficient  Atom+Function         Bfn.  Coefficient  Atom+Function  
  ----- ------------  ---------------      ----- ------------  ---------------
    10      0.626688  1 S  px                 7      0.333968  1 S  px         
    12     -0.306950  1 S  pz                 9     -0.163577  1 S  pz         
    11     -0.121661  1 S  py                 8     -0.064834  1 S  py         
    13      0.048523  1 S  px         
 
 Vector    4  Occ=1.000000D+00  E=-6.177681D+00
              MO Center= -2.1D-16, -6.0D-16, -3.5D-17, r^2= 6.8D-02
   Bfn.  Coefficient  Atom+Function         Bfn.  Coefficient  Atom+Function  
  ----- ------------  ---------------      ----- ------------  ---------------
    11      0.546996  1 S  py                12     -0.436951  1 S  pz         
     8      0.291499  1 S  py                 9     -0.232855  1 S  pz         
    10     -0.107827  1 S  px                 7     -0.057462  1 S  px         
    14      0.042353  1 S  py                15     -0.033832  1 S  pz         
 
 Vector    5  Occ=1.000000D+00  E=-6.177681D+00
              MO Center=  1.2D-15,  1.9D-15,  2.0D-15, r^2= 6.8D-02
   Bfn.  Coefficient  Atom+Function         Bfn.  Coefficient  Atom+Function  
  ----- ------------  ---------------      ----- ------------  ---------------
    12      0.465417  1 S  pz                11      0.433303  1 S  py         
    10      0.312079  1 S  px                 9      0.248025  1 S  pz         
     8      0.230911  1 S  py                 7      0.166310  1 S  px         
    15      0.036036  1 S  pz                14      0.033550  1 S  py         
 
 Vector    6  Occ=1.000000D+00  E=-9.260952D-01
              MO Center=  1.5D-15,  3.9D-15,  7.7D-16, r^2= 9.0D-01
   Bfn.  Coefficient  Atom+Function         Bfn.  Coefficient  Atom+Function  
  ----- ------------  ---------------      ----- ------------  ---------------
     5      0.683671  1 S  s                  6      0.616987  1 S  s          
     4     -0.420347  1 S  s                  3     -0.224299  1 S  s          
     2      0.108329  1 S  s                 38     -0.060332  1 S  dxx        
    41     -0.060332  1 S  dyy               43     -0.060332  1 S  dzz        
     1      0.038099  1 S  s          
 
 Vector    7  Occ=0.000000D+00  E=-5.334421D-01
              MO Center= -1.3D-14, -1.1D-14, -1.3D-14, r^2= 1.3D+00
   Bfn.  Coefficient  Atom+Function         Bfn.  Coefficient  Atom+Function  
  ----- ------------  ---------------      ----- ------------  ---------------
    16      0.387122  1 S  px                17      0.386026  1 S  py         
    18      0.387529  1 S  pz                13      0.182272  1 S  px         
    14      0.181755  1 S  py                15      0.182463  1 S  pz         
    19      0.145128  1 S  px                20      0.144717  1 S  py         
    21      0.145280  1 S  pz                10     -0.122963  1 S  px         
 
 Vector    8  Occ=0.000000D+00  E=-5.334421D-01
              MO Center= -2.8D-15, -4.2D-15, -3.1D-15, r^2= 1.3D+00
   Bfn.  Coefficient  Atom+Function         Bfn.  Coefficient  Atom+Function  
  ----- ------------  ---------------      ----- ------------  ---------------
    17      0.541386  1 S  py                18     -0.341969  1 S  pz         
    14      0.254905  1 S  py                20      0.202960  1 S  py         
    16     -0.197525  1 S  px                11     -0.171962  1 S  py         
    15     -0.161012  1 S  pz                21     -0.128200  1 S  pz         
    12      0.108621  1 S  pz                13     -0.093002  1 S  px         
 
 Vector    9  Occ=0.000000D+00  E=-5.334421D-01
              MO Center= -4.0D-15, -2.9D-15, -3.5D-15, r^2= 1.3D+00
   Bfn.  Coefficient  Atom+Function         Bfn.  Coefficient  Atom+Function  
  ----- ------------  ---------------      ----- ------------  ---------------
    16      0.510077  1 S  px                18     -0.426540  1 S  pz         
    13      0.240163  1 S  px                15     -0.200831  1 S  pz         
    19      0.191222  1 S  px                10     -0.162017  1 S  px         
    21     -0.159905  1 S  pz                12      0.135483  1 S  pz         
     7     -0.086377  1 S  px                17     -0.083324  1 S  py         
 
 Vector   10  Occ=0.000000D+00  E=-1.630232D-01
              MO Center= -6.7D-14, -5.9D-14, -6.9D-14, r^2= 7.1D+00
   Bfn.  Coefficient  Atom+Function         Bfn.  Coefficient  Atom+Function  
  ----- ------------  ---------------      ----- ------------  ---------------
    22      1.318439  1 S  s                  6     -0.525453  1 S  s          
     5     -0.362505  1 S  s                  4      0.162088  1 S  s          
     3      0.077729  1 S  s                  2     -0.038631  1 S  s          
 
 Vector   11  Occ=0.000000D+00  E=-9.619730D-02
              MO Center=  4.7D-14,  4.4D-14,  4.3D-14, r^2= 1.0D+01
   Bfn.  Coefficient  Atom+Function         Bfn.  Coefficient  Atom+Function  
  ----- ------------  ---------------      ----- ------------  ---------------
    23      0.751792  1 S  px                24      0.749716  1 S  py         
    25      0.752561  1 S  pz                19     -0.206090  1 S  px         
    20     -0.205521  1 S  py                21     -0.206301  1 S  pz         
    13     -0.098691  1 S  px                14     -0.098419  1 S  py         
    15     -0.098792  1 S  pz                16     -0.070154  1 S  px         
 
 Vector   12  Occ=0.000000D+00  E=-9.619730D-02
              MO Center= -1.9D-14, -2.0D-14, -1.3D-14, r^2= 1.0D+01
   Bfn.  Coefficient  Atom+Function         Bfn.  Coefficient  Atom+Function  
  ----- ------------  ---------------      ----- ------------  ---------------
    25      1.061614  1 S  pz                23     -0.546251  1 S  px         
    24     -0.517879  1 S  py                21     -0.291022  1 S  pz         
    19      0.149745  1 S  px                20      0.141967  1 S  py         
    15     -0.139363  1 S  pz                18     -0.099065  1 S  pz         
    13      0.071709  1 S  px                14      0.067984  1 S  py         
 
 Vector   13  Occ=0.000000D+00  E=-9.619730D-02
              MO Center= -1.2D-14, -2.4D-14, -1.8D-14, r^2= 1.0D+01
   Bfn.  Coefficient  Atom+Function         Bfn.  Coefficient  Atom+Function  
  ----- ------------  ---------------      ----- ------------  ---------------
    24     -0.929161  1 S  py                23      0.911061  1 S  px         
    20      0.254712  1 S  py                19     -0.249751  1 S  px         
    14      0.121975  1 S  py                13     -0.119599  1 S  px         
    17      0.086706  1 S  py                16     -0.085016  1 S  px         
    11     -0.053654  1 S  py                10      0.052609  1 S  px         
 
 Vector   14  Occ=0.000000D+00  E=-5.809154D-02
              MO Center=  3.6D-15,  3.5D-15,  9.0D-15, r^2= 2.4D+00
   Bfn.  Coefficient  Atom+Function         Bfn.  Coefficient  Atom+Function  
  ----- ------------  ---------------      ----- ------------  ---------------
    39      0.946947  1 S  dxy               40      0.541360  1 S  dxz        
    43      0.494645  1 S  dzz               38     -0.395871  1 S  dxx        
    33      0.310552  1 S  dxy               42      0.205833  1 S  dyz        
    34      0.177539  1 S  dxz               37      0.162219  1 S  dzz        
    32     -0.129826  1 S  dxx               41     -0.098774  1 S  dyy        
 
 Vector   15  Occ=0.000000D+00  E=-5.809154D-02
              MO Center=  1.4D-14,  6.0D-15,  4.9D-15, r^2= 2.4D+00
   Bfn.  Coefficient  Atom+Function         Bfn.  Coefficient  Atom+Function  
  ----- ------------  ---------------      ----- ------------  ---------------
    38      0.698114  1 S  dxx               39      0.594439  1 S  dxy        
    40      0.383924  1 S  dxz               43     -0.352370  1 S  dzz        
    41     -0.345743  1 S  dyy               42      0.302565  1 S  dyz        
    32      0.228947  1 S  dxx               33      0.194947  1 S  dxy        
    34      0.125908  1 S  dxz               37     -0.115560  1 S  dzz        
 
 Vector   16  Occ=0.000000D+00  E=-5.809154D-02
              MO Center=  2.0D-15,  1.1D-14,  9.4D-16, r^2= 2.4D+00
   Bfn.  Coefficient  Atom+Function         Bfn.  Coefficient  Atom+Function  
  ----- ------------  ---------------      ----- ------------  ---------------
    42      1.184016  1 S  dyz               39     -0.625554  1 S  dxy        
    40      0.489609  1 S  dxz               36      0.388299  1 S  dyz        
    33     -0.205151  1 S  dxy               34      0.160568  1 S  dxz        
    30      0.114707  1 S  dyz               38     -0.083335  1 S  dxx        
    27     -0.060603  1 S  dxy               41      0.054617  1 S  dyy        
 
 Vector   17  Occ=0.000000D+00  E=-5.809154D-02
              MO Center=  2.9D-15,  2.0D-14,  2.1D-15, r^2= 2.4D+00
   Bfn.  Coefficient  Atom+Function         Bfn.  Coefficient  Atom+Function  
  ----- ------------  ---------------      ----- ------------  ---------------
    41      0.743318  1 S  dyy               43     -0.561020  1 S  dzz        
    39      0.446128  1 S  dxy               35      0.243772  1 S  dyy        
    40      0.219923  1 S  dxz               37     -0.183987  1 S  dzz        
    38     -0.182298  1 S  dxx               33      0.146308  1 S  dxy        
    42      0.077739  1 S  dyz               29      0.072012  1 S  dyy        
 
 Vector   18  Occ=0.000000D+00  E=-5.809154D-02
              MO Center=  3.2D-15, -4.1D-15,  6.2D-15, r^2= 2.4D+00
   Bfn.  Coefficient  Atom+Function         Bfn.  Coefficient  Atom+Function  
  ----- ------------  ---------------      ----- ------------  ---------------
    40      1.151469  1 S  dxz               42     -0.715949  1 S  dyz        
    39     -0.462622  1 S  dxy               34      0.377625  1 S  dxz        
    36     -0.234796  1 S  dyz               33     -0.151717  1 S  dxy        
    28      0.111554  1 S  dxz               30     -0.069361  1 S  dyz        
    27     -0.044819  1 S  dxy        
 
 Vector   19  Occ=0.000000D+00  E= 1.062093D-01
              MO Center= -3.6D-13, -3.6D-13, -3.6D-13, r^2= 1.0D+01
   Bfn.  Coefficient  Atom+Function         Bfn.  Coefficient  Atom+Function  
  ----- ------------  ---------------      ----- ------------  ---------------
    19      1.727269  1 S  px                20      1.722293  1 S  py         
    21      1.729488  1 S  pz                23     -1.236303  1 S  px         
    24     -1.232741  1 S  py                25     -1.237891  1 S  pz         
    16     -0.916919  1 S  px                17     -0.914278  1 S  py         
    18     -0.918097  1 S  pz                44      0.191340  1 S  fxxx       
 
 Vector   20  Occ=0.000000D+00  E= 1.062093D-01
              MO Center=  2.2D-15,  2.7D-14, -8.0D-15, r^2= 1.0D+01
   Bfn.  Coefficient  Atom+Function         Bfn.  Coefficient  Atom+Function  
  ----- ------------  ---------------      ----- ------------  ---------------
    20      2.247243  1 S  py                21     -1.951557  1 S  pz         
    24     -1.608478  1 S  py                25      1.396839  1 S  pz         
    17     -1.192948  1 S  py                18      1.035983  1 S  pz         
    19     -0.286705  1 S  px                45      0.248940  1 S  fxxy       
    50      0.248940  1 S  fyyy              52      0.248940  1 S  fyzz       
 
 Vector   21  Occ=0.000000D+00  E= 1.062093D-01
              MO Center= -2.8D-14,  2.2D-14,  2.9D-15, r^2= 1.0D+01
   Bfn.  Coefficient  Atom+Function         Bfn.  Coefficient  Atom+Function  
  ----- ------------  ---------------      ----- ------------  ---------------
    19      2.423886  1 S  px                23     -1.734911  1 S  px         
    21     -1.463275  1 S  pz                16     -1.286718  1 S  px         
    25      1.047348  1 S  pz                20     -0.961500  1 S  py         
    18      0.776779  1 S  pz                24      0.688199  1 S  py         
    17      0.510412  1 S  py                44      0.268508  1 S  fxxx       
 
 Vector   22  Occ=0.000000D+00  E= 1.254960D-01
              MO Center=  4.0D-13,  3.3D-13,  3.7D-13, r^2= 7.7D+00
   Bfn.  Coefficient  Atom+Function         Bfn.  Coefficient  Atom+Function  
  ----- ------------  ---------------      ----- ------------  ---------------
    22      1.961638  1 S  s                  6      1.941009  1 S  s          
    38     -1.563049  1 S  dxx               41     -1.563049  1 S  dyy        
    43     -1.563049  1 S  dzz               32     -0.296754  1 S  dxx        
    35     -0.296754  1 S  dyy               37     -0.296754  1 S  dzz        
     4     -0.290511  1 S  s                  3     -0.170760  1 S  s          
 
 Vector   23  Occ=0.000000D+00  E= 6.292834D-01
              MO Center=  1.8D-15,  2.5D-15, -3.2D-15, r^2= 1.6D+00
   Bfn.  Coefficient  Atom+Function         Bfn.  Coefficient  Atom+Function  
  ----- ------------  ---------------      ----- ------------  ---------------
    32      0.905317  1 S  dxx               38     -0.696211  1 S  dxx        
    37     -0.624934  1 S  dzz               43      0.480590  1 S  dzz        
    33      0.286040  1 S  dxy               35     -0.280383  1 S  dyy        
    36      0.281757  1 S  dyz               34      0.240302  1 S  dxz        
    39     -0.219972  1 S  dxy               41      0.215621  1 S  dyy        
 
 Vector   24  Occ=0.000000D+00  E= 6.292834D-01
              MO Center= -1.0D-15,  1.1D-15,  1.1D-15, r^2= 1.6D+00
   Bfn.  Coefficient  Atom+Function         Bfn.  Coefficient  Atom+Function  
  ----- ------------  ---------------      ----- ------------  ---------------
    33      1.270492  1 S  dxy               39     -0.977040  1 S  dxy        
    36     -0.902358  1 S  dyz               42      0.693936  1 S  dyz        
    34      0.534565  1 S  dxz               40     -0.411094  1 S  dxz        
    27      0.237636  1 S  dxy               30     -0.168779  1 S  dyz        
    37      0.162402  1 S  dzz               43     -0.124891  1 S  dzz        
 
 Vector   25  Occ=0.000000D+00  E= 6.292834D-01
              MO Center=  1.9D-15, -1.3D-15,  2.3D-15, r^2= 1.6D+00
   Bfn.  Coefficient  Atom+Function         Bfn.  Coefficient  Atom+Function  
  ----- ------------  ---------------      ----- ------------  ---------------
    34      1.343325  1 S  dxz               40     -1.033050  1 S  dxz        
    33     -0.886515  1 S  dxy               39      0.681752  1 S  dxy        
    36     -0.451837  1 S  dyz               42      0.347474  1 S  dyz        
    28      0.251259  1 S  dxz               27     -0.165816  1 S  dxy        
    30     -0.084513  1 S  dyz        
 
 Vector   26  Occ=0.000000D+00  E= 6.292834D-01
              MO Center=  3.7D-16,  1.3D-15,  6.3D-16, r^2= 1.6D+00
   Bfn.  Coefficient  Atom+Function         Bfn.  Coefficient  Atom+Function  
  ----- ------------  ---------------      ----- ------------  ---------------
    36      0.961809  1 S  dyz               42     -0.739655  1 S  dyz        
    34      0.702897  1 S  dxz               35      0.602638  1 S  dyy        
    40     -0.540545  1 S  dxz               33      0.533548  1 S  dxy        
    41     -0.463444  1 S  dyy               39     -0.410312  1 S  dxy        
    32     -0.329292  1 S  dxx               37     -0.273346  1 S  dzz        
 
 Vector   27  Occ=0.000000D+00  E= 6.292834D-01
              MO Center=  8.6D-15, -3.0D-15,  2.8D-14, r^2= 1.6D+00
   Bfn.  Coefficient  Atom+Function         Bfn.  Coefficient  Atom+Function  
  ----- ------------  ---------------      ----- ------------  ---------------
    36      0.879541  1 S  dyz               35     -0.691392  1 S  dyy        
    42     -0.676389  1 S  dyz               37      0.663705  1 S  dzz        
    41      0.531698  1 S  dyy               43     -0.510405  1 S  dzz        
    34      0.392903  1 S  dxz               40     -0.302152  1 S  dxz        
    33      0.172947  1 S  dxy               30      0.164511  1 S  dyz        
 
 Vector   28  Occ=0.000000D+00  E= 8.201317D-01
              MO Center=  2.1D-15,  3.5D-15,  3.1D-15, r^2= 4.1D+00
   Bfn.  Coefficient  Atom+Function         Bfn.  Coefficient  Atom+Function  
  ----- ------------  ---------------      ----- ------------  ---------------
    16      4.826569  1 S  px                17     -2.960593  1 S  py         
    19     -1.952442  1 S  px                18     -1.875028  1 S  pz         
    44     -1.823719  1 S  fxxx              47     -1.823719  1 S  fxyy       
    49     -1.823719  1 S  fxzz              13     -1.629686  1 S  px         
    20      1.197618  1 S  py                45      1.118660  1 S  fxxy       
 
 Vector   29  Occ=0.000000D+00  E= 8.201317D-01
              MO Center= -8.4D-14, -8.4D-14, -8.4D-14, r^2= 4.1D+00
   Bfn.  Coefficient  Atom+Function         Bfn.  Coefficient  Atom+Function  
  ----- ------------  ---------------      ----- ------------  ---------------
    16      3.447280  1 S  px                17      3.437251  1 S  py         
    18      3.446472  1 S  pz                19     -1.394493  1 S  px         
    20     -1.390436  1 S  py                21     -1.394166  1 S  pz         
    44     -1.302554  1 S  fxxx              45     -1.298765  1 S  fxxy       
    46     -1.302249  1 S  fxxz              47     -1.302554  1 S  fxyy       
 
 Vector   30  Occ=0.000000D+00  E= 8.201317D-01
              MO Center=  3.0D-15,  2.8D-15,  3.6D-15, r^2= 4.1D+00
   Bfn.  Coefficient  Atom+Function         Bfn.  Coefficient  Atom+Function  
  ----- ------------  ---------------      ----- ------------  ---------------
    18      4.492516  1 S  pz                17     -3.872570  1 S  py         
    21     -1.817312  1 S  pz                46     -1.697497  1 S  fxxz       
    51     -1.697497  1 S  fyyz              53     -1.697497  1 S  fzzz       
    20      1.566531  1 S  py                15     -1.516893  1 S  pz         
    45      1.463250  1 S  fxxy              50      1.463250  1 S  fyyy       
 
 Vector   31  Occ=0.000000D+00  E= 9.648851D-01
              MO Center=  8.9D-14,  8.9D-14,  8.7D-14, r^2= 3.6D+00
   Bfn.  Coefficient  Atom+Function         Bfn.  Coefficient  Atom+Function  
  ----- ------------  ---------------      ----- ------------  ---------------
     6     10.682180  1 S  s                  5     -4.029434  1 S  s          
    38     -3.261324  1 S  dxx               41     -3.261324  1 S  dyy        
    43     -3.261324  1 S  dzz               22      1.124461  1 S  s          
    32     -1.054513  1 S  dxx               35     -1.054513  1 S  dyy        
    37     -1.054513  1 S  dzz                4      0.253352  1 S  s          
 
 Vector   32  Occ=0.000000D+00  E= 1.283358D+00
              MO Center=  9.2D-16,  1.0D-15,  2.2D-15, r^2= 1.1D+00
   Bfn.  Coefficient  Atom+Function         Bfn.  Coefficient  Atom+Function  
  ----- ------------  ---------------      ----- ------------  ---------------
    52      1.979388  1 S  fyzz              48     -1.630622  1 S  fxyz       
    45     -1.076337  1 S  fxxy              51     -0.477509  1 S  fyyz       
    46     -0.439704  1 S  fxxz              53      0.305737  1 S  fzzz       
    50     -0.301017  1 S  fyyy              47      0.210283  1 S  fxyy       
    49      0.168515  1 S  fxzz              44     -0.126266  1 S  fxxx       
 
 Vector   33  Occ=0.000000D+00  E= 1.283358D+00
              MO Center=  1.1D-15,  1.1D-15,  2.4D-15, r^2= 1.1D+00
   Bfn.  Coefficient  Atom+Function         Bfn.  Coefficient  Atom+Function  
  ----- ------------  ---------------      ----- ------------  ---------------
    51      1.637765  1 S  fyyz              48      1.432996  1 S  fxyz       
    49      0.827711  1 S  fxzz              47      0.806960  1 S  fxyy       
    52      0.743370  1 S  fyzz              44     -0.544890  1 S  fxxx       
    46     -0.518456  1 S  fxxz              53     -0.373103  1 S  fzzz       
    50     -0.310614  1 S  fyyy              45      0.188472  1 S  fxxy       
 
 Vector   34  Occ=0.000000D+00  E= 1.283358D+00
              MO Center=  8.8D-16,  1.8D-15,  8.5D-16, r^2= 1.1D+00
   Bfn.  Coefficient  Atom+Function         Bfn.  Coefficient  Atom+Function  
  ----- ------------  ---------------      ----- ------------  ---------------
    47      1.982991  1 S  fxyy              49     -1.702796  1 S  fxzz       
    51     -0.435464  1 S  fyyz              46      0.385672  1 S  fxxz       
    45      0.363406  1 S  fxxy              48      0.345638  1 S  fxyz       
    50     -0.171500  1 S  fyyy              52      0.151095  1 S  fyzz       
    44     -0.093398  1 S  fxxx       
 
 Vector   35  Occ=0.000000D+00  E= 1.283358D+00
              MO Center=  1.9D-15,  5.9D-16,  2.4D-16, r^2= 1.1D+00
   Bfn.  Coefficient  Atom+Function         Bfn.  Coefficient  Atom+Function  
  ----- ------------  ---------------      ----- ------------  ---------------
    48      2.702655  1 S  fxyz              46      1.172157  1 S  fxxz       
    51     -0.996660  1 S  fyyz              45     -0.864532  1 S  fxxy       
    52      0.729394  1 S  fyzz              47     -0.338505  1 S  fxyy       
    49      0.261106  1 S  fxzz              53     -0.058499  1 S  fzzz       
    50      0.045046  1 S  fyyy              44      0.025800  1 S  fxxx       
 
 Vector   36  Occ=0.000000D+00  E= 1.283358D+00
              MO Center=  1.6D-15, -4.0D-16,  1.8D-15, r^2= 1.1D+00
   Bfn.  Coefficient  Atom+Function         Bfn.  Coefficient  Atom+Function  
  ----- ------------  ---------------      ----- ------------  ---------------
    46      1.666474  1 S  fxxz              48     -1.531066  1 S  fxyz       
    45     -0.884719  1 S  fxxy              53     -0.765146  1 S  fzzz       
    51      0.628964  1 S  fyyz              50      0.347821  1 S  fyyy       
    47      0.344002  1 S  fxyy              44     -0.167680  1 S  fxxx       
    49      0.159037  1 S  fxzz              52     -0.158743  1 S  fyzz       
 
 Vector   37  Occ=0.000000D+00  E= 1.283358D+00
              MO Center=  2.1D-15,  2.5D-16,  1.3D-15, r^2= 1.1D+00
   Bfn.  Coefficient  Atom+Function         Bfn.  Coefficient  Atom+Function  
  ----- ------------  ---------------      ----- ------------  ---------------
    49      1.212662  1 S  fxzz              47      1.063530  1 S  fxyy       
    51     -0.926298  1 S  fyyz              52     -0.928205  1 S  fyzz       
    44     -0.758731  1 S  fxxx              50      0.459286  1 S  fyyy       
    45     -0.449653  1 S  fxxy              53      0.413145  1 S  fzzz       
    46     -0.313137  1 S  fxxz              48     -0.114945  1 S  fxyz       
 
 Vector   38  Occ=0.000000D+00  E= 1.283358D+00
              MO Center=  1.5D-15,  1.1D-15,  4.0D-16, r^2= 1.1D+00
   Bfn.  Coefficient  Atom+Function         Bfn.  Coefficient  Atom+Function  
  ----- ------------  ---------------      ----- ------------  ---------------
    45      1.715104  1 S  fxxy              46      1.067699  1 S  fxxz       
    49      0.907175  1 S  fxzz              51     -0.808162  1 S  fyyz       
    48     -0.711621  1 S  fxyz              50     -0.670480  1 S  fyyy       
    52      0.296336  1 S  fyzz              44     -0.271981  1 S  fxxx       
    47     -0.091230  1 S  fxyy              53     -0.086512  1 S  fzzz       
 
 Vector   39  Occ=0.000000D+00  E= 2.633427D+00
              MO Center= -4.4D-15, -1.3D-15, -3.5D-15, r^2= 1.8D+00
   Bfn.  Coefficient  Atom+Function         Bfn.  Coefficient  Atom+Function  
  ----- ------------  ---------------      ----- ------------  ---------------
    17      4.506519  1 S  py                16     -4.068225  1 S  px         
    45     -2.753858  1 S  fxxy              50     -2.753858  1 S  fyyy       
    52     -2.753858  1 S  fyzz              44      2.486024  1 S  fxxx       
    47      2.486024  1 S  fxyy              49      2.486024  1 S  fxzz       
    20     -1.003990  1 S  py                19      0.906345  1 S  px         
 
 Vector   40  Occ=0.000000D+00  E= 2.633427D+00
              MO Center= -2.7D-14, -2.7D-14, -2.7D-14, r^2= 1.8D+00
   Bfn.  Coefficient  Atom+Function         Bfn.  Coefficient  Atom+Function  
  ----- ------------  ---------------      ----- ------------  ---------------
    16      3.514635  1 S  px                17      3.506182  1 S  py         
    18      3.520694  1 S  pz                44     -2.147735  1 S  fxxx       
    45     -2.142569  1 S  fxxy              46     -2.151437  1 S  fxxz       
    47     -2.147735  1 S  fxyy              49     -2.147735  1 S  fxzz       
    50     -2.142569  1 S  fyyy              51     -2.151437  1 S  fyyz       
 
 Vector   41  Occ=0.000000D+00  E= 2.633427D+00
              MO Center= -1.2D-15, -9.9D-16, -6.9D-15, r^2= 1.8D+00
   Bfn.  Coefficient  Atom+Function         Bfn.  Coefficient  Atom+Function  
  ----- ------------  ---------------      ----- ------------  ---------------
    18      4.946098  1 S  pz                46     -3.022478  1 S  fxxz       
    51     -3.022478  1 S  fyyz              53     -3.022478  1 S  fzzz       
    16     -2.852743  1 S  px                17     -2.106949  1 S  py         
    44      1.743264  1 S  fxxx              47      1.743264  1 S  fxyy       
    49      1.743264  1 S  fxzz              45      1.287521  1 S  fxxy       
 
 Vector   42  Occ=0.000000D+00  E= 3.398239D+00
              MO Center=  2.2D-14,  1.8D-14,  2.7D-14, r^2= 1.5D+00
   Bfn.  Coefficient  Atom+Function         Bfn.  Coefficient  Atom+Function  
  ----- ------------  ---------------      ----- ------------  ---------------
     5      8.437598  1 S  s                  6      6.905725  1 S  s          
    32     -4.656365  1 S  dxx               35     -4.656365  1 S  dyy        
    37     -4.656365  1 S  dzz                4     -2.143478  1 S  s          
    38     -1.945028  1 S  dxx               41     -1.945028  1 S  dyy        
    43     -1.945028  1 S  dzz                3     -1.120489  1 S  s          
 
 Vector   43  Occ=0.000000D+00  E= 4.135300D+00
              MO Center=  3.2D-15,  2.6D-15,  1.4D-15, r^2= 4.6D-01
   Bfn.  Coefficient  Atom+Function         Bfn.  Coefficient  Atom+Function  
  ----- ------------  ---------------      ----- ------------  ---------------
    26      0.919825  1 S  dxx               29     -0.878912  1 S  dyy        
    32     -0.652621  1 S  dxx               35      0.623593  1 S  dyy        
    28      0.511216  1 S  dxz               27     -0.449109  1 S  dxy        
    34     -0.362711  1 S  dxz               33      0.318645  1 S  dxy        
    30     -0.308645  1 S  dyz               36      0.218985  1 S  dyz        
 
 Vector   44  Occ=0.000000D+00  E= 4.135300D+00
              MO Center=  1.0D-15,  2.3D-15,  3.7D-15, r^2= 4.6D-01
   Bfn.  Coefficient  Atom+Function         Bfn.  Coefficient  Atom+Function  
  ----- ------------  ---------------      ----- ------------  ---------------
    30      1.030268  1 S  dyz               31      0.911301  1 S  dzz        
    36     -0.730981  1 S  dyz               37     -0.646573  1 S  dzz        
    29     -0.498630  1 S  dyy               28      0.484536  1 S  dxz        
    26     -0.412671  1 S  dxx               35      0.353781  1 S  dyy        
    34     -0.343781  1 S  dxz               32      0.292792  1 S  dxx        
 
 Vector   45  Occ=0.000000D+00  E= 4.135300D+00
              MO Center=  7.1D-16,  1.2D-15,  1.2D-15, r^2= 4.6D-01
   Bfn.  Coefficient  Atom+Function         Bfn.  Coefficient  Atom+Function  
  ----- ------------  ---------------      ----- ------------  ---------------
    28      1.325273  1 S  dxz               34     -0.940289  1 S  dxz        
    30      0.868328  1 S  dyz               36     -0.616083  1 S  dyz        
    31     -0.560316  1 S  dzz               29      0.469397  1 S  dyy        
    27     -0.450923  1 S  dxy               37      0.397547  1 S  dzz        
    35     -0.333040  1 S  dyy               33      0.319932  1 S  dxy        
 
 Vector   46  Occ=0.000000D+00  E= 4.135300D+00
              MO Center=  3.1D-16, -9.3D-16,  2.2D-15, r^2= 4.6D-01
   Bfn.  Coefficient  Atom+Function         Bfn.  Coefficient  Atom+Function  
  ----- ------------  ---------------      ----- ------------  ---------------
    30      1.351606  1 S  dyz               28     -1.177305  1 S  dxz        
    36     -0.958972  1 S  dyz               34      0.835305  1 S  dxz        
    26      0.419202  1 S  dxx               31     -0.319318  1 S  dzz        
    42      0.315995  1 S  dyz               32     -0.297426  1 S  dxx        
    40     -0.275245  1 S  dxz               37      0.226558  1 S  dzz        
 
 Vector   47  Occ=0.000000D+00  E= 4.135300D+00
              MO Center=  3.0D-15,  3.4D-15,  1.1D-15, r^2= 4.6D-01
   Bfn.  Coefficient  Atom+Function         Bfn.  Coefficient  Atom+Function  
  ----- ------------  ---------------      ----- ------------  ---------------
    27      1.838326  1 S  dxy               33     -1.304302  1 S  dxy        
    39      0.429786  1 S  dxy               28      0.400332  1 S  dxz        
    34     -0.284038  1 S  dxz               26      0.256687  1 S  dxx        
    30      0.247456  1 S  dyz               32     -0.182121  1 S  dxx        
    36     -0.175571  1 S  dyz               31     -0.134903  1 S  dzz        
 
 Vector   48  Occ=0.000000D+00  E= 9.660995D+00
              MO Center= -4.5D-16, -8.2D-16, -1.0D-16, r^2= 6.1D-01
   Bfn.  Coefficient  Atom+Function         Bfn.  Coefficient  Atom+Function  
  ----- ------------  ---------------      ----- ------------  ---------------
     5     19.133996  1 S  s                 32     -6.282915  1 S  dxx        
    35     -6.282915  1 S  dyy               37     -6.282915  1 S  dzz        
    26     -3.377482  1 S  dxx               29     -3.377482  1 S  dyy        
    31     -3.377482  1 S  dzz                3     -1.951169  1 S  s          
     6      1.044017  1 S  s                  4     -0.597895  1 S  s          
 
 Vector   49  Occ=0.000000D+00  E= 1.801526D+01
              MO Center=  3.8D-17,  1.0D-17,  6.4D-17, r^2= 2.2D-01
   Bfn.  Coefficient  Atom+Function         Bfn.  Coefficient  Atom+Function  
  ----- ------------  ---------------      ----- ------------  ---------------
    18      1.450092  1 S  pz                12     -1.174341  1 S  pz         
    17     -1.167770  1 S  py                46     -1.004820  1 S  fxxz       
    51     -1.004820  1 S  fyyz              53     -1.004820  1 S  fzzz       
     9      0.945504  1 S  pz                11      0.945706  1 S  py         
    45      0.809189  1 S  fxxy              50      0.809189  1 S  fyyy       
 
 Vector   50  Occ=0.000000D+00  E= 1.801526D+01
              MO Center=  1.3D-16, -3.8D-17,  1.3D-17, r^2= 2.2D-01
   Bfn.  Coefficient  Atom+Function         Bfn.  Coefficient  Atom+Function  
  ----- ------------  ---------------      ----- ------------  ---------------
    16      1.510429  1 S  px                10     -1.223204  1 S  px         
    44     -1.046630  1 S  fxxx              47     -1.046630  1 S  fxyy       
    49     -1.046630  1 S  fxzz              17     -1.003591  1 S  py         
     7      0.984845  1 S  px                11      0.812747  1 S  py         
    45      0.695424  1 S  fxxy              50      0.695424  1 S  fyyy       
 
 Vector   51  Occ=0.000000D+00  E= 1.801526D+01
              MO Center=  3.8D-16,  4.0D-16,  3.7D-16, r^2= 2.2D-01
   Bfn.  Coefficient  Atom+Function         Bfn.  Coefficient  Atom+Function  
  ----- ------------  ---------------      ----- ------------  ---------------
    16      1.088603  1 S  px                17      1.085186  1 S  py         
    18      1.088956  1 S  pz                10     -0.881593  1 S  px         
    11     -0.878826  1 S  py                12     -0.881879  1 S  pz         
    44     -0.754332  1 S  fxxx              45     -0.751964  1 S  fxxy       
    46     -0.754576  1 S  fxxz              47     -0.754332  1 S  fxyy       
 
 Vector   52  Occ=0.000000D+00  E= 2.441759D+01
              MO Center= -2.3D-17,  4.5D-18,  5.3D-17, r^2= 2.6D-01
   Bfn.  Coefficient  Atom+Function         Bfn.  Coefficient  Atom+Function  
  ----- ------------  ---------------      ----- ------------  ---------------
     5     16.169067  1 S  s                  4     15.757560  1 S  s          
     3    -12.053716  1 S  s                 26     -6.813885  1 S  dxx        
    29     -6.813885  1 S  dyy               31     -6.813885  1 S  dzz        
    32     -4.813713  1 S  dxx               35     -4.813713  1 S  dyy        
    37     -4.813713  1 S  dzz                2      0.664015  1 S  s          
 
 Vector   53  Occ=0.000000D+00  E= 2.186858D+02
              MO Center= -5.5D-19,  6.3D-19, -1.4D-19, r^2= 3.2D-02
   Bfn.  Coefficient  Atom+Function         Bfn.  Coefficient  Atom+Function  
  ----- ------------  ---------------      ----- ------------  ---------------
     4      7.655669  1 S  s                  3     -6.329920  1 S  s          
     5      5.373840  1 S  s                 26     -2.767144  1 S  dxx        
    29     -2.767144  1 S  dyy               31     -2.767144  1 S  dzz        
     2      2.291602  1 S  s                  1     -1.625379  1 S  s          
    32     -1.613305  1 S  dxx               35     -1.613305  1 S  dyy        
 

   alpha - beta orbital overlaps 
   ----------------------------- 


   alpha      1      2      3      4      5      6      7      8      9     10
    beta      1      2      3      5      4      6      9      7      8     10
 overlap   1.000  1.000  0.638  0.873  0.760  1.000  0.987  0.998  0.987  0.999


   alpha     11     12     13     14     15     16     17     18     19     20
    beta     15     14     17     18     16     11     13     12     19     21
 overlap   0.851  0.716  0.626  0.934  0.715  0.995  0.873  0.873  0.995  0.991


   alpha     21     22     23     24     25     26     27     28     29     30
    beta     20     22     26     27     24     25     23     28     29     30
 overlap   0.991  0.999  0.895  0.955  0.815  0.819  0.963  0.839  1.000  0.839


   alpha     31     32     33     34     35     36     37     38     39     40
    beta     31     38     37     34     33     38     36     32     39     41
 overlap   1.000  0.649  0.804  0.789  0.705  0.632  0.805  0.821  0.855  0.855


   alpha     41     42     43     44     45     46     47     48     49     50
    beta     40     42     45     44     46     47     44     48     50     51
 overlap   1.000  1.000  0.692  0.733  0.751  0.610  0.643  1.000  0.961  1.000


   alpha     51     52     53
    beta     49     52     53
 overlap   0.961  1.000  1.000

     --------------------------
     Expectation value of S2:  
     --------------------------
      <S2> =      3.7508 (Exact =     3.7500)
 

 Parallel integral file used      16 records with       0 large values


 Task  times  cpu:        1.3s     wall:        1.8s
 
 
                                NWChem Input Module
                                -------------------
 
 
 Summary of allocated global arrays
-----------------------------------
  No active global arrays



                         GA Statistics for process    0
                         ------------------------------

       create   destroy   get      put      acc     scatter   gather  read&inc
calls:  221      221      887      756      160        0        0       74     
number of processes/call 1.55e+00 1.27e+00 3.74e+00 0.00e+00 0.00e+00
bytes total:             1.04e+07 3.88e+06 3.60e+06 0.00e+00 0.00e+00 5.92e+02
bytes remote:            7.72e+05 1.23e+05 8.70e+05 0.00e+00 0.00e+00 0.00e+00
Max memory consumed for GA by this process: 1460680 bytes
 
MA_summarize_allocated_blocks: starting scan ...
MA_summarize_allocated_blocks: scan completed: 0 heap blocks, 0 stack blocks
MA usage statistics:

	allocation statistics:
					      heap	     stack
					      ----	     -----
	current number of blocks	         0	         0
	maximum number of blocks	        21	        53
	current total bytes		         0	         0
	maximum total bytes		   2415152	  22513048
	maximum total K-bytes		      2416	     22514
	maximum total M-bytes		         3	        23
 
 
                                     CITATION
                                     --------
                Please cite the following reference when publishing
                           results obtained with NWChem:
 
                 M. Valiev, E.J. Bylaska, N. Govind, K. Kowalski,
              T.P. Straatsma, H.J.J. van Dam, D. Wang, J. Nieplocha,
                        E. Apra, T.L. Windus, W.A. de Jong
                 "NWChem: a comprehensive and scalable open-source
                  solution for large scale molecular simulations"
                      Comput. Phys. Commun. 181, 1477 (2010)
                           doi:10.1016/j.cpc.2010.04.018
 
                                      AUTHORS
                                      -------
          E. Apra, E. J. Bylaska, W. A. de Jong, N. Govind, K. Kowalski,
       T. P. Straatsma, M. Valiev, H. J. J. van Dam, D. Wang, T. L. Windus,
        J. Hammond, J. Autschbach, K. Bhaskaran-Nair, J. Brabec, K. Lopata,
    S. A. Fischer, S. Krishnamoorthy, M. Jacquelin, W. Ma, M. Klemm, O. Villa,
      Y. Chen, V. Anisimov, F. Aquino, S. Hirata, M. T. Hackler, V. Konjkov,
            D. Mejia-Rodriguez, T. Risthaus, M. Malagoli, A. Marenich,
   A. Otero-de-la-Roza, J. Mullin, P. Nichols, R. Peverati, J. Pittner, Y. Zhao,
        P.-D. Fan, A. Fonari, M. J. Williamson, R. J. Harrison, J. R. Rehr,
      M. Dupuis, D. Silverstein, D. M. A. Smith, J. Nieplocha, V. Tipparaju,
    M. Krishnan, B. E. Van Kuiken, A. Vazquez-Mayagoitia, L. Jensen, M. Swart,
      Q. Wu, T. Van Voorhis, A. A. Auer, M. Nooijen, L. D. Crosby, E. Brown,
      G. Cisneros, G. I. Fann, H. Fruchtl, J. Garza, K. Hirao, R. A. Kendall,
      J. A. Nichols, K. Tsemekhman, K. Wolinski, J. Anchell, D. E. Bernholdt,
      P. Borowski, T. Clark, D. Clerc, H. Dachsel, M. J. O. Deegan, K. Dyall,
    D. Elwood, E. Glendening, M. Gutowski, A. C. Hess, J. Jaffe, B. G. Johnson,
     J. Ju, R. Kobayashi, R. Kutteh, Z. Lin, R. Littlefield, X. Long, B. Meng,
      T. Nakajima, S. Niu, L. Pollack, M. Rosing, K. Glaesemann, G. Sandrone,
      M. Stave, H. Taylor, G. Thomas, J. H. van Lenthe, A. T. Wong, Z. Zhang.

 Total times  cpu:        2.0s     wall:        3.1s
