 argument  1 = /storage/home/rabeet/work/nwc/ip13/nwtpss/Si.nw
  NWChem w/ OpenMP: maximum threads =  1
                                         
                                         
 
 
              Northwest Computational Chemistry Package (NWChem) 6.8
              ------------------------------------------------------
 
 
                    Environmental Molecular Sciences Laboratory
                       Pacific Northwest National Laboratory
                                Richland, WA 99352
 
                              Copyright (c) 1994-2018
                       Pacific Northwest National Laboratory
                            Battelle Memorial Institute
 
             NWChem is an open-source computational chemistry package
                        distributed under the terms of the
                      Educational Community License (ECL) 2.0
             A copy of the license is included with this distribution
                              in the LICENSE.TXT file
 
                                  ACKNOWLEDGMENT
                                  --------------

            This software and its documentation were developed at the
            EMSL at Pacific Northwest National Laboratory, a multiprogram
            national laboratory, operated for the U.S. Department of Energy
            by Battelle under Contract Number DE-AC05-76RL01830. Support
            for this work was provided by the Department of Energy Office
            of Biological and Environmental Research, Office of Basic
            Energy Sciences, and the Office of Advanced Scientific Computing.


           Job information
           ---------------

    hostname        = r8n4.niserhpc.org
    program         = /home/rabeet/nwchem-6.8/bin/LINUX64/nwchem
    date            = Sun Oct 27 10:45:00 2019

    compiled        = Fri_Jun_28_18:24:12_2019
    source          = /home/rabeet/nwchem-6.8
    nwchem branch   = Development
    nwchem revision = N/A
    ga revision     = 5.6.5
    use scalapack   = T
    input           = /storage/home/rabeet/work/nwc/ip13/nwtpss/Si.nw
    prefix          = Si.
    data base       = ./Si.db
    status          = startup
    nproc           =       16
    time left       =     -1s



           Memory information
           ------------------

    heap     =   13107198 doubles =    100.0 Mbytes
    stack    =   13107195 doubles =    100.0 Mbytes
    global   =   26214400 doubles =    200.0 Mbytes (distinct from heap & stack)
    total    =   52428793 doubles =    400.0 Mbytes
    verify   = yes
    hardfail = no 


           Directory information
           ---------------------
 
  0 permanent = .
  0 scratch   = .
 
 
 
 
                                NWChem Input Module
                                -------------------
 
 

 Scaling coordinates for geometry "geometry" by  1.889725989
 (inverse scale =  0.529177249)

 
 
                             Geometry "geometry" -> ""
                             -------------------------
 
 Output coordinates in angstroms (scale by  1.889725989 to convert to a.u.)
 
  No.       Tag          Charge          X              Y              Z
 ---- ---------------- ---------- -------------- -------------- --------------
    1 Si                  14.0000     0.00000000     0.00000000     0.00000000
 
      Atomic Mass 
      ----------- 
 
      Si                27.976930
 

 Effective nuclear repulsion energy (a.u.)       0.0000000000

            Nuclear Dipole moment (a.u.) 
            ----------------------------
        X                 Y               Z
 ---------------- ---------------- ----------------
     0.0000000000     0.0000000000     0.0000000000
 
 
            XYZ format geometry
            -------------------
     1
 geometry
 Si                    0.00000000     0.00000000     0.00000000
 


 Summary of "ao basis" -> "" (cartesian)
 ------------------------------------------------------------------------------
       Tag                 Description            Shells   Functions and Types
 ---------------- ------------------------------  ------  ---------------------
 *                     6-311++G(3df,3pd)              on all atoms 


 
                                 NWChem DFT Module
                                 -----------------
 
 
                      Basis "ao basis" -> "ao basis" (cartesian)
                      -----
  Si (Silicon)
  ------------
            Exponent  Coefficients 
       -------------- ---------------------------------------------------------
  1 S  6.93792300E+04  0.000757
  1 S  1.03549400E+04  0.005932
  1 S  2.33387960E+03  0.031088
  1 S  6.57142950E+02  0.124967
  1 S  2.14301130E+02  0.386897
  1 S  7.76291680E+01  0.554888
 
  2 S  7.76291680E+01  0.177881
  2 S  3.06308070E+01  0.627765
  2 S  1.28012950E+01  0.247623
 
  3 S  3.92686600E+00  1.000000
 
  4 S  1.45234300E+00  1.000000
 
  5 S  2.56234000E-01  1.000000
 
  6 S  9.42790000E-02  1.000000
 
  7 P  3.35483190E+02  0.008866
  7 P  7.89003660E+01  0.068299
  7 P  2.49881500E+01  0.290958
  7 P  9.21971100E+00  0.732117
 
  8 P  3.62114000E+00  0.619879
  8 P  1.45131000E+00  0.439148
 
  9 P  5.04977000E-01  1.000000
 
 10 P  1.86317000E-01  1.000000
 
 11 P  6.54320000E-02  1.000000
 
 12 S  3.31000000E-02  1.000000
 
 13 P  3.31000000E-02  1.000000
 
 14 D  1.80000000E+00  1.000000
 
 15 D  4.50000000E-01  1.000000
 
 16 D  1.12500000E-01  1.000000
 
 17 F  3.20000000E-01  1.000000
 


 Summary of "ao basis" -> "ao basis" (cartesian)
 ------------------------------------------------------------------------------
       Tag                 Description            Shells   Functions and Types
 ---------------- ------------------------------  ------  ---------------------
 Si                    6-311++G(3df,3pd)            17       53   7s6p3d1f




 Summary of "ao basis" -> "ao basis" (cartesian)
 ------------------------------------------------------------------------------
       Tag                 Description            Shells   Functions and Types
 ---------------- ------------------------------  ------  ---------------------
 Si                    6-311++G(3df,3pd)            17       53   7s6p3d1f


  Caching 1-el integrals 
 
            General Information
            -------------------
          SCF calculation type: DFT
          Wavefunction type:  spin polarized.
          No. of atoms     :     1
          No. of electrons :    14
           Alpha electrons :     8
            Beta electrons :     6
          Charge           :     0
          Spin multiplicity:     3
          Use of symmetry is: off; symmetry adaption is: off
          Maximum number of iterations: ***
          AO basis - number of functions:    53
                     number of shells:    17
          Convergence on energy requested:  1.00D-06
          Convergence on density requested:  1.00D-05
          Convergence on gradient requested:  5.00D-04
 
              XC Information
              --------------
                  TPSS metaGGA Exchange Functional  1.000          
             TPSS03 metaGGA Correlation Functional  1.000          
 
             Grid Information
             ----------------
          Grid used for XC integration:  medium    
          Radial quadrature: Mura-Knowles        
          Angular quadrature: Lebedev. 
          Tag              B.-S. Rad. Rad. Pts. Rad. Cut. Ang. Pts.
          ---              ---------- --------- --------- ---------
          Si                  1.10       88           9.0       590
          Grid pruning is: on 
          Number of quadrature shells:    88
          Spatial weights used:  Erf1
 
          Convergence Information
          -----------------------
          Convergence aids based upon iterative change in 
          total energy or number of iterations. 
          Levelshifting, if invoked, occurs when the 
          HOMO/LUMO gap drops below (HL_TOL):  1.00D-02
          DIIS, if invoked, will attempt to extrapolate 
          using up to (NFOCK): 10 stored Fock matrices.

                    Damping( 0%)  Levelshifting(0.5)       DIIS
                  --------------- ------------------- ---------------
          dE  on:    start            ASAP                start   
          dE off:    2 iters        *** iters           *** iters 

 
      Screening Tolerance Information
      -------------------------------
          Density screening/tol_rho:  1.00D-10
          AO Gaussian exp screening on grid/accAOfunc:  14
          CD Gaussian exp screening on grid/accCDfunc:  20
          XC Gaussian exp screening on grid/accXCfunc:  20
          Schwarz screening/accCoul:  1.00D-08

 
      Superposition of Atomic Density Guess
      -------------------------------------
 
 Sum of atomic energies:        -288.83675415
 
      Non-variational initial energy
      ------------------------------

 Total energy =    -288.618416
 1-e energy   =    -400.505699
 2-e energy   =     111.887283
 HOMO         =      -0.075219
 LUMO         =      -0.075219
 
   Time after variat. SCF:      0.4
   Time prior to 1st pass:      0.4

 #quartets = 1.177D+04 #integrals = 1.640D+05 #direct =  0.0% #cached =100.0%


 Integral file          = ./Si.aoints.00
 Record size in doubles =    65536    No. of integs per rec  =    43688
 Max. records in memory =        4    Max. records in file   =  8902698
 No. of bits per label  =        8    No. of bits per value  =       64


File balance: exchanges=     0  moved=     0  time=   0.0


 Grid_pts file          = ./Si.gridpts.00
 Record size in doubles =  12289        No. of grid_pts per rec  =   3070
 Max. records in memory =      3        Max. recs in file   =   1137171


           Memory utilization after 1st SCF pass: 
           Heap Space remaining (MW):       12.81            12805262
          Stack Space remaining (MW):       13.11            13106652

   convergence    iter        energy       DeltaE   RMS-Dens  Diis-err    time
 ---------------- ----- ----------------- --------- --------- ---------  ------
 d= 0,ls=0.0,diis     1   -289.3638252289 -2.89D+02  7.34D-03  1.13D-01     1.4
                                                     2.18D-03  8.87D-02
 d= 0,ls=0.0,diis     2   -289.3891253639 -2.53D-02  3.57D-03  5.73D-03     1.5
                                                     2.96D-03  4.33D-03
 d= 0,ls=0.0,diis     3   -289.3920028731 -2.88D-03  9.59D-04  1.99D-03     1.6
                                                     5.17D-04  1.73D-03
 d= 0,ls=0.0,diis     4   -289.3925143607 -5.11D-04  2.27D-04  1.83D-05     1.7
                                                     8.68D-05  9.77D-06
 d= 0,ls=0.0,diis     5   -289.3925281665 -1.38D-05  3.30D-05  4.52D-07     2.3
                                                     3.78D-05  5.27D-07
 d= 0,ls=0.0,diis     6   -289.3925286348 -4.68D-07  5.26D-06  1.98D-09     2.4
                                                     1.23D-06  2.09D-09


         Total DFT energy =     -289.392528634837
      One electron energy =     -400.664603883982
           Coulomb energy =      132.100137097458
          Exchange energy =      -20.339749994200
       Correlation energy =       -0.488311854114
 Nuclear repulsion energy =        0.000000000000

 Numeric. integr. density =       14.000000000913

     Total iterative time =      2.0s


 
                    DFT Final Alpha Molecular Orbital Analysis
                    ------------------------------------------
 
 Vector    1  Occ=1.000000D+00  E=-6.570866D+01
              MO Center= -1.6D-17, -1.2D-17, -1.2D-17, r^2= 4.7D-03
   Bfn.  Coefficient  Atom+Function         Bfn.  Coefficient  Atom+Function  
  ----- ------------  ---------------      ----- ------------  ---------------
     2      0.645731  1 Si s                  1      0.418145  1 Si s          
     3      0.026896  1 Si s          
 
 Vector    2  Occ=1.000000D+00  E=-5.146637D+00
              MO Center=  2.1D-16,  5.1D-16,  4.0D-16, r^2= 1.1D-01
   Bfn.  Coefficient  Atom+Function         Bfn.  Coefficient  Atom+Function  
  ----- ------------  ---------------      ----- ------------  ---------------
     3      0.549944  1 Si s                  4      0.546538  1 Si s          
     2     -0.305124  1 Si s                  1     -0.116842  1 Si s          
     5      0.104210  1 Si s                  6     -0.081694  1 Si s          
 
 Vector    3  Occ=1.000000D+00  E=-3.526704D+00
              MO Center= -1.1D-15, -9.4D-17, -8.8D-17, r^2= 1.0D-01
   Bfn.  Coefficient  Atom+Function         Bfn.  Coefficient  Atom+Function  
  ----- ------------  ---------------      ----- ------------  ---------------
    10      0.678948  1 Si px                 7      0.397529  1 Si px         
    11      0.104293  1 Si py                 8      0.061064  1 Si py         
    12      0.052506  1 Si pz                13      0.051428  1 Si px         
     9      0.030742  1 Si pz         
 
 Vector    4  Occ=1.000000D+00  E=-3.520533D+00
              MO Center= -1.9D-16, -5.0D-16, -4.3D-16, r^2= 1.0D-01
   Bfn.  Coefficient  Atom+Function         Bfn.  Coefficient  Atom+Function  
  ----- ------------  ---------------      ----- ------------  ---------------
    11      0.555240  1 Si py                12      0.390221  1 Si pz         
     8      0.326013  1 Si py                 9      0.229121  1 Si pz         
    10     -0.115468  1 Si px                 7     -0.067797  1 Si px         
    14      0.042677  1 Si py                15      0.029993  1 Si pz         
 
 Vector    5  Occ=1.000000D+00  E=-3.520533D+00
              MO Center= -3.1D-16,  8.8D-17,  1.4D-17, r^2= 1.0D-01
   Bfn.  Coefficient  Atom+Function         Bfn.  Coefficient  Atom+Function  
  ----- ------------  ---------------      ----- ------------  ---------------
    12      0.564687  1 Si pz                11     -0.393376  1 Si py         
     9      0.331560  1 Si pz                 8     -0.230973  1 Si py         
    15      0.043403  1 Si pz                14     -0.030236  1 Si py         
 
 Vector    6  Occ=1.000000D+00  E=-4.219811D-01
              MO Center= -4.2D-14, -1.5D-16,  2.7D-15, r^2= 1.5D+00
   Bfn.  Coefficient  Atom+Function         Bfn.  Coefficient  Atom+Function  
  ----- ------------  ---------------      ----- ------------  ---------------
     6      0.677683  1 Si s                  5      0.559841  1 Si s          
     4     -0.313258  1 Si s                  3     -0.216041  1 Si s          
     2      0.088637  1 Si s                 38     -0.066579  1 Si dxx        
    41     -0.047370  1 Si dyy               43     -0.047024  1 Si dzz        
     1      0.032080  1 Si s                 22      0.029247  1 Si s          
 
 Vector    7  Occ=1.000000D+00  E=-1.738465D-01
              MO Center= -2.2D-14, -8.8D-15, -9.2D-16, r^2= 2.5D+00
   Bfn.  Coefficient  Atom+Function         Bfn.  Coefficient  Atom+Function  
  ----- ------------  ---------------      ----- ------------  ---------------
    17      0.623394  1 Si py                20      0.301606  1 Si py         
    14      0.186600  1 Si py                11     -0.163772  1 Si py         
    18      0.136184  1 Si pz                16     -0.106291  1 Si px         
     8     -0.094370  1 Si py                21      0.065888  1 Si pz         
    19     -0.051425  1 Si px                24      0.041075  1 Si py         
 
 Vector    8  Occ=1.000000D+00  E=-1.738465D-01
              MO Center= -2.1D-14,  7.1D-16, -2.7D-15, r^2= 2.5D+00
   Bfn.  Coefficient  Atom+Function         Bfn.  Coefficient  Atom+Function  
  ----- ------------  ---------------      ----- ------------  ---------------
    18      0.630466  1 Si pz                21      0.305027  1 Si pz         
    15      0.188716  1 Si pz                12     -0.165630  1 Si pz         
    17     -0.142315  1 Si py                 9     -0.095441  1 Si pz         
    20     -0.068854  1 Si py                14     -0.042599  1 Si py         
    25      0.041541  1 Si pz                11      0.037388  1 Si py         
 
 Vector    9  Occ=0.000000D+00  E=-1.549726D-01
              MO Center=  8.2D-15,  4.0D-15,  5.4D-15, r^2= 2.6D+00
   Bfn.  Coefficient  Atom+Function         Bfn.  Coefficient  Atom+Function  
  ----- ------------  ---------------      ----- ------------  ---------------
    16      0.549451  1 Si px                19      0.337574  1 Si px         
    13      0.207103  1 Si px                10     -0.164275  1 Si px         
     7     -0.095342  1 Si px                17      0.084401  1 Si py         
    23      0.053237  1 Si px                20      0.051855  1 Si py         
    18      0.042491  1 Si pz                14      0.031813  1 Si py         
 
 Vector   10  Occ=0.000000D+00  E= 2.132300D-03
              MO Center= -2.4D-13,  7.6D-14,  2.2D-14, r^2= 1.1D+01
   Bfn.  Coefficient  Atom+Function         Bfn.  Coefficient  Atom+Function  
  ----- ------------  ---------------      ----- ------------  ---------------
    22      1.950255  1 Si s                  5     -0.513981  1 Si s          
    41     -0.365093  1 Si dyy               43     -0.365166  1 Si dzz        
    38     -0.361029  1 Si dxx                6     -0.220475  1 Si s          
     4      0.102345  1 Si s                 35     -0.072884  1 Si dyy        
    37     -0.072933  1 Si dzz               32     -0.070145  1 Si dxx        
 
 Vector   11  Occ=0.000000D+00  E= 3.447063D-02
              MO Center=  1.8D-14, -1.0D-13, -6.9D-15, r^2= 1.6D+01
   Bfn.  Coefficient  Atom+Function         Bfn.  Coefficient  Atom+Function  
  ----- ------------  ---------------      ----- ------------  ---------------
    24      1.840670  1 Si py                20     -1.352207  1 Si py         
    17      0.962936  1 Si py                45     -0.441397  1 Si fxxy       
    50     -0.442231  1 Si fyyy              52     -0.442246  1 Si fyzz       
    14     -0.409887  1 Si py                23     -0.292298  1 Si px         
    19      0.214730  1 Si px                16     -0.152914  1 Si px         
 
 Vector   12  Occ=0.000000D+00  E= 3.447064D-02
              MO Center=  1.9D-15,  1.6D-15, -3.0D-14, r^2= 1.6D+01
   Bfn.  Coefficient  Atom+Function         Bfn.  Coefficient  Atom+Function  
  ----- ------------  ---------------      ----- ------------  ---------------
    25      1.858290  1 Si pz                21     -1.365151  1 Si pz         
    18      0.972154  1 Si pz                46     -0.445587  1 Si fxxz       
    51     -0.446466  1 Si fyyz              53     -0.446480  1 Si fzzz       
    15     -0.413811  1 Si pz                24     -0.144180  1 Si py         
    23     -0.121558  1 Si px                20      0.105919  1 Si py         
 
 Vector   13  Occ=0.000000D+00  E= 3.759575D-02
              MO Center=  2.3D-13,  3.4D-14,  1.7D-14, r^2= 1.6D+01
   Bfn.  Coefficient  Atom+Function         Bfn.  Coefficient  Atom+Function  
  ----- ------------  ---------------      ----- ------------  ---------------
    23      1.832325  1 Si px                19     -1.343375  1 Si px         
    16      0.914831  1 Si px                47     -0.432066  1 Si fxyy       
    49     -0.432350  1 Si fxzz              44     -0.427073  1 Si fxxx       
    13     -0.404044  1 Si px                24      0.281451  1 Si py         
    20     -0.206347  1 Si py                25      0.141697  1 Si pz         
 
 Vector   14  Occ=0.000000D+00  E= 1.163109D-01
              MO Center= -4.0D-15, -1.5D-15, -2.5D-15, r^2= 3.8D+00
   Bfn.  Coefficient  Atom+Function         Bfn.  Coefficient  Atom+Function  
  ----- ------------  ---------------      ----- ------------  ---------------
    42      1.528906  1 Si dyz               36      0.306007  1 Si dyz        
    40     -0.241299  1 Si dxz               39     -0.100206  1 Si dxy        
    30      0.073360  1 Si dyz               41     -0.058688  1 Si dyy        
    34     -0.048295  1 Si dxz               43      0.041662  1 Si dzz        
 
 Vector   15  Occ=0.000000D+00  E= 1.163109D-01
              MO Center= -3.8D-15, -3.1D-15, -1.1D-15, r^2= 3.8D+00
   Bfn.  Coefficient  Atom+Function         Bfn.  Coefficient  Atom+Function  
  ----- ------------  ---------------      ----- ------------  ---------------
    43     -0.771658  1 Si dzz               41      0.757211  1 Si dyy        
    39     -0.240403  1 Si dxy               37     -0.154446  1 Si dzz        
    35      0.151554  1 Si dyy               40      0.103912  1 Si dxz        
    42      0.100509  1 Si dyz               33     -0.048116  1 Si dxy        
    31     -0.037026  1 Si dzz               29      0.036333  1 Si dyy        
 
 Vector   16  Occ=0.000000D+00  E= 1.202622D-01
              MO Center=  1.1D-14, -2.2D-16,  1.0D-15, r^2= 3.8D+00
   Bfn.  Coefficient  Atom+Function         Bfn.  Coefficient  Atom+Function  
  ----- ------------  ---------------      ----- ------------  ---------------
    39      1.446558  1 Si dxy               40      0.289770  1 Si dxz        
    33      0.279385  1 Si dxy               38     -0.252069  1 Si dxx        
    41      0.228153  1 Si dyy               42      0.162368  1 Si dyz        
    27      0.069727  1 Si dxy               34      0.055966  1 Si dxz        
    32     -0.048684  1 Si dxx               35      0.044065  1 Si dyy        
 
 Vector   17  Occ=0.000000D+00  E= 1.202623D-01
              MO Center=  1.1D-14,  3.4D-15, -3.0D-15, r^2= 3.8D+00
   Bfn.  Coefficient  Atom+Function         Bfn.  Coefficient  Atom+Function  
  ----- ------------  ---------------      ----- ------------  ---------------
    40      1.496815  1 Si dxz               39     -0.334198  1 Si dxy        
    34      0.289091  1 Si dxz               42      0.205658  1 Si dyz        
    43      0.116152  1 Si dzz               28      0.072149  1 Si dxz        
    38     -0.066383  1 Si dxx               33     -0.064546  1 Si dxy        
    41     -0.049769  1 Si dyy               36      0.039720  1 Si dyz        
 
 Vector   18  Occ=0.000000D+00  E= 1.282437D-01
              MO Center=  2.0D-14,  4.4D-15,  1.9D-15, r^2= 3.8D+00
   Bfn.  Coefficient  Atom+Function         Bfn.  Coefficient  Atom+Function  
  ----- ------------  ---------------      ----- ------------  ---------------
    38      0.853033  1 Si dxx               43     -0.453709  1 Si dzz        
    41     -0.430553  1 Si dyy               39      0.403870  1 Si dxy        
    40      0.203329  1 Si dxz               32      0.176449  1 Si dxx        
    33      0.076621  1 Si dxy               37     -0.071461  1 Si dzz        
    35     -0.067067  1 Si dyy               26      0.048078  1 Si dxx        
 
 Vector   19  Occ=0.000000D+00  E= 2.380141D-01
              MO Center= -4.0D-13,  2.6D-12, -1.6D-13, r^2= 1.1D+01
   Bfn.  Coefficient  Atom+Function         Bfn.  Coefficient  Atom+Function  
  ----- ------------  ---------------      ----- ------------  ---------------
    17      5.466987  1 Si py                20     -3.932483  1 Si py         
    24      2.052453  1 Si py                45     -1.746325  1 Si fxxy       
    50     -1.745130  1 Si fyyy              52     -1.745105  1 Si fyzz       
    14     -1.064977  1 Si py                16     -0.814207  1 Si px         
    19      0.585671  1 Si px                18     -0.330168  1 Si pz         
 
 Vector   20  Occ=0.000000D+00  E= 2.380141D-01
              MO Center= -3.4D-13,  1.9D-13,  3.9D-12, r^2= 1.1D+01
   Bfn.  Coefficient  Atom+Function         Bfn.  Coefficient  Atom+Function  
  ----- ------------  ---------------      ----- ------------  ---------------
    18      5.511153  1 Si pz                21     -3.964252  1 Si pz         
    25      2.069035  1 Si pz                46     -1.760475  1 Si fxxz       
    51     -1.759230  1 Si fyyz              53     -1.759205  1 Si fzzz       
    15     -1.073581  1 Si pz                16     -0.466615  1 Si px         
    19      0.335643  1 Si px                17      0.263342  1 Si py         
 
 Vector   21  Occ=0.000000D+00  E= 2.393174D-01
              MO Center= -2.0D-10, -3.1D-11, -1.6D-11, r^2= 1.1D+01
   Bfn.  Coefficient  Atom+Function         Bfn.  Coefficient  Atom+Function  
  ----- ------------  ---------------      ----- ------------  ---------------
    16      5.552805  1 Si px                19     -3.947201  1 Si px         
    23      2.062149  1 Si px                44     -1.780645  1 Si fxxx       
    47     -1.776946  1 Si fxyy              49     -1.776736  1 Si fxzz       
    13     -1.088817  1 Si px                17      0.852922  1 Si py         
    20     -0.606298  1 Si py                18      0.429388  1 Si pz         
 
 Vector   22  Occ=0.000000D+00  E= 2.393579D-01
              MO Center=  2.0D-10,  2.8D-11,  1.2D-11, r^2= 9.1D+00
   Bfn.  Coefficient  Atom+Function         Bfn.  Coefficient  Atom+Function  
  ----- ------------  ---------------      ----- ------------  ---------------
     6      2.968743  1 Si s                 22      2.244561  1 Si s          
    38     -2.002898  1 Si dxx               41     -1.989116  1 Si dyy        
    43     -1.988867  1 Si dzz                5     -0.619832  1 Si s          
    32     -0.316039  1 Si dxx               35     -0.310053  1 Si dyy        
    37     -0.309945  1 Si dzz                4     -0.300616  1 Si s          
 
 Vector   23  Occ=0.000000D+00  E= 7.173513D-01
              MO Center= -1.9D-13,  1.1D-14, -6.1D-15, r^2= 2.0D+00
   Bfn.  Coefficient  Atom+Function         Bfn.  Coefficient  Atom+Function  
  ----- ------------  ---------------      ----- ------------  ---------------
    33      1.665444  1 Si dxy               39     -1.063515  1 Si dxy        
    34      0.323450  1 Si dxz               32     -0.289401  1 Si dxx        
    35      0.262656  1 Si dyy               40     -0.206548  1 Si dxz        
    27      0.192836  1 Si dxy               36      0.185357  1 Si dyz        
    38      0.184805  1 Si dxx               41     -0.167726  1 Si dyy        
 
 Vector   24  Occ=0.000000D+00  E= 7.173513D-01
              MO Center= -2.1D-14, -3.3D-15, -1.2D-15, r^2= 2.0D+00
   Bfn.  Coefficient  Atom+Function         Bfn.  Coefficient  Atom+Function  
  ----- ------------  ---------------      ----- ------------  ---------------
    34      1.722941  1 Si dxz               40     -1.100231  1 Si dxz        
    33     -0.374860  1 Si dxy               39      0.239377  1 Si dxy        
    36      0.237522  1 Si dyz               28      0.199493  1 Si dxz        
    42     -0.151676  1 Si dyz               37      0.133709  1 Si dzz        
    43     -0.085383  1 Si dzz               32     -0.077967  1 Si dxx        
 
 Vector   25  Occ=0.000000D+00  E= 7.179825D-01
              MO Center=  5.5D-15, -7.3D-14,  3.0D-14, r^2= 2.0D+00
   Bfn.  Coefficient  Atom+Function         Bfn.  Coefficient  Atom+Function  
  ----- ------------  ---------------      ----- ------------  ---------------
    36      1.766483  1 Si dyz               42     -1.135867  1 Si dyz        
    34     -0.276676  1 Si dxz               30      0.201516  1 Si dyz        
    40      0.177905  1 Si dxz               33     -0.119910  1 Si dxy        
    39      0.077104  1 Si dxy               35     -0.054359  1 Si dyy        
    41      0.034953  1 Si dyy               37      0.034450  1 Si dzz        
 
 Vector   26  Occ=0.000000D+00  E= 7.179825D-01
              MO Center= -3.1D-15,  2.8D-14, -4.8D-14, r^2= 2.0D+00
   Bfn.  Coefficient  Atom+Function         Bfn.  Coefficient  Atom+Function  
  ----- ------------  ---------------      ----- ------------  ---------------
    37     -0.891406  1 Si dzz               35      0.875032  1 Si dyy        
    43      0.573183  1 Si dzz               41     -0.562655  1 Si dyy        
    33     -0.275708  1 Si dxy               39      0.177283  1 Si dxy        
    34      0.124202  1 Si dxz               31     -0.101690  1 Si dzz        
    29      0.099822  1 Si dyy               36      0.088991  1 Si dyz        
 
 Vector   27  Occ=0.000000D+00  E= 7.207121D-01
              MO Center= -2.4D-13, -9.1D-14, -6.7D-14, r^2= 2.0D+00
   Bfn.  Coefficient  Atom+Function         Bfn.  Coefficient  Atom+Function  
  ----- ------------  ---------------      ----- ------------  ---------------
    32      1.012558  1 Si dxx               38     -0.590650  1 Si dxx        
    37     -0.487312  1 Si dzz               33      0.463560  1 Si dxy        
    35     -0.460734  1 Si dyy               43      0.364381  1 Si dzz        
    41      0.347457  1 Si dyy               39     -0.295168  1 Si dxy        
    34      0.233379  1 Si dxz               40     -0.148602  1 Si dxz        
 
 Vector   28  Occ=0.000000D+00  E= 7.279590D-01
              MO Center=  1.6D-13,  2.6D-13, -4.6D-15, r^2= 6.2D+00
   Bfn.  Coefficient  Atom+Function         Bfn.  Coefficient  Atom+Function  
  ----- ------------  ---------------      ----- ------------  ---------------
    17     13.798843  1 Si py                45     -5.619917  1 Si fxxy       
    50     -5.623581  1 Si fyyy              52     -5.623647  1 Si fyzz       
    14     -4.473852  1 Si py                20     -3.691650  1 Si py         
    16     -2.156309  1 Si px                24      1.353585  1 Si py         
    44      0.878180  1 Si fxxx              47      0.879995  1 Si fxyy       
 
 Vector   29  Occ=0.000000D+00  E= 7.279590D-01
              MO Center= -1.2D-14,  6.5D-14,  2.4D-13, r^2= 6.2D+00
   Bfn.  Coefficient  Atom+Function         Bfn.  Coefficient  Atom+Function  
  ----- ------------  ---------------      ----- ------------  ---------------
    18     13.925639  1 Si pz                46     -5.671410  1 Si fxxz       
    51     -5.675259  1 Si fyyz              53     -5.675325  1 Si fzzz       
    15     -4.514962  1 Si pz                21     -3.725572  1 Si pz         
    25      1.366023  1 Si pz                16     -0.979772  1 Si px         
    17     -0.632399  1 Si py                44      0.399023  1 Si fxxx       
 
 Vector   30  Occ=0.000000D+00  E= 7.305296D-01
              MO Center=  3.4D-13,  1.2D-14,  1.8D-14, r^2= 6.2D+00
   Bfn.  Coefficient  Atom+Function         Bfn.  Coefficient  Atom+Function  
  ----- ------------  ---------------      ----- ------------  ---------------
    16     13.698640  1 Si px                44     -5.596692  1 Si fxxx       
    47     -5.555755  1 Si fxyy              49     -5.553427  1 Si fxzz       
    13     -4.450924  1 Si px                19     -3.655462  1 Si px         
    17      2.104189  1 Si py                23      1.339836  1 Si px         
    18      1.059358  1 Si pz                45     -0.873218  1 Si fxxy       
 
 Vector   31  Occ=0.000000D+00  E= 8.679624D-01
              MO Center= -5.1D-14, -2.3D-13, -1.8D-13, r^2= 4.9D+00
   Bfn.  Coefficient  Atom+Function         Bfn.  Coefficient  Atom+Function  
  ----- ------------  ---------------      ----- ------------  ---------------
     6     12.550131  1 Si s                  5     -5.664053  1 Si s          
    38     -3.746662  1 Si dxx               41     -3.739940  1 Si dyy        
    43     -3.739819  1 Si dzz               22      1.429392  1 Si s          
    35     -0.970867  1 Si dyy               37     -0.971223  1 Si dzz        
    32     -0.951149  1 Si dxx                4      0.202021  1 Si s          
 
 Vector   32  Occ=0.000000D+00  E= 9.160612D-01
              MO Center=  7.7D-15,  1.2D-15, -7.8D-17, r^2= 2.0D+00
   Bfn.  Coefficient  Atom+Function         Bfn.  Coefficient  Atom+Function  
  ----- ------------  ---------------      ----- ------------  ---------------
    48      3.638738  1 Si fxyz              46     -0.593923  1 Si fxxz       
    51      0.562006  1 Si fyyz              52      0.311027  1 Si fyzz       
    45     -0.228673  1 Si fxxy              47     -0.214802  1 Si fxyy       
    49      0.091391  1 Si fxzz              44      0.041137  1 Si fxxx       
    50     -0.027451  1 Si fyyy       
 
 Vector   33  Occ=0.000000D+00  E= 9.160612D-01
              MO Center=  6.4D-15, -2.8D-16, -7.0D-16, r^2= 2.0D+00
   Bfn.  Coefficient  Atom+Function         Bfn.  Coefficient  Atom+Function  
  ----- ------------  ---------------      ----- ------------  ---------------
    49     -1.873523  1 Si fxzz              47      1.764794  1 Si fxyy       
    45     -0.589168  1 Si fxxy              48      0.308159  1 Si fxyz       
    50      0.285123  1 Si fyyy              52     -0.266201  1 Si fyzz       
    46      0.246853  1 Si fxxz              51      0.192186  1 Si fyyz       
    53     -0.146346  1 Si fzzz              44      0.036243  1 Si fxxx       
 
 Vector   34  Occ=0.000000D+00  E= 9.176077D-01
              MO Center=  1.3D-14, -1.6D-15, -1.6D-16, r^2= 2.0D+00
   Bfn.  Coefficient  Atom+Function         Bfn.  Coefficient  Atom+Function  
  ----- ------------  ---------------      ----- ------------  ---------------
    45      2.187478  1 Si fxxy              47      0.955931  1 Si fxyy       
    48      0.632209  1 Si fxyz              52     -0.488038  1 Si fyzz       
    46      0.461172  1 Si fxxz              50     -0.453278  1 Si fyyy       
    44     -0.400659  1 Si fxxx              49      0.187849  1 Si fxzz       
    17     -0.132770  1 Si py                53     -0.115665  1 Si fzzz       
 
 Vector   35  Occ=0.000000D+00  E= 9.176077D-01
              MO Center=  1.4D-14,  3.2D-15, -1.8D-15, r^2= 2.0D+00
   Bfn.  Coefficient  Atom+Function         Bfn.  Coefficient  Atom+Function  
  ----- ------------  ---------------      ----- ------------  ---------------
    46      2.346485  1 Si fxxz              48      0.779667  1 Si fxyz       
    45     -0.596113  1 Si fxxy              53     -0.509415  1 Si fzzz       
    51     -0.474738  1 Si fyyz              49      0.468102  1 Si fxzz       
    47     -0.191463  1 Si fxyy              52      0.189268  1 Si fyzz       
    18     -0.134293  1 Si pz                50      0.108514  1 Si fyyy       
 
 Vector   36  Occ=0.000000D+00  E= 9.227302D-01
              MO Center=  1.6D-14,  1.0D-15,  7.2D-16, r^2= 2.0D+00
   Bfn.  Coefficient  Atom+Function         Bfn.  Coefficient  Atom+Function  
  ----- ------------  ---------------      ----- ------------  ---------------
    49      1.497885  1 Si fxzz              47      1.371457  1 Si fxyy       
    45     -0.865835  1 Si fxxy              44     -0.851664  1 Si fxxx       
    46     -0.435905  1 Si fxxz              52      0.230089  1 Si fyzz       
    50      0.228011  1 Si fyyy              16     -0.183988  1 Si px         
    48     -0.170523  1 Si fxyz              53      0.118051  1 Si fzzz       
 
 Vector   37  Occ=0.000000D+00  E= 9.235581D-01
              MO Center=  8.9D-17, -4.5D-16, -2.6D-16, r^2= 2.0D+00
   Bfn.  Coefficient  Atom+Function         Bfn.  Coefficient  Atom+Function  
  ----- ------------  ---------------      ----- ------------  ---------------
    51      2.242696  1 Si fyyz              48     -0.771658  1 Si fxyz       
    53     -0.764863  1 Si fzzz              52      0.534426  1 Si fyzz       
    50     -0.192428  1 Si fyyy              49      0.095357  1 Si fxzz       
    47     -0.084760  1 Si fxyy              46      0.051893  1 Si fxxz       
    45      0.042857  1 Si fxxy       
 
 Vector   38  Occ=0.000000D+00  E= 9.235581D-01
              MO Center=  2.4D-16, -3.7D-16, -2.3D-15, r^2= 2.0D+00
   Bfn.  Coefficient  Atom+Function         Bfn.  Coefficient  Atom+Function  
  ----- ------------  ---------------      ----- ------------  ---------------
    52      2.268658  1 Si fyzz              50     -0.738903  1 Si fyyy       
    51     -0.556100  1 Si fyyz              49     -0.388103  1 Si fxzz       
    47      0.383513  1 Si fxyy              48     -0.180043  1 Si fxyz       
    53      0.170753  1 Si fzzz              45     -0.051950  1 Si fxxy       
    46      0.043842  1 Si fxxz       
 
 Vector   39  Occ=0.000000D+00  E= 1.819779D+00
              MO Center= -5.8D-15, -1.0D-15, -3.4D-16, r^2= 2.9D+00
   Bfn.  Coefficient  Atom+Function         Bfn.  Coefficient  Atom+Function  
  ----- ------------  ---------------      ----- ------------  ---------------
    16     13.121495  1 Si px                44     -6.776395  1 Si fxxx       
    47     -6.789916  1 Si fxyy              49     -6.790685  1 Si fxzz       
    13     -2.340482  1 Si px                19     -2.210702  1 Si px         
    17      2.015592  1 Si py                50     -1.043104  1 Si fyyy       
    52     -1.043117  1 Si fyzz              45     -1.036451  1 Si fxxy       
 
 Vector   40  Occ=0.000000D+00  E= 1.843769D+00
              MO Center= -2.8D-15,  1.3D-14,  4.7D-16, r^2= 2.9D+00
   Bfn.  Coefficient  Atom+Function         Bfn.  Coefficient  Atom+Function  
  ----- ------------  ---------------      ----- ------------  ---------------
    17     13.094547  1 Si py                45     -6.752455  1 Si fxxy       
    50     -6.777450  1 Si fyyy              52     -6.777896  1 Si fyzz       
    14     -2.329655  1 Si py                20     -2.203622  1 Si py         
    16     -2.056005  1 Si px                47      1.072416  1 Si fxyy       
    44      1.060015  1 Si fxxx              49      1.064401  1 Si fxzz       
 
 Vector   41  Occ=0.000000D+00  E= 1.843769D+00
              MO Center= -1.4D-15, -8.5D-17, -6.0D-15, r^2= 2.9D+00
   Bfn.  Coefficient  Atom+Function         Bfn.  Coefficient  Atom+Function  
  ----- ------------  ---------------      ----- ------------  ---------------
    18     13.216347  1 Si pz                46     -6.814242  1 Si fxxz       
    51     -6.840526  1 Si fyyz              53     -6.840970  1 Si fzzz       
    15     -2.351325  1 Si pz                21     -2.224119  1 Si pz         
    16     -0.910786  1 Si px                25      0.732723  1 Si pz         
    17     -0.724467  1 Si py                49      0.475640  1 Si fxzz       
 
 Vector   42  Occ=0.000000D+00  E= 2.730006D+00
              MO Center=  9.5D-15, -2.2D-15,  2.0D-14, r^2= 1.8D+00
   Bfn.  Coefficient  Atom+Function         Bfn.  Coefficient  Atom+Function  
  ----- ------------  ---------------      ----- ------------  ---------------
     5     11.226914  1 Si s                 32     -4.934722  1 Si dxx        
    35     -4.918292  1 Si dyy               37     -4.917995  1 Si dzz        
     6      3.500000  1 Si s                  4     -2.460794  1 Si s          
    38     -1.289408  1 Si dxx               41     -1.295275  1 Si dyy        
    43     -1.295381  1 Si dzz                3     -1.022954  1 Si s          
 
 Vector   43  Occ=0.000000D+00  E= 3.413094D+00
              MO Center= -1.0D-15,  1.1D-15,  2.4D-15, r^2= 5.9D-01
   Bfn.  Coefficient  Atom+Function         Bfn.  Coefficient  Atom+Function  
  ----- ------------  ---------------      ----- ------------  ---------------
    26      1.095027  1 Si dxx               32     -0.629635  1 Si dxx        
    31     -0.548826  1 Si dzz               29     -0.519695  1 Si dyy        
    27      0.508062  1 Si dxy               37      0.435376  1 Si dzz        
    35      0.416502  1 Si dyy               33     -0.329161  1 Si dxy        
    28      0.255780  1 Si dxz               38      0.244685  1 Si dxx        
 
 Vector   44  Occ=0.000000D+00  E= 3.416225D+00
              MO Center=  7.2D-16, -3.5D-16, -4.9D-17, r^2= 5.9D-01
   Bfn.  Coefficient  Atom+Function         Bfn.  Coefficient  Atom+Function  
  ----- ------------  ---------------      ----- ------------  ---------------
    27      1.806358  1 Si dxy               33     -1.168893  1 Si dxy        
    28      0.433552  1 Si dxz               39      0.376299  1 Si dxy        
    26     -0.320481  1 Si dxx               29      0.285036  1 Si dyy        
    34     -0.280551  1 Si dxz               30      0.213905  1 Si dyz        
    32      0.207383  1 Si dxx               35     -0.184447  1 Si dyy        
 
 Vector   45  Occ=0.000000D+00  E= 3.416225D+00
              MO Center=  1.5D-15,  4.3D-16, -8.2D-16, r^2= 5.9D-01
   Bfn.  Coefficient  Atom+Function         Bfn.  Coefficient  Atom+Function  
  ----- ------------  ---------------      ----- ------------  ---------------
    28      1.871687  1 Si dxz               34     -1.211167  1 Si dxz        
    27     -0.487196  1 Si dxy               40      0.389908  1 Si dxz        
    33      0.315264  1 Si dxy               30      0.251544  1 Si dyz        
    36     -0.162774  1 Si dyz               31      0.145175  1 Si dzz        
    39     -0.101492  1 Si dxy               37     -0.093943  1 Si dzz        
 
 Vector   46  Occ=0.000000D+00  E= 3.428522D+00
              MO Center=  5.8D-17,  6.4D-17,  6.4D-16, r^2= 5.9D-01
   Bfn.  Coefficient  Atom+Function         Bfn.  Coefficient  Atom+Function  
  ----- ------------  ---------------      ----- ------------  ---------------
    30      1.354813  1 Si dyz               36     -0.874690  1 Si dyz        
    29     -0.695057  1 Si dyy               31      0.691229  1 Si dzz        
    35      0.448741  1 Si dyy               37     -0.446269  1 Si dzz        
    28     -0.315023  1 Si dxz               42      0.281994  1 Si dyz        
    34      0.203384  1 Si dxz               41     -0.144671  1 Si dyy        
 
 Vector   47  Occ=0.000000D+00  E= 3.428522D+00
              MO Center=  1.2D-16, -2.8D-16, -5.3D-16, r^2= 5.9D-01
   Bfn.  Coefficient  Atom+Function         Bfn.  Coefficient  Atom+Function  
  ----- ------------  ---------------      ----- ------------  ---------------
    30      1.386467  1 Si dyz               36     -0.895126  1 Si dyz        
    31     -0.691451  1 Si dzz               29      0.663461  1 Si dyy        
    37      0.446412  1 Si dzz               35     -0.428342  1 Si dyy        
    27     -0.311049  1 Si dxy               42      0.288583  1 Si dyz        
    33      0.200818  1 Si dxy               43     -0.143920  1 Si dzz        
 
 Vector   48  Occ=0.000000D+00  E= 7.340226D+00
              MO Center= -8.4D-16,  1.9D-15,  3.1D-15, r^2= 7.8D-01
   Bfn.  Coefficient  Atom+Function         Bfn.  Coefficient  Atom+Function  
  ----- ------------  ---------------      ----- ------------  ---------------
     5     26.482297  1 Si s                 32     -7.316682  1 Si dxx        
    35     -7.319164  1 Si dyy               37     -7.319209  1 Si dzz        
     6     -6.321246  1 Si s                 26     -3.355675  1 Si dxx        
    29     -3.355894  1 Si dyy               31     -3.355898  1 Si dzz        
     3     -1.712898  1 Si s                  4     -1.540163  1 Si s          
 
 Vector   49  Occ=0.000000D+00  E= 1.154467D+01
              MO Center=  2.2D-15,  4.8D-16,  3.4D-16, r^2= 2.8D-01
   Bfn.  Coefficient  Atom+Function         Bfn.  Coefficient  Atom+Function  
  ----- ------------  ---------------      ----- ------------  ---------------
    16      3.164431  1 Si px                44     -1.813346  1 Si fxxx       
    47     -1.814090  1 Si fxyy              49     -1.814132  1 Si fxzz       
    10     -1.412935  1 Si px                 7      1.178524  1 Si px         
    17      0.486087  1 Si py                19     -0.448450  1 Si px         
    45     -0.278302  1 Si fxxy              50     -0.278668  1 Si fyyy       
 
 Vector   50  Occ=0.000000D+00  E= 1.155220D+01
              MO Center=  1.1D-16,  9.6D-16,  1.4D-15, r^2= 2.8D-01
   Bfn.  Coefficient  Atom+Function         Bfn.  Coefficient  Atom+Function  
  ----- ------------  ---------------      ----- ------------  ---------------
    18      2.560536  1 Si pz                17      1.890683  1 Si py         
    46     -1.466582  1 Si fxxz              51     -1.467471  1 Si fyyz       
    53     -1.467504  1 Si fzzz              12     -1.140422  1 Si pz         
    45     -1.082950  1 Si fxxy              50     -1.083584  1 Si fyyy       
    52     -1.083573  1 Si fyzz               9      0.950617  1 Si pz         
 
 Vector   51  Occ=0.000000D+00  E= 1.155220D+01
              MO Center=  2.5D-16, -1.8D-15,  1.4D-15, r^2= 2.8D-01
   Bfn.  Coefficient  Atom+Function         Bfn.  Coefficient  Atom+Function  
  ----- ------------  ---------------      ----- ------------  ---------------
    17      2.560716  1 Si py                18     -1.937273  1 Si pz         
    45     -1.466685  1 Si fxxy              50     -1.467591  1 Si fyyy       
    52     -1.467625  1 Si fyzz              11     -1.140502  1 Si py         
    46      1.109564  1 Si fxxz              51      1.110308  1 Si fyyz       
    53      1.110298  1 Si fzzz               8      0.950684  1 Si py         
 
 Vector   52  Occ=0.000000D+00  E= 1.770559D+01
              MO Center= -6.3D-17,  2.3D-16, -3.0D-16, r^2= 3.5D-01
   Bfn.  Coefficient  Atom+Function         Bfn.  Coefficient  Atom+Function  
  ----- ------------  ---------------      ----- ------------  ---------------
     5     23.090692  1 Si s                  4     14.764776  1 Si s          
     3    -11.543772  1 Si s                  6     -7.034758  1 Si s          
    26     -6.957915  1 Si dxx               29     -6.957497  1 Si dyy        
    31     -6.957490  1 Si dzz               32     -5.864894  1 Si dxx        
    35     -5.865356  1 Si dyy               37     -5.865364  1 Si dzz        
 
 Vector   53  Occ=0.000000D+00  E= 1.629727D+02
              MO Center= -5.9D-17, -6.9D-18,  7.2D-18, r^2= 4.1D-02
   Bfn.  Coefficient  Atom+Function         Bfn.  Coefficient  Atom+Function  
  ----- ------------  ---------------      ----- ------------  ---------------
     5      7.450055  1 Si s                  4      7.129262  1 Si s          
     3     -5.939786  1 Si s                 26     -2.756317  1 Si dxx        
    29     -2.756302  1 Si dyy               31     -2.756302  1 Si dzz        
     2      2.246223  1 Si s                  6     -2.228723  1 Si s          
    32     -1.901652  1 Si dxx               35     -1.901660  1 Si dyy        
 
 
                     DFT Final Beta Molecular Orbital Analysis
                     -----------------------------------------
 
 Vector    1  Occ=1.000000D+00  E=-6.570254D+01
              MO Center= -1.7D-17, -1.0D-17, -1.4D-17, r^2= 4.7D-03
   Bfn.  Coefficient  Atom+Function         Bfn.  Coefficient  Atom+Function  
  ----- ------------  ---------------      ----- ------------  ---------------
     2      0.645744  1 Si s                  1      0.418175  1 Si s          
     3      0.026579  1 Si s          
 
 Vector    2  Occ=1.000000D+00  E=-5.141153D+00
              MO Center= -9.7D-16,  3.0D-16,  2.3D-16, r^2= 1.1D-01
   Bfn.  Coefficient  Atom+Function         Bfn.  Coefficient  Atom+Function  
  ----- ------------  ---------------      ----- ------------  ---------------
     3      0.548621  1 Si s                  4      0.549908  1 Si s          
     2     -0.304921  1 Si s                  1     -0.116783  1 Si s          
     5      0.096499  1 Si s                  6     -0.079210  1 Si s          
 
 Vector    3  Occ=1.000000D+00  E=-3.523983D+00
              MO Center=  3.3D-16,  1.2D-16,  1.6D-16, r^2= 1.0D-01
   Bfn.  Coefficient  Atom+Function         Bfn.  Coefficient  Atom+Function  
  ----- ------------  ---------------      ----- ------------  ---------------
    10      0.679276  1 Si px                 7      0.397307  1 Si px         
    11      0.104343  1 Si py                 8      0.061030  1 Si py         
    12      0.052531  1 Si pz                13      0.051449  1 Si px         
     9      0.030725  1 Si pz         
 
 Vector    4  Occ=1.000000D+00  E=-3.509989D+00
              MO Center= -1.4D-16, -4.8D-16, -3.3D-16, r^2= 1.0D-01
   Bfn.  Coefficient  Atom+Function         Bfn.  Coefficient  Atom+Function  
  ----- ------------  ---------------      ----- ------------  ---------------
    11      0.591844  1 Si py                 8      0.346268  1 Si py         
    12      0.334623  1 Si pz                 9      0.195777  1 Si pz         
    10     -0.116791  1 Si px                 7     -0.068330  1 Si px         
    14      0.043204  1 Si py         
 
 Vector    5  Occ=1.000000D+00  E=-3.509989D+00
              MO Center= -3.2D-16,  5.5D-17, -1.2D-16, r^2= 1.0D-01
   Bfn.  Coefficient  Atom+Function         Bfn.  Coefficient  Atom+Function  
  ----- ------------  ---------------      ----- ------------  ---------------
    12      0.600962  1 Si pz                 9      0.351603  1 Si pz         
    11     -0.338683  1 Si py                 8     -0.198152  1 Si py         
    15      0.043870  1 Si pz         
 
 Vector    6  Occ=1.000000D+00  E=-3.533119D-01
              MO Center= -1.8D-14, -1.0D-14, -8.1D-15, r^2= 1.6D+00
   Bfn.  Coefficient  Atom+Function         Bfn.  Coefficient  Atom+Function  
  ----- ------------  ---------------      ----- ------------  ---------------
     6      0.602620  1 Si s                  5      0.550242  1 Si s          
     4     -0.332030  1 Si s                  3     -0.201757  1 Si s          
     2      0.088674  1 Si s                 32      0.040368  1 Si dxx        
    22      0.036806  1 Si s                 43     -0.036477  1 Si dzz        
    41     -0.035960  1 Si dyy                1      0.032255  1 Si s          
 
 Vector    7  Occ=0.000000D+00  E=-1.325987D-01
              MO Center=  1.4D-14, -4.1D-16,  5.0D-16, r^2= 2.6D+00
   Bfn.  Coefficient  Atom+Function         Bfn.  Coefficient  Atom+Function  
  ----- ------------  ---------------      ----- ------------  ---------------
    16      0.508537  1 Si px                19      0.357435  1 Si px         
    13      0.217576  1 Si px                10     -0.163588  1 Si px         
     7     -0.095243  1 Si px                17      0.078116  1 Si py         
    23      0.055236  1 Si px                20      0.054905  1 Si py         
    18      0.039327  1 Si pz                14      0.033422  1 Si py         
 
 Vector    8  Occ=0.000000D+00  E=-9.759438D-02
              MO Center= -1.5D-14, -2.7D-15,  7.4D-15, r^2= 3.1D+00
   Bfn.  Coefficient  Atom+Function         Bfn.  Coefficient  Atom+Function  
  ----- ------------  ---------------      ----- ------------  ---------------
    18      0.574927  1 Si pz                21      0.365801  1 Si pz         
    15      0.164207  1 Si pz                12     -0.149925  1 Si pz         
    17     -0.124064  1 Si py                25      0.112517  1 Si pz         
     9     -0.088074  1 Si pz                20     -0.078936  1 Si py         
    53     -0.057869  1 Si fzzz              51     -0.057225  1 Si fyyz       
 
 Vector    9  Occ=0.000000D+00  E=-9.759438D-02
              MO Center= -1.8D-14,  1.0D-14,  1.2D-15, r^2= 3.1D+00
   Bfn.  Coefficient  Atom+Function         Bfn.  Coefficient  Atom+Function  
  ----- ------------  ---------------      ----- ------------  ---------------
    17      0.568546  1 Si py                20      0.361741  1 Si py         
    14      0.162384  1 Si py                11     -0.148261  1 Si py         
    18      0.118423  1 Si pz                24      0.111268  1 Si py         
    16     -0.096492  1 Si px                 8     -0.087097  1 Si py         
    21      0.075347  1 Si pz                19     -0.061394  1 Si px         
 
 Vector   10  Occ=0.000000D+00  E= 2.383920D-02
              MO Center=  3.9D-13,  3.8D-13,  3.0D-13, r^2= 1.1D+01
   Bfn.  Coefficient  Atom+Function         Bfn.  Coefficient  Atom+Function  
  ----- ------------  ---------------      ----- ------------  ---------------
    22      1.927173  1 Si s                  5     -0.473639  1 Si s          
    38     -0.332060  1 Si dxx                6     -0.328594  1 Si s          
    41     -0.325983  1 Si dyy               43     -0.325873  1 Si dzz        
     4      0.113610  1 Si s                 32     -0.082334  1 Si dxx        
     3      0.064104  1 Si s                 35     -0.059710  1 Si dyy        
 
 Vector   11  Occ=0.000000D+00  E= 5.329870D-02
              MO Center= -4.1D-13, -6.1D-14, -2.9D-14, r^2= 1.6D+01
   Bfn.  Coefficient  Atom+Function         Bfn.  Coefficient  Atom+Function  
  ----- ------------  ---------------      ----- ------------  ---------------
    23      1.844471  1 Si px                19     -1.376248  1 Si px         
    16      0.992465  1 Si px                44     -0.471005  1 Si fxxx       
    47     -0.450885  1 Si fxyy              49     -0.449741  1 Si fxzz       
    13     -0.428880  1 Si px                24      0.283329  1 Si py         
    20     -0.211405  1 Si py                17      0.152452  1 Si py         
 
 Vector   12  Occ=0.000000D+00  E= 6.307790D-02
              MO Center=  3.9D-15,  3.5D-14, -5.5D-14, r^2= 1.6D+01
   Bfn.  Coefficient  Atom+Function         Bfn.  Coefficient  Atom+Function  
  ----- ------------  ---------------      ----- ------------  ---------------
    25      1.674575  1 Si pz                21     -1.340764  1 Si pz         
    24     -0.971591  1 Si py                18      0.956570  1 Si pz         
    20      0.777913  1 Si py                17     -0.555003  1 Si py         
    46     -0.452779  1 Si fxxz              51     -0.431193  1 Si fyyz       
    53     -0.431109  1 Si fzzz              15     -0.402621  1 Si pz         
 
 Vector   13  Occ=0.000000D+00  E= 6.307790D-02
              MO Center=  6.4D-14, -3.2D-13, -1.8D-13, r^2= 1.6D+01
   Bfn.  Coefficient  Atom+Function         Bfn.  Coefficient  Atom+Function  
  ----- ------------  ---------------      ----- ------------  ---------------
    24      1.648843  1 Si py                20     -1.320161  1 Si py         
    25      0.960523  1 Si pz                17      0.941871  1 Si py         
    21     -0.769052  1 Si pz                18      0.548681  1 Si pz         
    45     -0.444474  1 Si fxxy              50     -0.424862  1 Si fyyy       
    52     -0.424781  1 Si fyzz              14     -0.396434  1 Si py         
 
 Vector   14  Occ=0.000000D+00  E= 1.477587D-01
              MO Center= -9.9D-15, -6.7D-15, -7.4D-15, r^2= 3.9D+00
   Bfn.  Coefficient  Atom+Function         Bfn.  Coefficient  Atom+Function  
  ----- ------------  ---------------      ----- ------------  ---------------
    38      0.812362  1 Si dxx               43     -0.511611  1 Si dzz        
    41     -0.488148  1 Si dyy               39      0.409197  1 Si dxy        
    40      0.206009  1 Si dxz               32      0.145074  1 Si dxx        
     5     -0.102284  1 Si s                  6      0.085036  1 Si s          
    22      0.081969  1 Si s                 37     -0.071726  1 Si dzz        
 
 Vector   15  Occ=0.000000D+00  E= 1.548949D-01
              MO Center=  6.6D-15,  9.7D-16,  4.5D-16, r^2= 3.9D+00
   Bfn.  Coefficient  Atom+Function         Bfn.  Coefficient  Atom+Function  
  ----- ------------  ---------------      ----- ------------  ---------------
    40      1.523805  1 Si dxz               39     -0.342294  1 Si dxy        
    34      0.243067  1 Si dxz               42      0.209198  1 Si dyz        
    43      0.118244  1 Si dzz               28      0.074489  1 Si dxz        
    38     -0.067252  1 Si dxx               33     -0.054601  1 Si dxy        
    41     -0.050992  1 Si dyy               36      0.033370  1 Si dyz        
 
 Vector   16  Occ=0.000000D+00  E= 1.548949D-01
              MO Center=  8.4D-15,  6.7D-15,  1.7D-15, r^2= 3.9D+00
   Bfn.  Coefficient  Atom+Function         Bfn.  Coefficient  Atom+Function  
  ----- ------------  ---------------      ----- ------------  ---------------
    39      1.472567  1 Si dxy               40      0.297123  1 Si dxz        
    38     -0.256772  1 Si dxx               33      0.234894  1 Si dxy        
    41      0.232259  1 Si dyy               42      0.165621  1 Si dyz        
    27      0.071984  1 Si dxy               34      0.047395  1 Si dxz        
    32     -0.040959  1 Si dxx               35      0.037048  1 Si dyy        
 
 Vector   17  Occ=0.000000D+00  E= 1.672907D-01
              MO Center= -1.8D-15, -4.4D-15, -6.7D-15, r^2= 4.0D+00
   Bfn.  Coefficient  Atom+Function         Bfn.  Coefficient  Atom+Function  
  ----- ------------  ---------------      ----- ------------  ---------------
    43     -0.801113  1 Si dzz               41      0.785874  1 Si dyy        
    39     -0.251112  1 Si dxy               42      0.125117  1 Si dyz        
    40      0.104687  1 Si dxz               37     -0.103672  1 Si dzz        
    35      0.101700  1 Si dyy               31     -0.037966  1 Si dzz        
    29      0.037244  1 Si dyy               33     -0.032496  1 Si dxy        
 
 Vector   18  Occ=0.000000D+00  E= 1.672907D-01
              MO Center= -2.2D-15, -4.6D-15, -5.0D-15, r^2= 4.0D+00
   Bfn.  Coefficient  Atom+Function         Bfn.  Coefficient  Atom+Function  
  ----- ------------  ---------------      ----- ------------  ---------------
    42      1.587023  1 Si dyz               40     -0.252092  1 Si dxz        
    36      0.205377  1 Si dyz               39     -0.100850  1 Si dxy        
    30      0.075212  1 Si dyz               41     -0.071223  1 Si dyy        
    43      0.053729  1 Si dzz               34     -0.032623  1 Si dxz        
 
 Vector   19  Occ=0.000000D+00  E= 2.504550D-01
              MO Center=  1.6D-13,  1.9D-14,  7.2D-15, r^2= 1.1D+01
   Bfn.  Coefficient  Atom+Function         Bfn.  Coefficient  Atom+Function  
  ----- ------------  ---------------      ----- ------------  ---------------
    16      5.529543  1 Si px                19     -3.935464  1 Si px         
    23      2.054767  1 Si px                47     -1.784195  1 Si fxyy       
    49     -1.785960  1 Si fxzz              44     -1.753168  1 Si fxxx       
    13     -1.081062  1 Si px                17      0.849392  1 Si py         
    20     -0.604526  1 Si py                18      0.427621  1 Si pz         
 
 Vector   20  Occ=0.000000D+00  E= 2.610766D-01
              MO Center= -1.2D-13,  2.3D-13, -1.3D-12, r^2= 9.3D+00
   Bfn.  Coefficient  Atom+Function         Bfn.  Coefficient  Atom+Function  
  ----- ------------  ---------------      ----- ------------  ---------------
     6      3.167537  1 Si s                 22      2.276615  1 Si s          
    38     -2.086547  1 Si dxx               41     -2.035274  1 Si dyy        
    43     -2.034349  1 Si dzz                5     -0.731470  1 Si s          
    35     -0.328861  1 Si dyy               37     -0.329393  1 Si dzz        
     4     -0.305628  1 Si s                 32     -0.299366  1 Si dxx        
 
 Vector   21  Occ=0.000000D+00  E= 2.642804D-01
              MO Center= -5.5D-14, -3.2D-13,  1.3D-12, r^2= 1.1D+01
   Bfn.  Coefficient  Atom+Function         Bfn.  Coefficient  Atom+Function  
  ----- ------------  ---------------      ----- ------------  ---------------
    18      5.613964  1 Si pz                21     -3.851231  1 Si pz         
    25      1.972543  1 Si pz                51     -1.805612  1 Si fyyz       
    53     -1.806073  1 Si fzzz              46     -1.766708  1 Si fxxz       
    17     -1.426808  1 Si py                15     -1.102288  1 Si pz         
    20      0.978804  1 Si py                24     -0.501329  1 Si py         
 
 Vector   22  Occ=0.000000D+00  E= 2.642804D-01
              MO Center= -1.0D-14,  4.2D-14,  1.4D-14, r^2= 1.1D+01
   Bfn.  Coefficient  Atom+Function         Bfn.  Coefficient  Atom+Function  
  ----- ------------  ---------------      ----- ------------  ---------------
    17      5.549125  1 Si py                20     -3.806751  1 Si py         
    24      1.949761  1 Si py                50     -1.784520  1 Si fyyy       
    52     -1.784982  1 Si fyzz              45     -1.748160  1 Si fxxy       
    18      1.373620  1 Si pz                14     -1.089557  1 Si py         
    16     -0.958627  1 Si px                21     -0.942316  1 Si pz         
 
 Vector   23  Occ=0.000000D+00  E= 7.436821D-01
              MO Center= -1.2D-13, -1.6D-14, -9.5D-15, r^2= 2.0D+00
   Bfn.  Coefficient  Atom+Function         Bfn.  Coefficient  Atom+Function  
  ----- ------------  ---------------      ----- ------------  ---------------
    32      1.063293  1 Si dxx                6     -0.724489  1 Si s          
    43      0.546735  1 Si dzz               41      0.530292  1 Si dyy        
    33      0.462605  1 Si dxy               37     -0.433482  1 Si dzz        
    35     -0.406957  1 Si dyy               38     -0.381126  1 Si dxx        
    39     -0.286772  1 Si dxy               34      0.232896  1 Si dxz        
 
 Vector   24  Occ=0.000000D+00  E= 7.452072D-01
              MO Center=  8.1D-14,  4.3D-15, -2.1D-14, r^2= 6.2D+00
   Bfn.  Coefficient  Atom+Function         Bfn.  Coefficient  Atom+Function  
  ----- ------------  ---------------      ----- ------------  ---------------
    16     13.745879  1 Si px                44     -5.619010  1 Si fxxx       
    47     -5.579781  1 Si fxyy              49     -5.577550  1 Si fxzz       
    13     -4.457240  1 Si px                19     -3.659227  1 Si px         
    17      2.111502  1 Si py                23      1.336563  1 Si px         
    18      1.063023  1 Si pz                45     -0.876105  1 Si fxxy       
 
 Vector   25  Occ=0.000000D+00  E= 7.531307D-01
              MO Center= -6.6D-14, -1.6D-14,  2.1D-14, r^2= 1.9D+00
   Bfn.  Coefficient  Atom+Function         Bfn.  Coefficient  Atom+Function  
  ----- ------------  ---------------      ----- ------------  ---------------
    34      1.722032  1 Si dxz               40     -1.061594  1 Si dxz        
    33     -0.375980  1 Si dxy               36      0.237291  1 Si dyz        
    39      0.231783  1 Si dxy               28      0.212057  1 Si dxz        
    42     -0.146285  1 Si dyz               37      0.133636  1 Si dzz        
    43     -0.082384  1 Si dzz               32     -0.077716  1 Si dxx        
 
 Vector   26  Occ=0.000000D+00  E= 7.531307D-01
              MO Center= -1.2D-13, -5.0D-15, -6.7D-15, r^2= 1.9D+00
   Bfn.  Coefficient  Atom+Function         Bfn.  Coefficient  Atom+Function  
  ----- ------------  ---------------      ----- ------------  ---------------
    33      1.664517  1 Si dxy               39     -1.026137  1 Si dxy        
    34      0.324633  1 Si dxz               32     -0.289349  1 Si dxx        
    35      0.262513  1 Si dyy               27      0.204974  1 Si dxy        
    40     -0.200129  1 Si dxz               36      0.185465  1 Si dyz        
    38      0.178377  1 Si dxx               41     -0.161834  1 Si dyy        
 
 Vector   27  Occ=0.000000D+00  E= 7.617701D-01
              MO Center=  7.9D-14,  5.4D-14, -2.4D-13, r^2= 6.1D+00
   Bfn.  Coefficient  Atom+Function         Bfn.  Coefficient  Atom+Function  
  ----- ------------  ---------------      ----- ------------  ---------------
    18     13.560011  1 Si pz                46     -5.603038  1 Si fxxz       
    51     -5.533440  1 Si fyyz              53     -5.532587  1 Si fzzz       
    15     -4.399489  1 Si pz                21     -3.578289  1 Si pz         
    17     -3.230426  1 Si py                45      1.335822  1 Si fxxy       
    50      1.318338  1 Si fyyy              52      1.316344  1 Si fyzz       
 
 Vector   28  Occ=0.000000D+00  E= 7.617701D-01
              MO Center=  1.4D-13, -8.9D-14, -2.1D-14, r^2= 6.1D+00
   Bfn.  Coefficient  Atom+Function         Bfn.  Coefficient  Atom+Function  
  ----- ------------  ---------------      ----- ------------  ---------------
    17     13.405926  1 Si py                45     -5.536099  1 Si fxxy       
    50     -5.470961  1 Si fyyy              52     -5.470107  1 Si fyzz       
    14     -4.349496  1 Si py                20     -3.537628  1 Si py         
    18      3.100058  1 Si pz                16     -2.299022  1 Si px         
    24      1.286831  1 Si py                46     -1.279186  1 Si fxxz       
 
 Vector   29  Occ=0.000000D+00  E= 7.819305D-01
              MO Center= -9.4D-15,  3.4D-14,  1.7D-14, r^2= 1.9D+00
   Bfn.  Coefficient  Atom+Function         Bfn.  Coefficient  Atom+Function  
  ----- ------------  ---------------      ----- ------------  ---------------
    37     -0.883073  1 Si dzz               35      0.864633  1 Si dyy        
    43      0.524897  1 Si dzz               41     -0.513936  1 Si dyy        
    33     -0.287242  1 Si dxy               36      0.279430  1 Si dyz        
    39      0.170736  1 Si dxy               42     -0.166093  1 Si dyz        
    31     -0.111918  1 Si dzz               29      0.109581  1 Si dyy        
 
 Vector   30  Occ=0.000000D+00  E= 7.819305D-01
              MO Center= -5.8D-15,  9.2D-15,  1.6D-14, r^2= 1.9D+00
   Bfn.  Coefficient  Atom+Function         Bfn.  Coefficient  Atom+Function  
  ----- ------------  ---------------      ----- ------------  ---------------
    36      1.747732  1 Si dyz               42     -1.038848  1 Si dyz        
    34     -0.288669  1 Si dxz               30      0.221503  1 Si dyz        
    40      0.171584  1 Si dxz               35     -0.148640  1 Si dyy        
    37      0.130604  1 Si dzz               33     -0.089494  1 Si dxy        
    41      0.088351  1 Si dyy               43     -0.077631  1 Si dzz        
 
 Vector   31  Occ=0.000000D+00  E= 8.918026D-01
              MO Center=  2.7D-14,  3.2D-14,  2.5D-13, r^2= 4.8D+00
   Bfn.  Coefficient  Atom+Function         Bfn.  Coefficient  Atom+Function  
  ----- ------------  ---------------      ----- ------------  ---------------
     6     12.487614  1 Si s                  5     -5.570437  1 Si s          
    38     -3.744190  1 Si dxx               41     -3.693723  1 Si dyy        
    43     -3.692812  1 Si dzz               22      1.405931  1 Si s          
    35     -1.008496  1 Si dyy               37     -1.009812  1 Si dzz        
    32     -0.935559  1 Si dxx                4      0.196393  1 Si s          
 
 Vector   32  Occ=0.000000D+00  E= 9.472956D-01
              MO Center=  5.3D-15, -4.5D-16, -7.6D-16, r^2= 2.0D+00
   Bfn.  Coefficient  Atom+Function         Bfn.  Coefficient  Atom+Function  
  ----- ------------  ---------------      ----- ------------  ---------------
    49      1.434510  1 Si fxzz              47      1.308129  1 Si fxyy       
    44     -0.914102  1 Si fxxx              45     -0.875134  1 Si fxxy       
    46     -0.440584  1 Si fxxz              52      0.220354  1 Si fyzz       
    50      0.218277  1 Si fyyy              48     -0.170457  1 Si fxyz       
    53      0.113149  1 Si fzzz              51      0.101163  1 Si fyyz       
 
 Vector   33  Occ=0.000000D+00  E= 9.513404D-01
              MO Center=  4.3D-15,  2.6D-16, -5.5D-16, r^2= 2.0D+00
   Bfn.  Coefficient  Atom+Function         Bfn.  Coefficient  Atom+Function  
  ----- ------------  ---------------      ----- ------------  ---------------
    46      2.221392  1 Si fxxz              48      0.774928  1 Si fxyz       
    53     -0.628864  1 Si fzzz              51     -0.594745  1 Si fyyz       
    45     -0.581098  1 Si fxxy              49      0.471356  1 Si fxzz       
    52      0.221816  1 Si fyzz              47     -0.192975  1 Si fxyy       
    50      0.140878  1 Si fyyy              18      0.133484  1 Si pz         
 
 Vector   34  Occ=0.000000D+00  E= 9.513404D-01
              MO Center=  4.5D-15, -5.0D-16, -4.9D-16, r^2= 2.0D+00
   Bfn.  Coefficient  Atom+Function         Bfn.  Coefficient  Atom+Function  
  ----- ------------  ---------------      ----- ------------  ---------------
    45      2.062951  1 Si fxxy              47      0.974539  1 Si fxyy       
    48      0.637072  1 Si fxyz              52     -0.605627  1 Si fyzz       
    50     -0.571433  1 Si fyyy              46      0.448464  1 Si fxxz       
    44     -0.380578  1 Si fxxx              49      0.211376  1 Si fxzz       
    53     -0.147250  1 Si fzzz              17      0.131959  1 Si py         
 
 Vector   35  Occ=0.000000D+00  E= 9.656484D-01
              MO Center=  5.6D-15,  1.2D-15,  9.6D-16, r^2= 2.0D+00
   Bfn.  Coefficient  Atom+Function         Bfn.  Coefficient  Atom+Function  
  ----- ------------  ---------------      ----- ------------  ---------------
    49     -1.874317  1 Si fxzz              47      1.776835  1 Si fxyy       
    45     -0.566838  1 Si fxxy              46      0.297998  1 Si fxxz       
    52     -0.292458  1 Si fyzz              50      0.286432  1 Si fyyy       
    53     -0.146715  1 Si fzzz              51      0.142147  1 Si fyyz       
    44      0.032494  1 Si fxxx       
 
 Vector   36  Occ=0.000000D+00  E= 9.656484D-01
              MO Center=  6.4D-15,  9.0D-16,  9.3D-16, r^2= 2.0D+00
   Bfn.  Coefficient  Atom+Function         Bfn.  Coefficient  Atom+Function  
  ----- ------------  ---------------      ----- ------------  ---------------
    48      3.651743  1 Si fxyz              51      0.576698  1 Si fyyz       
    46     -0.569980  1 Si fxxz              52      0.286478  1 Si fyzz       
    45     -0.279474  1 Si fxxy              49     -0.073301  1 Si fxzz       
    47     -0.059171  1 Si fxyy              44      0.044157  1 Si fxxx       
 
 Vector   37  Occ=0.000000D+00  E= 9.879475D-01
              MO Center=  4.6D-16, -2.0D-15, -2.0D-15, r^2= 2.0D+00
   Bfn.  Coefficient  Atom+Function         Bfn.  Coefficient  Atom+Function  
  ----- ------------  ---------------      ----- ------------  ---------------
    52      2.309532  1 Si fyzz              50     -0.753981  1 Si fyyy       
    49     -0.377136  1 Si fxzz              47      0.373587  1 Si fxyy       
    51     -0.337887  1 Si fyyz              48     -0.253404  1 Si fxyz       
    53      0.096420  1 Si fzzz              46      0.048628  1 Si fxxz       
    45     -0.047588  1 Si fxxy       
 
 Vector   38  Occ=0.000000D+00  E= 9.879475D-01
              MO Center=  2.3D-16, -9.1D-16, -1.1D-15, r^2= 2.0D+00
   Bfn.  Coefficient  Atom+Function         Bfn.  Coefficient  Atom+Function  
  ----- ------------  ---------------      ----- ------------  ---------------
    51      2.285774  1 Si fyyz              53     -0.777737  1 Si fzzz       
    48     -0.750772  1 Si fxyz              52      0.313817  1 Si fyzz       
    49      0.132231  1 Si fxzz              47     -0.121242  1 Si fxyy       
    50     -0.120490  1 Si fyyy              45      0.047654  1 Si fxxy       
    46      0.047437  1 Si fxxz       
 
 Vector   39  Occ=0.000000D+00  E= 1.831445D+00
              MO Center= -5.7D-15, -4.1D-16, -2.9D-16, r^2= 2.9D+00
   Bfn.  Coefficient  Atom+Function         Bfn.  Coefficient  Atom+Function  
  ----- ------------  ---------------      ----- ------------  ---------------
    16     13.078911  1 Si px                44     -6.753619  1 Si fxxx       
    47     -6.779573  1 Si fxyy              49     -6.781049  1 Si fxzz       
    13     -2.327124  1 Si px                19     -2.202646  1 Si px         
    17      2.009049  1 Si py                50     -1.041612  1 Si fyyy       
    52     -1.041636  1 Si fyzz              45     -1.028841  1 Si fxxy       
 
 Vector   40  Occ=0.000000D+00  E= 1.857615D+00
              MO Center= -1.6D-16,  5.3D-15, -1.9D-14, r^2= 2.9D+00
   Bfn.  Coefficient  Atom+Function         Bfn.  Coefficient  Atom+Function  
  ----- ------------  ---------------      ----- ------------  ---------------
    18     12.755877  1 Si pz                46     -6.586211  1 Si fxxz       
    51     -6.613114  1 Si fyyz              53     -6.613432  1 Si fzzz       
    17     -3.267346  1 Si py                15     -2.258071  1 Si pz         
    21     -2.143028  1 Si pz                45      1.686658  1 Si fxxy       
    50      1.693869  1 Si fyyy              52      1.694648  1 Si fyzz       
 
 Vector   41  Occ=0.000000D+00  E= 1.857615D+00
              MO Center= -9.3D-16, -2.4D-16,  1.8D-16, r^2= 2.9D+00
   Bfn.  Coefficient  Atom+Function         Bfn.  Coefficient  Atom+Function  
  ----- ------------  ---------------      ----- ------------  ---------------
    17     12.608255  1 Si py                45     -6.511276  1 Si fxxy       
    50     -6.536416  1 Si fyyy              52     -6.536734  1 Si fyzz       
    18      3.146716  1 Si pz                14     -2.231938  1 Si py         
    16     -2.180100  1 Si px                20     -2.118227  1 Si py         
    46     -1.625425  1 Si fxxz              51     -1.630685  1 Si fyyz       
 
 Vector   42  Occ=0.000000D+00  E= 2.747262D+00
              MO Center=  1.7D-15, -5.6D-15,  1.6D-14, r^2= 1.8D+00
   Bfn.  Coefficient  Atom+Function         Bfn.  Coefficient  Atom+Function  
  ----- ------------  ---------------      ----- ------------  ---------------
     5     11.312874  1 Si s                 32     -4.952790  1 Si dxx        
    35     -4.933649  1 Si dyy               37     -4.933304  1 Si dzz        
     6      3.437059  1 Si s                  4     -2.444828  1 Si s          
    41     -1.279568  1 Si dyy               43     -1.279710  1 Si dzz        
    38     -1.271709  1 Si dxx                3     -1.037885  1 Si s          
 
 Vector   43  Occ=0.000000D+00  E= 3.422695D+00
              MO Center= -6.3D-15,  3.4D-16,  1.4D-15, r^2= 6.0D-01
   Bfn.  Coefficient  Atom+Function         Bfn.  Coefficient  Atom+Function  
  ----- ------------  ---------------      ----- ------------  ---------------
    26      1.111458  1 Si dxx               32     -0.568065  1 Si dxx        
    31     -0.531085  1 Si dzz               27      0.507657  1 Si dxy        
    29     -0.501977  1 Si dyy               37      0.503815  1 Si dzz        
    35      0.484820  1 Si dyy                5     -0.354953  1 Si s          
    33     -0.331284  1 Si dxy               28      0.255577  1 Si dxz        
 
 Vector   44  Occ=0.000000D+00  E= 3.429109D+00
              MO Center=  6.0D-16,  1.1D-16, -3.3D-16, r^2= 6.0D-01
   Bfn.  Coefficient  Atom+Function         Bfn.  Coefficient  Atom+Function  
  ----- ------------  ---------------      ----- ------------  ---------------
    28      1.916175  1 Si dxz               34     -1.252006  1 Si dxz        
    40      0.399855  1 Si dxz               30      0.283306  1 Si dyz        
    36     -0.185109  1 Si dyz               27     -0.180841  1 Si dxy        
    31      0.148927  1 Si dzz               26     -0.124076  1 Si dxx        
    33      0.118160  1 Si dxy               37     -0.097307  1 Si dzz        
 
 Vector   45  Occ=0.000000D+00  E= 3.429109D+00
              MO Center=  4.2D-16, -2.0D-16, -1.8D-17, r^2= 6.0D-01
   Bfn.  Coefficient  Atom+Function         Bfn.  Coefficient  Atom+Function  
  ----- ------------  ---------------      ----- ------------  ---------------
    27      1.860688  1 Si dxy               33     -1.215751  1 Si dxy        
    39      0.388276  1 Si dxy               26     -0.303867  1 Si dxx        
    29      0.292990  1 Si dyy               32      0.198543  1 Si dxx        
    35     -0.191436  1 Si dyy               30      0.169110  1 Si dyz        
    28      0.117159  1 Si dxz               36     -0.110495  1 Si dyz        
 
 Vector   46  Occ=0.000000D+00  E= 3.449163D+00
              MO Center= -8.3D-18,  3.0D-16, -2.2D-16, r^2= 6.0D-01
   Bfn.  Coefficient  Atom+Function         Bfn.  Coefficient  Atom+Function  
  ----- ------------  ---------------      ----- ------------  ---------------
    31     -0.975843  1 Si dzz               29      0.958018  1 Si dyy        
    37      0.640313  1 Si dzz               35     -0.628617  1 Si dyy        
    27     -0.301195  1 Si dxy               43     -0.203404  1 Si dzz        
    41      0.199689  1 Si dyy               33      0.197633  1 Si dxy        
    28      0.137279  1 Si dxz               34     -0.090077  1 Si dxz        
 
 Vector   47  Occ=0.000000D+00  E= 3.449163D+00
              MO Center=  2.4D-16, -2.6D-16,  2.4D-16, r^2= 6.0D-01
   Bfn.  Coefficient  Atom+Function         Bfn.  Coefficient  Atom+Function  
  ----- ------------  ---------------      ----- ------------  ---------------
    30      1.933912  1 Si dyz               36     -1.268963  1 Si dyz        
    42      0.403104  1 Si dyz               28     -0.302234  1 Si dxz        
    34      0.198315  1 Si dxz               27     -0.132576  1 Si dxy        
    33      0.086991  1 Si dxy               40     -0.062998  1 Si dxz        
    29     -0.055274  1 Si dyy               35      0.036269  1 Si dyy        
 
 Vector   48  Occ=0.000000D+00  E= 7.353293D+00
              MO Center= -3.0D-16, -1.0D-15,  1.4D-16, r^2= 7.7D-01
   Bfn.  Coefficient  Atom+Function         Bfn.  Coefficient  Atom+Function  
  ----- ------------  ---------------      ----- ------------  ---------------
     5     26.485508  1 Si s                 32     -7.312958  1 Si dxx        
    35     -7.310207  1 Si dyy               37     -7.310158  1 Si dzz        
     6     -6.347146  1 Si s                 26     -3.356559  1 Si dxx        
    29     -3.359366  1 Si dyy               31     -3.359416  1 Si dzz        
     3     -1.718767  1 Si s                  4     -1.528043  1 Si s          
 
 Vector   49  Occ=0.000000D+00  E= 1.155176D+01
              MO Center=  4.9D-16,  6.2D-17, -1.3D-18, r^2= 2.8D-01
   Bfn.  Coefficient  Atom+Function         Bfn.  Coefficient  Atom+Function  
  ----- ------------  ---------------      ----- ------------  ---------------
    16      3.165334  1 Si px                44     -1.814490  1 Si fxxx       
    47     -1.814054  1 Si fxyy              49     -1.814029  1 Si fxzz       
    10     -1.413056  1 Si px                 7      1.178466  1 Si px         
    17      0.486226  1 Si py                19     -0.448607  1 Si px         
    45     -0.278867  1 Si fxxy              50     -0.278653  1 Si fyyy       
 
 Vector   50  Occ=0.000000D+00  E= 1.156768D+01
              MO Center=  2.4D-17, -6.5D-17, -1.1D-16, r^2= 2.8D-01
   Bfn.  Coefficient  Atom+Function         Bfn.  Coefficient  Atom+Function  
  ----- ------------  ---------------      ----- ------------  ---------------
    17      2.804325  1 Si py                45     -1.608001  1 Si fxxy       
    50     -1.607597  1 Si fyyy              52     -1.607594  1 Si fyzz       
    18      1.465018  1 Si pz                11     -1.252776  1 Si py         
     8      1.044346  1 Si py                46     -0.840043  1 Si fxxz       
    51     -0.839841  1 Si fyyz              53     -0.839827  1 Si fzzz       
 
 Vector   51  Occ=0.000000D+00  E= 1.156768D+01
              MO Center=  1.6D-17, -9.7D-17,  3.4D-16, r^2= 2.8D-01
   Bfn.  Coefficient  Atom+Function         Bfn.  Coefficient  Atom+Function  
  ----- ------------  ---------------      ----- ------------  ---------------
    18      2.846117  1 Si pz                46     -1.631991  1 Si fxxz       
    51     -1.631548  1 Si fyyz              53     -1.631546  1 Si fzzz       
    17     -1.485288  1 Si py                12     -1.271446  1 Si pz         
     9      1.059909  1 Si pz                45      0.851679  1 Si fxxy       
    50      0.851451  1 Si fyyy              52      0.851436  1 Si fyzz       
 
 Vector   52  Occ=0.000000D+00  E= 1.771276D+01
              MO Center= -5.5D-17, -1.6D-16, -1.9D-16, r^2= 3.5D-01
   Bfn.  Coefficient  Atom+Function         Bfn.  Coefficient  Atom+Function  
  ----- ------------  ---------------      ----- ------------  ---------------
     5     23.062574  1 Si s                  4     14.767934  1 Si s          
     3    -11.541984  1 Si s                  6     -7.033161  1 Si s          
    26     -6.954590  1 Si dxx               29     -6.954957  1 Si dyy        
    31     -6.954964  1 Si dzz               32     -5.855680  1 Si dxx        
    35     -5.855213  1 Si dyy               37     -5.855205  1 Si dzz        
 
 Vector   53  Occ=0.000000D+00  E= 1.629790D+02
              MO Center=  2.0D-18, -1.2D-18,  8.0D-19, r^2= 4.1D-02
   Bfn.  Coefficient  Atom+Function         Bfn.  Coefficient  Atom+Function  
  ----- ------------  ---------------      ----- ------------  ---------------
     5      7.449058  1 Si s                  4      7.129320  1 Si s          
     3     -5.939684  1 Si s                 26     -2.756197  1 Si dxx        
    29     -2.756200  1 Si dyy               31     -2.756200  1 Si dzz        
     2      2.246228  1 Si s                  6     -2.228602  1 Si s          
    32     -1.901335  1 Si dxx               35     -1.901326  1 Si dyy        
 

   alpha - beta orbital overlaps 
   ----------------------------- 


   alpha      1      2      3      4      5      6      7      8      9     10
    beta      1      2      3      4      5      6      9      8      7     10
 overlap   1.000  1.000  1.000  0.995  0.995  0.997  0.993  0.993  0.999  1.000


   alpha     11     12     13     14     15     16     17     18     19     20
    beta     13     12     11     18     17     16     15     14     22     21
 overlap   0.894  0.894  1.000  0.999  0.999  1.000  1.000  0.998  0.953  0.953


   alpha     21     22     23     24     25     26     27     28     29     30
    beta     19     20     26     25     30     29     23     28     27     24
 overlap   1.000  0.999  1.000  1.000  0.993  0.993  0.998  0.981  0.981  1.000


   alpha     31     32     33     34     35     36     37     38     39     40
    beta     31     36     35     34     33     32     38     37     39     41
 overlap   0.999  0.996  0.996  0.999  0.999  0.999  0.995  0.995  1.000  0.980


   alpha     41     42     43     44     45     46     47     48     49     50
    beta     40     42     43     45     44     47     46     48     49     50
 overlap   0.980  1.000  1.000  0.986  0.986  0.731  0.731  1.000  1.000  0.901


   alpha     51     52     53
    beta     51     52     53
 overlap   0.901  1.000  1.000

     --------------------------
     Expectation value of S2:  
     --------------------------
      <S2> =      2.0054 (Exact =     2.0000)
 

 Parallel integral file used      16 records with       0 large values


 Task  times  cpu:        1.6s     wall:        2.4s
 
 
                                NWChem Input Module
                                -------------------
 
 
 Summary of allocated global arrays
-----------------------------------
  No active global arrays



                         GA Statistics for process    0
                         ------------------------------

       create   destroy   get      put      acc     scatter   gather  read&inc
calls:  221      221      889      755      162        0        0       81     
number of processes/call 1.54e+00 1.27e+00 3.70e+00 0.00e+00 0.00e+00
bytes total:             1.04e+07 3.88e+06 3.64e+06 0.00e+00 0.00e+00 6.48e+02
bytes remote:            7.72e+05 1.23e+05 8.70e+05 0.00e+00 0.00e+00 0.00e+00
Max memory consumed for GA by this process: 1460680 bytes
 
MA_summarize_allocated_blocks: starting scan ...
MA_summarize_allocated_blocks: scan completed: 0 heap blocks, 0 stack blocks
MA usage statistics:

	allocation statistics:
					      heap	     stack
					      ----	     -----
	current number of blocks	         0	         0
	maximum number of blocks	        21	        53
	current total bytes		         0	         0
	maximum total bytes		   2415120	  22513080
	maximum total K-bytes		      2416	     22514
	maximum total M-bytes		         3	        23
 
 
                                     CITATION
                                     --------
                Please cite the following reference when publishing
                           results obtained with NWChem:
 
                 M. Valiev, E.J. Bylaska, N. Govind, K. Kowalski,
              T.P. Straatsma, H.J.J. van Dam, D. Wang, J. Nieplocha,
                        E. Apra, T.L. Windus, W.A. de Jong
                 "NWChem: a comprehensive and scalable open-source
                  solution for large scale molecular simulations"
                      Comput. Phys. Commun. 181, 1477 (2010)
                           doi:10.1016/j.cpc.2010.04.018
 
                                      AUTHORS
                                      -------
          E. Apra, E. J. Bylaska, W. A. de Jong, N. Govind, K. Kowalski,
       T. P. Straatsma, M. Valiev, H. J. J. van Dam, D. Wang, T. L. Windus,
        J. Hammond, J. Autschbach, K. Bhaskaran-Nair, J. Brabec, K. Lopata,
    S. A. Fischer, S. Krishnamoorthy, M. Jacquelin, W. Ma, M. Klemm, O. Villa,
      Y. Chen, V. Anisimov, F. Aquino, S. Hirata, M. T. Hackler, V. Konjkov,
            D. Mejia-Rodriguez, T. Risthaus, M. Malagoli, A. Marenich,
   A. Otero-de-la-Roza, J. Mullin, P. Nichols, R. Peverati, J. Pittner, Y. Zhao,
        P.-D. Fan, A. Fonari, M. J. Williamson, R. J. Harrison, J. R. Rehr,
      M. Dupuis, D. Silverstein, D. M. A. Smith, J. Nieplocha, V. Tipparaju,
    M. Krishnan, B. E. Van Kuiken, A. Vazquez-Mayagoitia, L. Jensen, M. Swart,
      Q. Wu, T. Van Voorhis, A. A. Auer, M. Nooijen, L. D. Crosby, E. Brown,
      G. Cisneros, G. I. Fann, H. Fruchtl, J. Garza, K. Hirao, R. A. Kendall,
      J. A. Nichols, K. Tsemekhman, K. Wolinski, J. Anchell, D. E. Bernholdt,
      P. Borowski, T. Clark, D. Clerc, H. Dachsel, M. J. O. Deegan, K. Dyall,
    D. Elwood, E. Glendening, M. Gutowski, A. C. Hess, J. Jaffe, B. G. Johnson,
     J. Ju, R. Kobayashi, R. Kutteh, Z. Lin, R. Littlefield, X. Long, B. Meng,
      T. Nakajima, S. Niu, L. Pollack, M. Rosing, K. Glaesemann, G. Sandrone,
      M. Stave, H. Taylor, G. Thomas, J. H. van Lenthe, A. T. Wong, Z. Zhang.

 Total times  cpu:        1.6s     wall:        2.6s
