[1537765114.663757] [r8n4:2078 :0]         sys.c:744  MXM  WARN  Conflicting CPU frequencies detected, using: 1694.81
[1537765114.673049] [r8n4:2090 :0]         sys.c:744  MXM  WARN  Conflicting CPU frequencies detected, using: 1797.14
[1537765114.673717] [r8n4:2091 :0]         sys.c:744  MXM  WARN  Conflicting CPU frequencies detected, using: 1797.14
[1537765114.673882] [r8n4:2083 :0]         sys.c:744  MXM  WARN  Conflicting CPU frequencies detected, using: 1797.14
[1537765114.699169] [r8n4:2087 :0]         sys.c:744  MXM  WARN  Conflicting CPU frequencies detected, using: 1995.70
[1537765114.699182] [r8n4:2085 :0]         sys.c:744  MXM  WARN  Conflicting CPU frequencies detected, using: 1995.70
[1537765114.699187] [r8n4:2084 :0]         sys.c:744  MXM  WARN  Conflicting CPU frequencies detected, using: 1995.70
[1537765114.699197] [r8n4:2081 :0]         sys.c:744  MXM  WARN  Conflicting CPU frequencies detected, using: 1995.70
[1537765114.699273] [r8n4:2086 :0]         sys.c:744  MXM  WARN  Conflicting CPU frequencies detected, using: 1995.70
[1537765114.700888] [r8n4:2076 :0]         sys.c:744  MXM  WARN  Conflicting CPU frequencies detected, using: 1995.70
[1537765114.716770] [r8n4:2080 :0]         sys.c:744  MXM  WARN  Conflicting CPU frequencies detected, using: 2094.89
[1537765114.716843] [r8n4:2082 :0]         sys.c:744  MXM  WARN  Conflicting CPU frequencies detected, using: 2094.89
[1537765114.716903] [r8n4:2079 :0]         sys.c:744  MXM  WARN  Conflicting CPU frequencies detected, using: 2094.89
[1537765114.716907] [r8n4:2088 :0]         sys.c:744  MXM  WARN  Conflicting CPU frequencies detected, using: 2094.89
[1537765114.716926] [r8n4:2077 :0]         sys.c:744  MXM  WARN  Conflicting CPU frequencies detected, using: 2094.89
[1537765114.719548] [r8n4:2092 :0]         sys.c:744  MXM  WARN  Conflicting CPU frequencies detected, using: 2094.89
 argument  1 = /storage/home/bikashp/nwchem_run/rabeet/hb6/nwhb6/C2H2-C2H2.nw
                                         
                                         


              Northwest Computational Chemistry Package (NWChem) 6.6
              ------------------------------------------------------


                    Environmental Molecular Sciences Laboratory
                       Pacific Northwest National Laboratory
                                Richland, WA 99352

                              Copyright (c) 1994-2015
                       Pacific Northwest National Laboratory
                            Battelle Memorial Institute

             NWChem is an open-source computational chemistry package
                        distributed under the terms of the
                      Educational Community License (ECL) 2.0
             A copy of the license is included with this distribution
                              in the LICENSE.TXT file

                                  ACKNOWLEDGMENT
                                  --------------

            This software and its documentation were developed at the
            EMSL at Pacific Northwest National Laboratory, a multiprogram
            national laboratory, operated for the U.S. Department of Energy
            by Battelle under Contract Number DE-AC05-76RL01830. Support
            for this work was provided by the Department of Energy Office
            of Biological and Environmental Research, Office of Basic
            Energy Sciences, and the Office of Advanced Scientific Computing.


           Job information
           ---------------

    hostname        = r8n4.niserhpc.org
    program         = /home/bikashp/Code/nwchem-6.6_tpssloc/bin/LINUX64/nwchem
    date            = Mon Sep 24 10:28:37 2018

    compiled        = Tue_Sep_18_16:24:59_2018
    source          = /home/bikashp/Code/nwchem-6.6_tpssloc
    nwchem branch   = 6.6
    nwchem revision = 27746
    ga revision     = 10594
    input           = /storage/home/bikashp/nwchem_run/rabeet/hb6/nwhb6/C2H2-C2H2.nw
    prefix          = C2H2-C2H2.
    data base       = ./C2H2-C2H2.db
    status          = startup
    nproc           =       16
    time left       =     -1s



           Memory information
           ------------------

    heap     =   13107196 doubles =    100.0 Mbytes
    stack    =   13107201 doubles =    100.0 Mbytes
    global   =   26214400 doubles =    200.0 Mbytes (distinct from heap & stack)
    total    =   52428797 doubles =    400.0 Mbytes
    verify   = yes
    hardfail = no 


           Directory information
           ---------------------

  0 permanent = .
  0 scratch   = .




                                NWChem Input Module
                                -------------------



 Scaling coordinates for geometry "geometry" by  1.889725989
 (inverse scale =  0.529177249)

 C2H symmetry detected

          ------
          auto-z
          ------
  autoz: The atoms group into disjoint clusters
 cluster   1:    1    2    3    4
 cluster   2:    5    6    7    8
 Clusters   1   2 closest atoms are    3    7 r = 2.88 ... close but too far?
     1 autoz failed with cvr_scaling = 1.2 changing to 1.3
  autoz: The atoms group into disjoint clusters
 cluster   1:    1    2    3    4
 cluster   2:    5    6    7    8
 Connecting clusters   1   2 via atoms    3    7 r = 2.88
  autoz: regenerating connections with new bonds


                             Geometry "geometry" -> ""
                             -------------------------

 Output coordinates in angstroms (scale by  1.889725989 to convert to a.u.)

  No.       Tag          Charge          X              Y              Z
 ---- ---------------- ---------- -------------- -------------- --------------
    1 C                    6.0000    -0.51343561     1.65010179     0.00000000
    2 C                    6.0000     0.25664037     2.58191431     0.00000000
    3 H                    1.0000    -1.18390607     0.82061001     0.00000000
    4 H                    1.0000     0.92992104     3.40835068     0.00000000
    5 C                    6.0000     0.51343561    -1.65010179     0.00000000
    6 C                    6.0000    -0.25664037    -2.58191431     0.00000000
    7 H                    1.0000     1.18390607    -0.82061001     0.00000000
    8 H                    1.0000    -0.92992104    -3.40835068     0.00000000

      Atomic Mass 
      ----------- 

      C                 12.000000
      H                  1.007825


 Effective nuclear repulsion energy (a.u.)      74.2161920227

            Nuclear Dipole moment (a.u.) 
            ----------------------------
        X                 Y               Z
 ---------------- ---------------- ----------------
     0.0000000000     0.0000000000     0.0000000000

      Symmetry information
      --------------------

 Group name             C2h       
 Group number             21
 Group order               4
 No. of unique centers     4

      Symmetry unique atoms

     1    2    3    4



                                Z-matrix (autoz)
                                -------- 

 Units are Angstrom for bonds and degrees for angles

      Type          Name      I     J     K     L     M      Value
      ----------- --------  ----- ----- ----- ----- ----- ----------
    1 Stretch                  1     2                       1.20884
    2 Stretch                  1     3                       1.06658
    3 Stretch                  2     4                       1.06598
    4 Stretch                  3     7                       2.88100
    5 Stretch                  5     6                       1.20884
    6 Stretch                  5     7                       1.06658
    7 Stretch                  6     8                       1.06598
    8 Bend                     1     3     7                85.77901
    9 Bend                     2     3     7                85.44803
   10 Bend                     3     7     5                85.77901
   11 Bend                     4     3     7                85.48321
   12 Bend                     6     7     3                85.44803
   13 Bend                     8     7     3                85.48321
   14 Torsion                  1     3     7     5         180.00000
   15 Torsion                  6     5     3     7         180.00000
   16 Torsion                  3     7     2     4         180.00000
   17 Torsion                  4     3     7     5         180.00000
   18 Torsion                  2     1     7     3         180.00000
   19 Torsion                  7     3     6     8         180.00000
   20 Torsion                  1     3     7     8         180.00000


            XYZ format geometry
            -------------------
     8
 geometry
 C                    -0.51343561     1.65010179     0.00000000
 C                     0.25664037     2.58191431     0.00000000
 H                    -1.18390607     0.82061001     0.00000000
 H                     0.92992104     3.40835068     0.00000000
 C                     0.51343561    -1.65010179     0.00000000
 C                    -0.25664037    -2.58191431     0.00000000
 H                     1.18390607    -0.82061001     0.00000000
 H                    -0.92992104    -3.40835068     0.00000000

 ==============================================================================
                                internuclear distances
 ------------------------------------------------------------------------------
       center one      |      center two      | atomic units |  angstroms
 ------------------------------------------------------------------------------
    2 C                |   1 C                |     2.28437  |     1.20884
    3 H                |   1 C                |     2.01554  |     1.06658
    4 H                |   2 C                |     2.01440  |     1.06598
    6 C                |   5 C                |     2.28437  |     1.20884
    7 H                |   5 C                |     2.01554  |     1.06658
    8 H                |   6 C                |     2.01440  |     1.06598
 ------------------------------------------------------------------------------
                         number of included internuclear distances:          6
 ==============================================================================



 ==============================================================================
                                 internuclear angles
 ------------------------------------------------------------------------------
        center 1       |       center 2       |       center 3       |  degrees
 ------------------------------------------------------------------------------
    2 C                |   1 C                |   3 H                |   179.38
    1 C                |   2 C                |   4 H                |   179.60
    6 C                |   5 C                |   7 H                |   179.38
    5 C                |   6 C                |   8 H                |   179.60
 ------------------------------------------------------------------------------
                            number of included internuclear angles:          4
 ==============================================================================





 Summary of "ao basis" -> "" (cartesian)
 ------------------------------------------------------------------------------
       Tag                 Description            Shells   Functions and Types
 ---------------- ------------------------------  ------  ---------------------
 *                     6-311++G(3df,3pd)              on all atoms 



                                 NWChem DFT Module
                                 -----------------


                      Basis "ao basis" -> "ao basis" (cartesian)
                      -----
  C (Carbon)
  ----------
            Exponent  Coefficients 
       -------------- ---------------------------------------------------------
  1 S  4.56324000E+03  0.001967
  1 S  6.82024000E+02  0.015231
  1 S  1.54973000E+02  0.076127
  1 S  4.44553000E+01  0.260801
  1 S  1.30290000E+01  0.616462
  1 S  1.82773000E+00  0.221006

  2 S  2.09642000E+01  0.114660
  2 S  4.80331000E+00  0.919999
  2 S  1.45933000E+00 -0.003031

  3 P  2.09642000E+01  0.040249
  3 P  4.80331000E+00  0.237594
  3 P  1.45933000E+00  0.815854

  4 S  4.83456000E-01  1.000000

  5 P  4.83456000E-01  1.000000

  6 S  1.45585000E-01  1.000000

  7 P  1.45585000E-01  1.000000

  8 S  4.38000000E-02  1.000000

  9 P  4.38000000E-02  1.000000

 10 D  2.50400000E+00  1.000000

 11 D  6.26000000E-01  1.000000

 12 D  1.56500000E-01  1.000000

 13 F  8.00000000E-01  1.000000

  H (Hydrogen)
  ------------
            Exponent  Coefficients 
       -------------- ---------------------------------------------------------
  1 S  3.38650000E+01  0.025494
  1 S  5.09479000E+00  0.190373
  1 S  1.15879000E+00  0.852161

  2 S  3.25840000E-01  1.000000

  3 S  1.02741000E-01  1.000000

  4 S  3.60000000E-02  1.000000

  5 P  3.00000000E+00  1.000000

  6 P  7.50000000E-01  1.000000

  7 P  1.87500000E-01  1.000000

  8 D  1.00000000E+00  1.000000



 Summary of "ao basis" -> "ao basis" (cartesian)
 ------------------------------------------------------------------------------
       Tag                 Description            Shells   Functions and Types
 ---------------- ------------------------------  ------  ---------------------
 C                     6-311++G(3df,3pd)            13       45   5s4p3d1f
 H                     6-311++G(3df,3pd)             8       19   4s3p1d




 Summary of "ao basis" -> "ao basis" (cartesian)
 ------------------------------------------------------------------------------
       Tag                 Description            Shells   Functions and Types
 ---------------- ------------------------------  ------  ---------------------
 C                     6-311++G(3df,3pd)            13       45   5s4p3d1f
 H                     6-311++G(3df,3pd)             8       19   4s3p1d


      Symmetry analysis of basis
      --------------------------

        ag         90
        au         38
        bg         38
        bu         90

  Caching 1-el integrals 

            General Information
            -------------------
          SCF calculation type: DFT
          Wavefunction type:  closed shell.
          No. of atoms     :     8
          No. of electrons :    28
           Alpha electrons :    14
            Beta electrons :    14
          Charge           :     0
          Spin multiplicity:     1
          Use of symmetry is: on ; symmetry adaption is: on 
          Maximum number of iterations: ***
          AO basis - number of functions:   256
                     number of shells:    84
          Convergence on energy requested: 1.00D-06
          Convergence on density requested: 1.00D-05
          Convergence on gradient requested: 5.00D-04

              XC Information
              --------------
                  TPSS metaGGA Exchange Functional  1.000          
             TPSS03 metaGGA Correlation Functional  1.000          

             Grid Information
             ----------------
          Grid used for XC integration:  medium    
          Radial quadrature: Mura-Knowles        
          Angular quadrature: Lebedev. 
          Tag              B.-S. Rad. Rad. Pts. Rad. Cut. Ang. Pts.
          ---              ---------- --------- --------- ---------
          C                   0.70       49          17.0       434
          H                   0.35       45          19.0       434
          Grid pruning is: on 
          Number of quadrature shells:   188
          Spatial weights used:  Erf1

          Convergence Information
          -----------------------
          Convergence aids based upon iterative change in 
          total energy or number of iterations. 
          Levelshifting, if invoked, occurs when the 
          HOMO/LUMO gap drops below (HL_TOL): 1.00D-02
          DIIS, if invoked, will attempt to extrapolate 
          using up to (NFOCK): 10 stored Fock matrices.

                    Damping( 0%)  Levelshifting(0.5)       DIIS
                  --------------- ------------------- ---------------
          dE  on:    start            ASAP                start   
          dE off:    2 iters        *** iters           *** iters 


      Screening Tolerance Information
      -------------------------------
          Density screening/tol_rho: 1.00D-10
          AO Gaussian exp screening on grid/accAOfunc:  14
          CD Gaussian exp screening on grid/accCDfunc:  20
          XC Gaussian exp screening on grid/accXCfunc:  20
          Schwarz screening/accCoul: 1.00D-08


 WARNING : Found     4 linear dependencies 
 S eigenvalue threshold:     1.00000E-05
 Smallest S eigenvalue :     2.63746E-07
 Largest  S eigenvalue :     5.48173E-06


 !! The overlap matrix has   4 vectors deemed linearly dependent with
    eigenvalues:
 2.64D-07 2.83D-07 5.36D-06 5.48D-06


      Superposition of Atomic Density Guess
      -------------------------------------

 Sum of atomic energies:        -152.67574416

      Non-variational initial energy
      ------------------------------

 Total energy =    -154.321040
 1-e energy   =    -349.285013
 2-e energy   =     120.747781
 HOMO         =      -0.359578
 LUMO         =       0.026116


      Symmetry analysis of molecular orbitals - initial
      -------------------------------------------------

  Numbering of irreducible representations: 

     1 ag          2 au          3 bg          4 bu      

  Orbital symmetries:

     1 ag          2 bu          3 ag          4 bu          5 ag      
     6 bu          7 ag          8 bu          9 ag         10 bu      
    11 ag         12 au         13 bg         14 bu         15 ag      
    16 au         17 ag         18 bu         19 bg         20 bu      
    21 bu         22 ag         23 au         24 bu      

   Time after variat. SCF:      1.3
   Time prior to 1st pass:      1.3
  int2e_file: Failed to allocate cache ... halving
  int2e_file: Failed to allocate cache ... halving
  int2e_file: Failed to allocate cache ... halving
  int2e_file: Failed to allocate cache ... halving
  int2e_file: Failed to allocate cache ... halving
  int2e_file: Failed to allocate cache ... halving
  int2e_file: Failed to allocate cache ... halving
  int2e_file: Failed to allocate cache ... halving
  int2e_file: Failed to allocate cache ... halving
  int2e_file: Failed to allocate cache ... halving
  int2e_file: Failed to allocate cache ... halving
  int2e_file: Failed to allocate cache ... halving

 Integral file          = ./C2H2-C2H2.aoints.00
 Record size in doubles =    65536    No. of integs per rec  =    32766
 Max. records in memory =      340    Max. records in file   = 11597698
 No. of bits per label  =       16    No. of bits per value  =       64

  int2e_file: Failed to allocate cache ... halving
  int2e_file: Failed to allocate cache ... halving
  int2e_file: Failed to allocate cache ... halving
  int2e_file: Failed to allocate cache ... halving

 #quartets = 2.412D+06 #integrals = 8.307D+07 #direct =  0.0% #cached =100.0%


File balance: exchanges=    15  moved=    59  time=   0.0


 Grid_pts file          = ./C2H2-C2H2.gridpts.00
 Record size in doubles =  12289        No. of grid_pts per rec  =   3070
 Max. records in memory =      3        Max. recs in file   =  61846593

 Grid integrated density:      27.989564202952
 Requested integration accuracy:   0.10E-05

           Memory utilization after 1st SCF pass: 
           Heap Space remaining (MW):        1.87             1870108
          Stack Space remaining (MW):       13.11            13105724

   convergence    iter        energy       DeltaE   RMS-Dens  Diis-err    time
 ---------------- ----- ----------------- --------- --------- ---------  ------
 d= 0,ls=0.0,diis     1   -154.6742734687 -2.29D+02  4.99D-03  8.17D-01     3.6
 d= 0,ls=0.0,diis     2   -154.6484309852  2.58D-02  1.81D-03  2.77D-01     4.7
 d= 0,ls=0.0,diis     3   -154.7056835274 -5.73D-02  5.58D-04  6.66D-02     5.7
 d= 0,ls=0.0,diis     4   -154.6955121558  1.02D-02  2.48D-04  2.36D-02     6.8
 d= 0,ls=0.0,diis     5   -154.6977728130 -2.26D-03  9.29D-05  1.39D-03     7.8
  Resetting Diis
 d= 0,ls=0.0,diis     6   -154.6985703153 -7.98D-04  1.89D-05  2.91D-05     8.8
 d= 0,ls=0.0,diis     7   -154.6985947813 -2.45D-05  4.22D-06  3.43D-07     9.9
 d= 0,ls=0.0,diis     8   -154.6986506283 -5.58D-05  1.68D-06  5.54D-07    10.9
 d= 0,ls=0.0,diis     9   -154.6986224008  2.82D-05  7.81D-07  2.10D-07    12.0
 d= 0,ls=0.0,diis    10   -154.6986167911  5.61D-06  3.68D-07  1.30D-08    13.0
 d= 0,ls=0.0,diis    11   -154.6986197782 -2.99D-06  9.11D-08  1.33D-09    14.0
 d= 0,ls=0.0,diis    12   -154.6986199005 -1.22D-07  9.82D-09  1.13D-09    15.1


         Total DFT energy =     -154.698619900517
      One electron energy =     -352.137941683327
           Coulomb energy =      146.048127602880
          Exchange energy =      -21.969583242512
       Correlation energy =       -0.855414600217
 Nuclear repulsion energy =       74.216192022659

 Numeric. integr. density =       28.000000967792

     Total iterative time =     13.8s



                  Occupations of the irreducible representations
                  ----------------------------------------------

                     irrep           alpha         beta
                     --------     --------     --------
                     ag                6.0          6.0
                     au                1.0          1.0
                     bg                1.0          1.0
                     bu                6.0          6.0


                       DFT Final Molecular Orbital Analysis
                       ------------------------------------

 Vector    4  Occ=2.000000D+00  E=-1.007885D+01  Symmetry=bu
              MO Center= -1.6D-17, -3.9D-16,  1.2D-39, r^2= 4.7D+00
   Bfn.  Coefficient  Atom+Function         Bfn.  Coefficient  Atom+Function  
  ----- ------------  ---------------      ----- ------------  ---------------
     1      0.291639  1 C  s                129     -0.291639  5 C  s          
    46     -0.270036  2 C  s                174      0.270036  6 C  s          
     2      0.241703  1 C  s                130     -0.241703  5 C  s          
    47     -0.223802  2 C  s                175      0.223802  6 C  s          

 Vector    5  Occ=2.000000D+00  E=-7.610036D-01  Symmetry=ag
              MO Center= -1.9D-17, -2.9D-17, -2.1D-32, r^2= 5.3D+00
   Bfn.  Coefficient  Atom+Function         Bfn.  Coefficient  Atom+Function  
  ----- ------------  ---------------      ----- ------------  ---------------
    10      0.231345  1 C  s                 55      0.232335  2 C  s          
   138      0.231345  5 C  s                183      0.232335  6 C  s          
     6      0.222381  1 C  s                134      0.222381  5 C  s          
    51      0.219642  2 C  s                179      0.219642  6 C  s          

 Vector    6  Occ=2.000000D+00  E=-7.586985D-01  Symmetry=bu
              MO Center= -5.6D-17,  4.4D-16,  8.3D-34, r^2= 5.4D+00
   Bfn.  Coefficient  Atom+Function         Bfn.  Coefficient  Atom+Function  
  ----- ------------  ---------------      ----- ------------  ---------------
    10      0.228229  1 C  s                 55      0.228300  2 C  s          
   138     -0.228229  5 C  s                183     -0.228300  6 C  s          
    51      0.223304  2 C  s                179     -0.223304  6 C  s          
     6      0.221473  1 C  s                134     -0.221473  5 C  s          

 Vector    7  Occ=2.000000D+00  E=-5.879589D-01  Symmetry=ag
              MO Center=  1.6D-14, -3.1D-13, -3.4D-16, r^2= 6.6D+00
   Bfn.  Coefficient  Atom+Function         Bfn.  Coefficient  Atom+Function  
  ----- ------------  ---------------      ----- ------------  ---------------
    51     -0.138486  2 C  s                179     -0.138486  6 C  s          
     6      0.135506  1 C  s                134      0.135506  5 C  s          

 Vector    8  Occ=2.000000D+00  E=-5.814158D-01  Symmetry=bu
              MO Center= -2.2D-14,  3.0D-13,  5.5D-16, r^2= 7.1D+00
   Bfn.  Coefficient  Atom+Function         Bfn.  Coefficient  Atom+Function  
  ----- ------------  ---------------      ----- ------------  ---------------
     6      0.144720  1 C  s                134     -0.144720  5 C  s          
    51     -0.130251  2 C  s                179      0.130251  6 C  s          

 Vector    9  Occ=2.000000D+00  E=-5.125288D-01  Symmetry=ag
              MO Center=  6.3D-15,  9.5D-15,  5.7D-31, r^2= 6.6D+00
   Bfn.  Coefficient  Atom+Function         Bfn.  Coefficient  Atom+Function  
  ----- ------------  ---------------      ----- ------------  ---------------
   111      0.177969  4 H  s                239      0.177969  8 H  s          
    92      0.161550  3 H  s                220      0.161550  7 H  s          

 Vector   10  Occ=2.000000D+00  E=-5.081470D-01  Symmetry=bu
              MO Center= -2.1D-15, -2.3D-15,  4.1D-32, r^2= 6.1D+00
   Bfn.  Coefficient  Atom+Function         Bfn.  Coefficient  Atom+Function  
  ----- ------------  ---------------      ----- ------------  ---------------
    92      0.169232  3 H  s                220     -0.169232  7 H  s          
   111      0.165221  4 H  s                239     -0.165221  8 H  s          

 Vector   11  Occ=2.000000D+00  E=-3.450563D-01  Symmetry=ag
              MO Center=  1.1D-16, -4.3D-16, -1.9D-32, r^2= 5.7D+00
   Bfn.  Coefficient  Atom+Function         Bfn.  Coefficient  Atom+Function  
  ----- ------------  ---------------      ----- ------------  ---------------
    56      0.154767  2 C  px               184     -0.154767  6 C  px         

 Vector   12  Occ=2.000000D+00  E=-3.402845D-01  Symmetry=au
              MO Center=  1.7D-14, -3.0D-13,  4.9D-16, r^2= 5.8D+00
   Bfn.  Coefficient  Atom+Function         Bfn.  Coefficient  Atom+Function  
  ----- ------------  ---------------      ----- ------------  ---------------
     9      0.186160  1 C  pz                54      0.185816  2 C  pz         
   137      0.186160  5 C  pz               182      0.185816  6 C  pz         
    58      0.169512  2 C  pz               186      0.169512  6 C  pz         
    13      0.168228  1 C  pz               141      0.168228  5 C  pz         

 Vector   13  Occ=2.000000D+00  E=-3.374020D-01  Symmetry=bg
              MO Center= -1.7D-14,  3.0D-13,  5.6D-16, r^2= 5.9D+00
   Bfn.  Coefficient  Atom+Function         Bfn.  Coefficient  Atom+Function  
  ----- ------------  ---------------      ----- ------------  ---------------
    54      0.189352  2 C  pz               182     -0.189352  6 C  pz         
     9      0.186116  1 C  pz               137     -0.186116  5 C  pz         
    58      0.172407  2 C  pz               186     -0.172407  6 C  pz         
    13      0.170212  1 C  pz               141     -0.170212  5 C  pz         

 Vector   14  Occ=2.000000D+00  E=-3.350169D-01  Symmetry=bu
              MO Center=  1.1D-16, -4.5D-16, -3.3D-16, r^2= 6.0D+00
   Bfn.  Coefficient  Atom+Function         Bfn.  Coefficient  Atom+Function  
  ----- ------------  ---------------      ----- ------------  ---------------
    11      0.166285  1 C  px               139      0.166285  5 C  px         

 Vector   15  Occ=0.000000D+00  E=-9.688963D-02  Symmetry=ag
              MO Center=  1.5D-15,  1.4D-15, -1.2D-15, r^2= 6.8D+00
   Bfn.  Coefficient  Atom+Function         Bfn.  Coefficient  Atom+Function  
  ----- ------------  ---------------      ----- ------------  ---------------
    11      0.248090  1 C  px               139     -0.248090  5 C  px         
    56     -0.243441  2 C  px               184      0.243441  6 C  px         
    12     -0.207510  1 C  py                57      0.206899  2 C  py         
   140      0.207510  5 C  py               185     -0.206899  6 C  py         
    52     -0.152020  2 C  px               180      0.152020  6 C  px         

 Vector   16  Occ=0.000000D+00  E=-8.586994D-02  Symmetry=au
              MO Center=  1.0D-15, -4.9D-14, -1.8D-15, r^2= 6.9D+00
   Bfn.  Coefficient  Atom+Function         Bfn.  Coefficient  Atom+Function  
  ----- ------------  ---------------      ----- ------------  ---------------
    58     -0.347549  2 C  pz               186     -0.347549  6 C  pz         
    13      0.344485  1 C  pz               141      0.344485  5 C  pz         
    54     -0.190560  2 C  pz               182     -0.190560  6 C  pz         
    17      0.187770  1 C  pz               145      0.187770  5 C  pz         
    62     -0.182736  2 C  pz               190     -0.182736  6 C  pz         

 Vector   17  Occ=0.000000D+00  E=-7.660012D-02  Symmetry=bg
              MO Center= -3.5D-15,  4.6D-14, -1.4D-15, r^2= 7.2D+00
   Bfn.  Coefficient  Atom+Function         Bfn.  Coefficient  Atom+Function  
  ----- ------------  ---------------      ----- ------------  ---------------
    13      0.355002  1 C  pz               141     -0.355002  5 C  pz         
    58     -0.344230  2 C  pz               186      0.344230  6 C  pz         
    62     -0.220252  2 C  pz               190      0.220252  6 C  pz         
    17      0.211469  1 C  pz               145     -0.211469  5 C  pz         
     9      0.198043  1 C  pz               137     -0.198043  5 C  pz         

 Vector   18  Occ=0.000000D+00  E=-6.717717D-02  Symmetry=bu
              MO Center= -3.7D-16, -9.1D-15,  1.2D-15, r^2= 7.4D+00
   Bfn.  Coefficient  Atom+Function         Bfn.  Coefficient  Atom+Function  
  ----- ------------  ---------------      ----- ------------  ---------------
    11      0.283132  1 C  px               139      0.283132  5 C  px         
    56     -0.275950  2 C  px               184     -0.275950  6 C  px         
    12     -0.257054  1 C  py               140     -0.257054  5 C  py         
    57      0.215159  2 C  py               185      0.215159  6 C  py         
    60     -0.199455  2 C  px               188     -0.199455  6 C  px         

 Vector   19  Occ=0.000000D+00  E=-1.551311D-02  Symmetry=bu
              MO Center= -2.0D-13, -7.8D-14, -2.1D-15, r^2= 1.3D+01
   Bfn.  Coefficient  Atom+Function         Bfn.  Coefficient  Atom+Function  
  ----- ------------  ---------------      ----- ------------  ---------------
   113      1.236710  4 H  s                241     -1.236710  8 H  s          
    94     -0.858774  3 H  s                222      0.858774  7 H  s          
    61     -0.477973  2 C  py               189     -0.477973  6 C  py         
    93     -0.369392  3 H  s                221      0.369392  7 H  s          
    59     -0.367252  2 C  s                187      0.367252  6 C  s          

 Vector   20  Occ=0.000000D+00  E=-1.135246D-02  Symmetry=ag
              MO Center=  2.4D-13,  2.3D-13, -2.5D-17, r^2= 1.2D+01
   Bfn.  Coefficient  Atom+Function         Bfn.  Coefficient  Atom+Function  
  ----- ------------  ---------------      ----- ------------  ---------------
    94      1.929661  3 H  s                222      1.929661  7 H  s          
    14     -1.499213  1 C  s                142     -1.499213  5 C  s          
    59     -1.172327  2 C  s                187     -1.172327  6 C  s          
   113      1.026867  4 H  s                241      1.026867  8 H  s          
    16      0.842895  1 C  py               144     -0.842895  5 C  py         

 Vector   21  Occ=0.000000D+00  E= 1.412634D-04  Symmetry=ag
              MO Center= -2.9D-14, -1.6D-13,  2.3D-16, r^2= 2.3D+01
   Bfn.  Coefficient  Atom+Function         Bfn.  Coefficient  Atom+Function  
  ----- ------------  ---------------      ----- ------------  ---------------
   113      2.251354  4 H  s                241      2.251354  8 H  s          
    59     -1.335533  2 C  s                187     -1.335533  6 C  s          
   112      0.805502  4 H  s                240      0.805502  8 H  s          
    61     -0.771875  2 C  py               189      0.771875  6 C  py         
    60     -0.648501  2 C  px               188      0.648501  6 C  px         

 Vector   22  Occ=0.000000D+00  E= 1.255226D-02  Symmetry=bu
              MO Center= -9.4D-15,  1.1D-13,  6.2D-15, r^2= 2.0D+01
   Bfn.  Coefficient  Atom+Function         Bfn.  Coefficient  Atom+Function  
  ----- ------------  ---------------      ----- ------------  ---------------
   113      2.199807  4 H  s                241     -2.199807  8 H  s          
    59     -1.962689  2 C  s                187      1.962689  6 C  s          
    14     -1.721264  1 C  s                142      1.721264  5 C  s          
    94      1.584742  3 H  s                222     -1.584742  7 H  s          
   112      0.832264  4 H  s                240     -0.832264  8 H  s          

 Vector   23  Occ=0.000000D+00  E= 2.372781D-02  Symmetry=bu
              MO Center= -1.7D-14,  2.5D-14, -5.0D-15, r^2= 1.7D+01
   Bfn.  Coefficient  Atom+Function         Bfn.  Coefficient  Atom+Function  
  ----- ------------  ---------------      ----- ------------  ---------------
    94      3.444059  3 H  s                222     -3.444059  7 H  s          
    14     -2.065938  1 C  s                142      2.065938  5 C  s          
    16      1.758311  1 C  py               144      1.758311  5 C  py         
    59     -1.286961  2 C  s                187      1.286961  6 C  s          
    15      1.174137  1 C  px               143      1.174137  5 C  px         

 Vector   24  Occ=0.000000D+00  E= 4.495974D-02  Symmetry=au
              MO Center= -1.2D-14, -2.3D-14, -3.8D-14, r^2= 1.3D+01
   Bfn.  Coefficient  Atom+Function         Bfn.  Coefficient  Atom+Function  
  ----- ------------  ---------------      ----- ------------  ---------------
    62      0.430667  2 C  pz               190      0.430667  6 C  pz         
    17      0.308651  1 C  pz               145      0.308651  5 C  pz         
    13     -0.201001  1 C  pz               141     -0.201001  5 C  pz         

 Vector   25  Occ=0.000000D+00  E= 4.882106D-02  Symmetry=ag
              MO Center= -2.8D-14, -4.4D-14,  2.4D-14, r^2= 1.3D+01
   Bfn.  Coefficient  Atom+Function         Bfn.  Coefficient  Atom+Function  
  ----- ------------  ---------------      ----- ------------  ---------------
    60      0.809394  2 C  px               188     -0.809394  6 C  px         
    93      0.791588  3 H  s                221      0.791588  7 H  s          
    14     -0.532116  1 C  s                142     -0.532116  5 C  s          
    94      0.384778  3 H  s                222      0.384778  7 H  s          
    10     -0.335947  1 C  s                138     -0.335947  5 C  s          

 Vector   26  Occ=0.000000D+00  E= 6.993675D-02  Symmetry=bu
              MO Center=  4.1D-14,  9.1D-15,  6.0D-16, r^2= 1.7D+01
   Bfn.  Coefficient  Atom+Function         Bfn.  Coefficient  Atom+Function  
  ----- ------------  ---------------      ----- ------------  ---------------
    94      2.421261  3 H  s                222     -2.421261  7 H  s          
   113     -1.563866  4 H  s                241      1.563866  8 H  s          
   112      1.152437  4 H  s                240     -1.152437  8 H  s          
    93     -1.041755  3 H  s                221      1.041755  7 H  s          
    16      0.868066  1 C  py               144      0.868066  5 C  py         

 Vector   27  Occ=0.000000D+00  E= 7.428552D-02  Symmetry=ag
              MO Center= -1.9D-13, -1.3D-14,  1.1D-14, r^2= 1.4D+01
   Bfn.  Coefficient  Atom+Function         Bfn.  Coefficient  Atom+Function  
  ----- ------------  ---------------      ----- ------------  ---------------
    94      2.136640  3 H  s                222      2.136640  7 H  s          
    14     -1.671463  1 C  s                142     -1.671463  5 C  s          
    93      0.977595  3 H  s                221      0.977595  7 H  s          
    59     -0.943026  2 C  s                187     -0.943026  6 C  s          
    61      0.725220  2 C  py               189     -0.725220  6 C  py         

 Vector   28  Occ=0.000000D+00  E= 7.474724D-02  Symmetry=bg
              MO Center= -7.0D-17,  1.8D-14, -1.1D-14, r^2= 1.7D+01
   Bfn.  Coefficient  Atom+Function         Bfn.  Coefficient  Atom+Function  
  ----- ------------  ---------------      ----- ------------  ---------------
    62      0.823669  2 C  pz               190     -0.823669  6 C  pz         
    58     -0.285346  2 C  pz               186      0.285346  6 C  pz         

 Vector   29  Occ=0.000000D+00  E= 8.844254D-02  Symmetry=ag
              MO Center= -2.2D-13, -2.7D-13, -1.1D-14, r^2= 2.2D+01
   Bfn.  Coefficient  Atom+Function         Bfn.  Coefficient  Atom+Function  
  ----- ------------  ---------------      ----- ------------  ---------------
   113      2.927135  4 H  s                241      2.927135  8 H  s          
    93      2.039703  3 H  s                221      2.039703  7 H  s          
    59     -1.375026  2 C  s                187     -1.375026  6 C  s          
    14     -1.256241  1 C  s                142     -1.256241  5 C  s          
    60     -1.062021  2 C  px               188      1.062021  6 C  px         

 Vector   30  Occ=0.000000D+00  E= 1.038827D-01  Symmetry=ag
              MO Center=  6.7D-12, -7.8D-12, -7.2D-16, r^2= 2.4D+01
   Bfn.  Coefficient  Atom+Function         Bfn.  Coefficient  Atom+Function  
  ----- ------------  ---------------      ----- ------------  ---------------
    59      6.722465  2 C  s                187      6.722465  6 C  s          
    14      6.409260  1 C  s                142      6.409260  5 C  s          
   113     -5.610606  4 H  s                241     -5.610606  8 H  s          
    94     -4.991153  3 H  s                222     -4.991153  7 H  s          
    61      3.814089  2 C  py               189     -3.814089  6 C  py         

 Vector   31  Occ=0.000000D+00  E= 1.081608D-01  Symmetry=bu
              MO Center= -3.2D-12,  8.0D-12,  2.3D-15, r^2= 2.0D+01
   Bfn.  Coefficient  Atom+Function         Bfn.  Coefficient  Atom+Function  
  ----- ------------  ---------------      ----- ------------  ---------------
    94      3.515803  3 H  s                222     -3.515803  7 H  s          
    14     -2.216057  1 C  s                142      2.216057  5 C  s          
    16      2.181537  1 C  py               144      2.181537  5 C  py         
    60      1.355773  2 C  px               188      1.355773  6 C  px         
    59     -1.305609  2 C  s                187      1.305609  6 C  s          

 Vector   32  Occ=0.000000D+00  E= 1.083579D-01  Symmetry=bg
              MO Center=  2.5D-14, -6.4D-14,  5.4D-15, r^2= 1.5D+01
   Bfn.  Coefficient  Atom+Function         Bfn.  Coefficient  Atom+Function  
  ----- ------------  ---------------      ----- ------------  ---------------
    17      2.041751  1 C  pz               145     -2.041751  5 C  pz         
    62     -1.505148  2 C  pz               190      1.505148  6 C  pz         
    13     -0.292152  1 C  pz               141      0.292152  5 C  pz         
    79      0.224035  2 C  dyz              207      0.224035  6 C  dyz        
    34      0.206251  1 C  dyz              162      0.206251  5 C  dyz        

 Vector   33  Occ=0.000000D+00  E= 1.182162D-01  Symmetry=bu
              MO Center= -1.2D-12, -1.0D-12,  1.3D-15, r^2= 3.0D+01
   Bfn.  Coefficient  Atom+Function         Bfn.  Coefficient  Atom+Function  
  ----- ------------  ---------------      ----- ------------  ---------------
    59      7.628123  2 C  s                187     -7.628123  6 C  s          
   113     -7.029816  4 H  s                241      7.029816  8 H  s          
    14      6.924674  1 C  s                142     -6.924674  5 C  s          
    94     -5.523438  3 H  s                222      5.523438  7 H  s          
    61      4.014069  2 C  py               189      4.014069  6 C  py         

 Vector   34  Occ=0.000000D+00  E= 1.245734D-01  Symmetry=au
              MO Center= -7.3D-15,  7.0D-14,  1.7D-14, r^2= 1.7D+01
   Bfn.  Coefficient  Atom+Function         Bfn.  Coefficient  Atom+Function  
  ----- ------------  ---------------      ----- ------------  ---------------
    62      1.710966  2 C  pz               190      1.710966  6 C  pz         
    17     -1.529441  1 C  pz               145     -1.529441  5 C  pz         
    58     -0.295995  2 C  pz               186     -0.295995  6 C  pz         
    13      0.230149  1 C  pz               141      0.230149  5 C  pz         
    77     -0.201359  2 C  dxz              205      0.201359  6 C  dxz        

 Vector   35  Occ=0.000000D+00  E= 1.289693D-01  Symmetry=bu
              MO Center= -1.7D-12, -1.8D-12,  5.5D-15, r^2= 1.6D+01
   Bfn.  Coefficient  Atom+Function         Bfn.  Coefficient  Atom+Function  
  ----- ------------  ---------------      ----- ------------  ---------------
    94      3.214050  3 H  s                222     -3.214050  7 H  s          
    15      2.909520  1 C  px               143      2.909520  5 C  px         
    16     -2.167514  1 C  py               144     -2.167514  5 C  py         
    60     -1.396778  2 C  px               188     -1.396778  6 C  px         
    61      0.585493  2 C  py               189      0.585493  6 C  py         

 Vector   36  Occ=0.000000D+00  E= 1.315004D-01  Symmetry=ag
              MO Center=  2.3D-12,  5.0D-12, -1.9D-15, r^2= 1.6D+01
   Bfn.  Coefficient  Atom+Function         Bfn.  Coefficient  Atom+Function  
  ----- ------------  ---------------      ----- ------------  ---------------
   113      3.935336  4 H  s                241      3.935336  8 H  s          
    60     -2.409035  2 C  px                94     -2.406090  3 H  s          
   188      2.409035  6 C  px               222     -2.406090  7 H  s          
    59     -2.249248  2 C  s                187     -2.249248  6 C  s          
   112      2.135585  4 H  s                240      2.135585  8 H  s          

 Vector   37  Occ=0.000000D+00  E= 1.477543D-01  Symmetry=ag
              MO Center= -5.8D-13,  2.7D-13, -1.9D-15, r^2= 1.9D+01
   Bfn.  Coefficient  Atom+Function         Bfn.  Coefficient  Atom+Function  
  ----- ------------  ---------------      ----- ------------  ---------------
    94      5.215141  3 H  s                222      5.215141  7 H  s          
    15      3.046968  1 C  px               143     -3.046968  5 C  px         
    14     -3.000429  1 C  s                142     -3.000429  5 C  s          
   113     -2.008004  4 H  s                241     -2.008004  8 H  s          
    61      1.994558  2 C  py               189     -1.994558  6 C  py         

 Vector   38  Occ=0.000000D+00  E= 1.582791D-01  Symmetry=bu
              MO Center= -2.4D-12, -2.6D-12, -3.3D-15, r^2= 1.8D+01
   Bfn.  Coefficient  Atom+Function         Bfn.  Coefficient  Atom+Function  
  ----- ------------  ---------------      ----- ------------  ---------------
    94      9.990030  3 H  s                222     -9.990030  7 H  s          
    14     -7.388984  1 C  s                142      7.388984  5 C  s          
    16      6.544395  1 C  py               144      6.544395  5 C  py         
    15      3.797763  1 C  px               143      3.797763  5 C  px         
    93      3.546389  3 H  s                221     -3.546389  7 H  s          

 Vector   39  Occ=0.000000D+00  E= 1.926396D-01  Symmetry=au
              MO Center= -2.0D-15,  2.5D-14,  5.9D-15, r^2= 8.2D+00
   Bfn.  Coefficient  Atom+Function         Bfn.  Coefficient  Atom+Function  
  ----- ------------  ---------------      ----- ------------  ---------------
    32      0.650121  1 C  dxz              160     -0.650121  5 C  dxz        
    17     -0.527502  1 C  pz               145     -0.527502  5 C  pz         
    77      0.475423  2 C  dxz              205     -0.475423  6 C  dxz        
    62      0.404976  2 C  pz               190      0.404976  6 C  pz         
    34     -0.400878  1 C  dyz              162      0.400878  5 C  dyz        

 Vector   40  Occ=0.000000D+00  E= 1.973190D-01  Symmetry=ag
              MO Center= -1.5D-13,  1.2D-13, -7.9D-16, r^2= 9.9D+00
   Bfn.  Coefficient  Atom+Function         Bfn.  Coefficient  Atom+Function  
  ----- ------------  ---------------      ----- ------------  ---------------
    14      4.883652  1 C  s                142      4.883652  5 C  s          
    94     -4.414226  3 H  s                222     -4.414226  7 H  s          
    59      3.590570  2 C  s                187      3.590570  6 C  s          
    93     -2.716922  3 H  s                221     -2.716922  7 H  s          
    15     -2.663673  1 C  px               143      2.663673  5 C  px         

 Vector   41  Occ=0.000000D+00  E= 2.002230D-01  Symmetry=bu
              MO Center=  1.3D-12, -6.0D-12,  2.9D-15, r^2= 1.7D+01
   Bfn.  Coefficient  Atom+Function         Bfn.  Coefficient  Atom+Function  
  ----- ------------  ---------------      ----- ------------  ---------------
    14      5.453247  1 C  s                142     -5.453247  5 C  s          
    59      5.179483  2 C  s                187     -5.179483  6 C  s          
    16     -4.436695  1 C  py               144     -4.436695  5 C  py         
    93     -4.385346  3 H  s                221      4.385346  7 H  s          
   113     -4.044411  4 H  s                241      4.044411  8 H  s          

 Vector   42  Occ=0.000000D+00  E= 2.099328D-01  Symmetry=ag
              MO Center= -1.5D-12,  5.8D-12, -1.7D-15, r^2= 1.8D+01
   Bfn.  Coefficient  Atom+Function         Bfn.  Coefficient  Atom+Function  
  ----- ------------  ---------------      ----- ------------  ---------------
    61      5.025186  2 C  py               189     -5.025186  6 C  py         
    59      4.736708  2 C  s                187      4.736708  6 C  s          
    14      4.610484  1 C  s                 16     -4.633424  1 C  py         
   142      4.610484  5 C  s                144      4.633424  5 C  py         
   113     -4.237397  4 H  s                241     -4.237397  8 H  s          

 Vector   43  Occ=0.000000D+00  E= 2.373178D-01  Symmetry=bg
              MO Center= -2.5D-16, -1.3D-14, -8.5D-15, r^2= 9.2D+00
   Bfn.  Coefficient  Atom+Function         Bfn.  Coefficient  Atom+Function  
  ----- ------------  ---------------      ----- ------------  ---------------
    17      0.901825  1 C  pz               145     -0.901825  5 C  pz         
    79     -0.640755  2 C  dyz              207     -0.640755  6 C  dyz        
    62     -0.542179  2 C  pz               190      0.542179  6 C  pz         
    77      0.502436  2 C  dxz              205      0.502436  6 C  dxz        
    34     -0.407539  1 C  dyz              162     -0.407539  5 C  dyz        

 Vector   44  Occ=0.000000D+00  E= 2.677212D-01  Symmetry=bu
              MO Center=  1.8D-13,  1.9D-13,  4.1D-15, r^2= 1.1D+01
   Bfn.  Coefficient  Atom+Function         Bfn.  Coefficient  Atom+Function  
  ----- ------------  ---------------      ----- ------------  ---------------
    59      4.466703  2 C  s                187     -4.466703  6 C  s          
   113     -4.190016  4 H  s                241      4.190016  8 H  s          
   112     -3.782236  4 H  s                240      3.782236  8 H  s          
    14      3.410689  1 C  s                142     -3.410689  5 C  s          
    60      3.377282  2 C  px               188      3.377282  6 C  px         

 Vector   45  Occ=0.000000D+00  E= 2.865729D-01  Symmetry=bg
              MO Center=  1.4D-14, -1.7D-13,  1.9D-14, r^2= 9.6D+00
   Bfn.  Coefficient  Atom+Function         Bfn.  Coefficient  Atom+Function  
  ----- ------------  ---------------      ----- ------------  ---------------
    77      0.507311  2 C  dxz              205      0.507311  6 C  dxz        
   122      0.449928  4 H  pz               250     -0.449928  8 H  pz         
   103      0.424468  3 H  pz               231     -0.424468  7 H  pz         
    34     -0.253554  1 C  dyz              162     -0.253554  5 C  dyz        
    32     -0.222839  1 C  dxz              160     -0.222839  5 C  dxz        

 Vector   46  Occ=0.000000D+00  E= 2.928054D-01  Symmetry=bu
              MO Center= -4.5D-11, -1.7D-10, -1.8D-14, r^2= 1.9D+01
   Bfn.  Coefficient  Atom+Function         Bfn.  Coefficient  Atom+Function  
  ----- ------------  ---------------      ----- ------------  ---------------
   112      8.333629  4 H  s                240     -8.333629  8 H  s          
    59     -6.866956  2 C  s                187      6.866956  6 C  s          
   113      4.813802  4 H  s                241     -4.813802  8 H  s          
    14     -4.356489  1 C  s                142      4.356489  5 C  s          
    61     -4.071290  2 C  py               189     -4.071290  6 C  py         

 Vector   47  Occ=0.000000D+00  E= 2.932227D-01  Symmetry=ag
              MO Center=  4.1D-11,  1.5D-10, -5.5D-16, r^2= 1.5D+01
   Bfn.  Coefficient  Atom+Function         Bfn.  Coefficient  Atom+Function  
  ----- ------------  ---------------      ----- ------------  ---------------
    93      6.202997  3 H  s                221      6.202997  7 H  s          
   112     -4.540730  4 H  s                240     -4.540730  8 H  s          
    12      2.564228  1 C  py               140     -2.564228  5 C  py         
    14     -2.018240  1 C  s                142     -2.018240  5 C  s          
    57      1.967159  2 C  py               185     -1.967159  6 C  py         

 Vector   48  Occ=0.000000D+00  E= 2.970377D-01  Symmetry=au
              MO Center= -1.4D-14,  1.7D-13,  5.2D-16, r^2= 9.9D+00
   Bfn.  Coefficient  Atom+Function         Bfn.  Coefficient  Atom+Function  
  ----- ------------  ---------------      ----- ------------  ---------------
    79     -0.473187  2 C  dyz              207      0.473187  6 C  dyz        
    34      0.462499  1 C  dyz              162     -0.462499  5 C  dyz        
   122     -0.417338  4 H  pz               250     -0.417338  8 H  pz         
    62      0.359183  2 C  pz               190      0.359183  6 C  pz         
    32      0.327165  1 C  dxz              160     -0.327165  5 C  dxz        

 Vector   49  Occ=0.000000D+00  E= 3.091732D-01  Symmetry=ag
              MO Center=  5.0D-12,  1.3D-11, -1.7D-15, r^2= 1.7D+01
   Bfn.  Coefficient  Atom+Function         Bfn.  Coefficient  Atom+Function  
  ----- ------------  ---------------      ----- ------------  ---------------
    59      7.207381  2 C  s                187      7.207381  6 C  s          
   112     -6.901564  4 H  s                240     -6.901564  8 H  s          
    14      5.918518  1 C  s                142      5.918518  5 C  s          
   113     -5.734340  4 H  s                241     -5.734340  8 H  s          
    61      5.139226  2 C  py               189     -5.139226  6 C  py         

 Vector   50  Occ=0.000000D+00  E= 3.219624D-01  Symmetry=ag
              MO Center= -2.6D-12,  6.4D-12,  3.5D-16, r^2= 1.2D+01
   Bfn.  Coefficient  Atom+Function         Bfn.  Coefficient  Atom+Function  
  ----- ------------  ---------------      ----- ------------  ---------------
    14      7.408849  1 C  s                142      7.408849  5 C  s          
    94     -6.121269  3 H  s                222     -6.121269  7 H  s          
    59      5.758955  2 C  s                187      5.758955  6 C  s          
    93     -4.846357  3 H  s                221     -4.846357  7 H  s          
    16     -3.512026  1 C  py               144      3.512026  5 C  py         

 Vector   51  Occ=0.000000D+00  E= 3.336079D-01  Symmetry=bu
              MO Center=  6.0D-13, -3.7D-12,  1.6D-15, r^2= 1.2D+01
   Bfn.  Coefficient  Atom+Function         Bfn.  Coefficient  Atom+Function  
  ----- ------------  ---------------      ----- ------------  ---------------
    14      8.767548  1 C  s                142     -8.767548  5 C  s          
    93     -8.465175  3 H  s                221      8.465175  7 H  s          
    16     -7.006537  1 C  py               144     -7.006537  5 C  py         
    94     -6.570712  3 H  s                222      6.570712  7 H  s          
    59      5.459849  2 C  s                187     -5.459849  6 C  s          

 Vector   52  Occ=0.000000D+00  E= 3.400750D-01  Symmetry=bu
              MO Center=  1.2D-12,  1.7D-12,  2.4D-15, r^2= 1.3D+01
   Bfn.  Coefficient  Atom+Function         Bfn.  Coefficient  Atom+Function  
  ----- ------------  ---------------      ----- ------------  ---------------
    93      6.209756  3 H  s                221     -6.209756  7 H  s          
    14     -4.250904  1 C  s                142      4.250904  5 C  s          
    94      4.027080  3 H  s                222     -4.027080  7 H  s          
    15      2.841966  1 C  px               143      2.841966  5 C  px         
    10     -2.112712  1 C  s                 12      2.107230  1 C  py         

 Vector   53  Occ=0.000000D+00  E= 3.706852D-01  Symmetry=au
              MO Center= -7.3D-16,  1.6D-14,  8.4D-17, r^2= 9.1D+00
   Bfn.  Coefficient  Atom+Function         Bfn.  Coefficient  Atom+Function  
  ----- ------------  ---------------      ----- ------------  ---------------
    77      1.076034  2 C  dxz              205     -1.076034  6 C  dxz        
    34      0.917895  1 C  dyz              162     -0.917895  5 C  dyz        
    79     -0.874771  2 C  dyz              207      0.874771  6 C  dyz        
    32     -0.837800  1 C  dxz              160      0.837800  5 C  dxz        
   122      0.345218  4 H  pz               250      0.345218  8 H  pz         

 Vector   54  Occ=0.000000D+00  E= 3.956040D-01  Symmetry=ag
              MO Center=  2.3D-13, -2.4D-13, -1.9D-15, r^2= 1.1D+01
   Bfn.  Coefficient  Atom+Function         Bfn.  Coefficient  Atom+Function  
  ----- ------------  ---------------      ----- ------------  ---------------
    93      4.337721  3 H  s                221      4.337721  7 H  s          
    14     -2.706986  1 C  s                142     -2.706986  5 C  s          
    59     -2.055968  2 C  s                187     -2.055968  6 C  s          
   113      1.624797  4 H  s                241      1.624797  8 H  s          
    60     -1.467225  2 C  px               188      1.467225  6 C  px         

 Vector   55  Occ=0.000000D+00  E= 4.271296D-01  Symmetry=bu
              MO Center= -2.2D-13,  5.6D-14, -2.8D-16, r^2= 1.1D+01
   Bfn.  Coefficient  Atom+Function         Bfn.  Coefficient  Atom+Function  
  ----- ------------  ---------------      ----- ------------  ---------------
    94     -3.922701  3 H  s                222      3.922701  7 H  s          
    16     -3.895804  1 C  py               144     -3.895804  5 C  py         
    14      3.667209  1 C  s                142     -3.667209  5 C  s          
    60     -2.060077  2 C  px               188     -2.060077  6 C  px         
   112      1.711100  4 H  s                240     -1.711100  8 H  s          

 Vector   56  Occ=0.000000D+00  E= 4.275521D-01  Symmetry=ag
              MO Center= -3.0D-14,  5.3D-14,  1.7D-16, r^2= 1.2D+01
   Bfn.  Coefficient  Atom+Function         Bfn.  Coefficient  Atom+Function  
  ----- ------------  ---------------      ----- ------------  ---------------
    94      3.708589  3 H  s                222      3.708589  7 H  s          
    14     -2.480950  1 C  s                142     -2.480950  5 C  s          
    15      1.902555  1 C  px               143     -1.902555  5 C  px         
    16      1.598574  1 C  py               144     -1.598574  5 C  py         
   113     -1.400748  4 H  s                241     -1.400748  8 H  s          

 Vector   57  Occ=0.000000D+00  E= 4.304882D-01  Symmetry=bg
              MO Center= -4.0D-16,  1.7D-15, -1.4D-15, r^2= 1.1D+01
   Bfn.  Coefficient  Atom+Function         Bfn.  Coefficient  Atom+Function  
  ----- ------------  ---------------      ----- ------------  ---------------
   103     -0.867964  3 H  pz               231      0.867964  7 H  pz         
    62     -0.830944  2 C  pz               190      0.830944  6 C  pz         
    13      0.817073  1 C  pz               141     -0.817073  5 C  pz         
    34     -0.687897  1 C  dyz              162     -0.687897  5 C  dyz        
    79      0.516274  2 C  dyz              207      0.516274  6 C  dyz        

 Vector   58  Occ=0.000000D+00  E= 4.364581D-01  Symmetry=bu
              MO Center= -4.2D-14, -7.6D-14, -1.7D-16, r^2= 1.3D+01
   Bfn.  Coefficient  Atom+Function         Bfn.  Coefficient  Atom+Function  
  ----- ------------  ---------------      ----- ------------  ---------------
   113      2.008955  4 H  s                241     -2.008955  8 H  s          
    94      1.796451  3 H  s                222     -1.796451  7 H  s          
    61     -1.542281  2 C  py               189     -1.542281  6 C  py         
    59     -1.324041  2 C  s                187      1.324041  6 C  s          
    33     -1.254975  1 C  dyy              161      1.254975  5 C  dyy        

 Vector   59  Occ=0.000000D+00  E= 4.368323D-01  Symmetry=au
              MO Center=  4.2D-14, -3.1D-13,  1.2D-15, r^2= 9.3D+00
   Bfn.  Coefficient  Atom+Function         Bfn.  Coefficient  Atom+Function  
  ----- ------------  ---------------      ----- ------------  ---------------
    13      1.162618  1 C  pz               141      1.162618  5 C  pz         
    77      0.898087  2 C  dxz              205     -0.898087  6 C  dxz        
    58      0.819025  2 C  pz               186      0.819025  6 C  pz         
   122     -0.739885  4 H  pz               250     -0.739885  8 H  pz         
    79      0.505912  2 C  dyz              207     -0.505912  6 C  dyz        

 Vector   60  Occ=0.000000D+00  E= 4.449207D-01  Symmetry=bg
              MO Center= -1.5D-14,  2.3D-13, -6.9D-16, r^2= 1.0D+01
   Bfn.  Coefficient  Atom+Function         Bfn.  Coefficient  Atom+Function  
  ----- ------------  ---------------      ----- ------------  ---------------
    58      1.216744  2 C  pz               186     -1.216744  6 C  pz         
    32     -1.092649  1 C  dxz              160     -1.092649  5 C  dxz        
    17     -1.077565  1 C  pz               145      1.077565  5 C  pz         
   122     -0.776523  4 H  pz               250      0.776523  8 H  pz         
    13      0.624092  1 C  pz               141     -0.624092  5 C  pz         

 Vector   61  Occ=0.000000D+00  E= 4.520934D-01  Symmetry=au
              MO Center= -2.1D-14,  8.2D-14, -4.4D-15, r^2= 1.0D+01
   Bfn.  Coefficient  Atom+Function         Bfn.  Coefficient  Atom+Function  
  ----- ------------  ---------------      ----- ------------  ---------------
   103      0.941946  3 H  pz               231      0.941946  7 H  pz         
    62      0.932048  2 C  pz               190      0.932048  6 C  pz         
    17     -0.828361  1 C  pz               145     -0.828361  5 C  pz         
   122     -0.718523  4 H  pz               250     -0.718523  8 H  pz         
    34      0.437699  1 C  dyz              162     -0.437699  5 C  dyz        

 Vector   62  Occ=0.000000D+00  E= 4.560283D-01  Symmetry=bu
              MO Center= -7.2D-14, -2.0D-13, -8.9D-16, r^2= 1.6D+01
   Bfn.  Coefficient  Atom+Function         Bfn.  Coefficient  Atom+Function  
  ----- ------------  ---------------      ----- ------------  ---------------
    94      4.803262  3 H  s                222     -4.803262  7 H  s          
   112      4.182051  4 H  s                240     -4.182051  8 H  s          
    15      3.135227  1 C  px               143      3.135227  5 C  px         
    78     -2.480447  2 C  dyy              206      2.480447  6 C  dyy        
    14     -2.416751  1 C  s                142      2.416751  5 C  s          

 Vector   63  Occ=0.000000D+00  E= 4.691311D-01  Symmetry=ag
              MO Center= -5.2D-14,  5.8D-14,  2.9D-15, r^2= 1.1D+01
   Bfn.  Coefficient  Atom+Function         Bfn.  Coefficient  Atom+Function  
  ----- ------------  ---------------      ----- ------------  ---------------
    16      1.590566  1 C  py               144     -1.590566  5 C  py         
    93      1.123410  3 H  s                221      1.123410  7 H  s          
    61     -1.109633  2 C  py               189      1.109633  6 C  py         
   112      1.044501  4 H  s                240      1.044501  8 H  s          
    76     -0.876872  2 C  dxy              204     -0.876872  6 C  dxy        

 Vector   64  Occ=0.000000D+00  E= 4.758207D-01  Symmetry=bg
              MO Center=  3.2D-16, -9.1D-15, -6.5D-16, r^2= 8.2D+00
   Bfn.  Coefficient  Atom+Function         Bfn.  Coefficient  Atom+Function  
  ----- ------------  ---------------      ----- ------------  ---------------
    32      1.357497  1 C  dxz              160      1.357497  5 C  dxz        
    79      1.166847  2 C  dyz              207      1.166847  6 C  dyz        
    34     -0.708289  1 C  dyz              162     -0.708289  5 C  dyz        
   122     -0.592405  4 H  pz               250      0.592405  8 H  pz         
   103      0.585921  3 H  pz               231     -0.585921  7 H  pz         

 Vector   65  Occ=0.000000D+00  E= 4.864142D-01  Symmetry=ag
              MO Center=  3.2D-15,  9.3D-12,  2.0D-15, r^2= 1.8D+01
   Bfn.  Coefficient  Atom+Function         Bfn.  Coefficient  Atom+Function  
  ----- ------------  ---------------      ----- ------------  ---------------
   112      7.321952  4 H  s                240      7.321952  8 H  s          
    93      5.590976  3 H  s                221      5.590976  7 H  s          
    14     -5.285787  1 C  s                142     -5.285787  5 C  s          
    94      4.748715  3 H  s                222      4.748715  7 H  s          
    16      4.249176  1 C  py               144     -4.249176  5 C  py         

 Vector   66  Occ=0.000000D+00  E= 4.989052D-01  Symmetry=bu
              MO Center= -2.9D-13, -7.6D-12,  1.5D-16, r^2= 1.3D+01
   Bfn.  Coefficient  Atom+Function         Bfn.  Coefficient  Atom+Function  
  ----- ------------  ---------------      ----- ------------  ---------------
    93      8.407848  3 H  s                221     -8.407848  7 H  s          
   112      7.141664  4 H  s                240     -7.141664  8 H  s          
    59     -5.295642  2 C  s                187      5.295642  6 C  s          
    14     -4.973335  1 C  s                142      4.973335  5 C  s          
    61     -4.310353  2 C  py               189     -4.310353  6 C  py         

 Vector   67  Occ=0.000000D+00  E= 5.363254D-01  Symmetry=ag
              MO Center= -1.5D-13,  3.1D-13, -1.1D-15, r^2= 9.4D+00
   Bfn.  Coefficient  Atom+Function         Bfn.  Coefficient  Atom+Function  
  ----- ------------  ---------------      ----- ------------  ---------------
    31      2.852707  1 C  dxy              159      2.852707  5 C  dxy        
    76      2.696326  2 C  dxy              204      2.696326  6 C  dxy        
    30      2.323039  1 C  dxx              158      2.323039  5 C  dxx        
    75      1.964064  2 C  dxx              203      1.964064  6 C  dxx        
    93     -1.863174  3 H  s                221     -1.863174  7 H  s          


 center of mass
 --------------
 x =   0.00000000 y =   0.00000000 z =   0.00000000

 moments of inertia (a.u.)
 ------------------
         893.164860396322           0.000000000000           0.000000000000
           0.000000000000          44.551784949502           0.000000000000
           0.000000000000           0.000000000000         937.716645345825

     Multipole analysis of the density
     ---------------------------------

     L   x y z        total         alpha         beta         nuclear
     -   - - -        -----         -----         ----         -------
     0   0 0 0     -0.000000    -14.000000    -14.000000     28.000000

     1   1 0 0     -0.000000     -0.000000     -0.000000      0.000000
     1   0 1 0     -0.000000     -0.000000     -0.000000      0.000000
     1   0 0 1      0.000000      0.000000      0.000000      0.000000

     2   2 0 0    -16.937546    -23.621760    -23.621760     30.305974
     2   1 1 0      4.929790     -1.428945     -1.428945      7.787680
     2   1 0 1      0.000000      0.000000      0.000000      0.000000
     2   0 2 0    -14.642369   -252.385329   -252.385329    490.128288
     2   0 1 1      0.000000      0.000000      0.000000      0.000000
     2   0 0 2    -21.391561    -10.695781    -10.695781      0.000000


 Parallel integral file used    2543 records with       0 large values


 Task  times  cpu:       15.6s     wall:       16.9s


                                NWChem Input Module
                                -------------------


 Summary of allocated global arrays
-----------------------------------
  No active global arrays



                         GA Statistics for process    0
                         ------------------------------

       create   destroy   get      put      acc     scatter   gather  read&inc
calls:  325      325     8408     2906     3888        0        0      393     
number of processes/call 1.85e+00 1.55e+00 1.68e+00 0.00e+00 0.00e+00
bytes total:             2.37e+08 2.95e+07 1.22e+08 0.00e+00 0.00e+00 3.14e+03
bytes remote:            2.04e+08 1.57e+07 1.09e+08 0.00e+00 0.00e+00 0.00e+00
Max memory consumed for GA by this process: 2332800 bytes

MA_summarize_allocated_blocks: starting scan ...
MA_summarize_allocated_blocks: scan completed: 0 heap blocks, 0 stack blocks
MA usage statistics:

	allocation statistics:
					      heap	     stack
					      ----	     -----
	current number of blocks	         0	         0
	maximum number of blocks	        24	        55
	current total bytes		         0	         0
	maximum total bytes		  89896736	  32293992
	maximum total K-bytes		     89897	     32294
	maximum total M-bytes		        90	        33


                                     CITATION
                                     --------
                Please cite the following reference when publishing
                           results obtained with NWChem:

                 M. Valiev, E.J. Bylaska, N. Govind, K. Kowalski,
              T.P. Straatsma, H.J.J. van Dam, D. Wang, J. Nieplocha,
                        E. Apra, T.L. Windus, W.A. de Jong
                 "NWChem: a comprehensive and scalable open-source
                  solution for large scale molecular simulations"
                      Comput. Phys. Commun. 181, 1477 (2010)
                           doi:10.1016/j.cpc.2010.04.018

                                      AUTHORS
                                      -------
          E. Apra, E. J. Bylaska, W. A. de Jong, N. Govind, K. Kowalski,
       T. P. Straatsma, M. Valiev, H. J. J. van Dam, D. Wang, T. L. Windus,
        J. Hammond, J. Autschbach, K. Bhaskaran-Nair, J. Brabec, K. Lopata,
       S. A. Fischer, S. Krishnamoorthy, W. Ma, M. Klemm, O. Villa, Y. Chen,
    V. Anisimov, F. Aquino, S. Hirata, M. T. Hackler, T. Risthaus, M. Malagoli,
       A. Marenich, A. Otero-de-la-Roza, J. Mullin, P. Nichols, R. Peverati,
     J. Pittner, Y. Zhao, P.-D. Fan, A. Fonari, M. Williamson, R. J. Harrison,
       J. R. Rehr, M. Dupuis, D. Silverstein, D. M. A. Smith, J. Nieplocha,
        V. Tipparaju, M. Krishnan, B. E. Van Kuiken, A. Vazquez-Mayagoitia,
        L. Jensen, M. Swart, Q. Wu, T. Van Voorhis, A. A. Auer, M. Nooijen,
      L. D. Crosby, E. Brown, G. Cisneros, G. I. Fann, H. Fruchtl, J. Garza,
        K. Hirao, R. A. Kendall, J. A. Nichols, K. Tsemekhman, K. Wolinski,
     J. Anchell, D. E. Bernholdt, P. Borowski, T. Clark, D. Clerc, H. Dachsel,
   M. J. O. Deegan, K. Dyall, D. Elwood, E. Glendening, M. Gutowski, A. C. Hess,
         J. Jaffe, B. G. Johnson, J. Ju, R. Kobayashi, R. Kutteh, Z. Lin,
   R. Littlefield, X. Long, B. Meng, T. Nakajima, S. Niu, L. Pollack, M. Rosing,
   K. Glaesemann, G. Sandrone, M. Stave, H. Taylor, G. Thomas, J. H. van Lenthe,
                               A. T. Wong, Z. Zhang.

 Total times  cpu:       15.7s     wall:       17.6s
