[1537765169.066527] [r8n4:2593 :0]         sys.c:744  MXM  WARN  Conflicting CPU frequencies detected, using: 2297.75
[1537765169.067567] [r8n4:2595 :0]         sys.c:744  MXM  WARN  Conflicting CPU frequencies detected, using: 2297.75
[1537765169.067859] [r8n4:2599 :0]         sys.c:744  MXM  WARN  Conflicting CPU frequencies detected, using: 2297.75
[1537765169.068219] [r8n4:2597 :0]         sys.c:744  MXM  WARN  Conflicting CPU frequencies detected, using: 2297.75
[1537765169.068536] [r8n4:2594 :0]         sys.c:744  MXM  WARN  Conflicting CPU frequencies detected, using: 2297.75
[1537765169.068900] [r8n4:2598 :0]         sys.c:744  MXM  WARN  Conflicting CPU frequencies detected, using: 2297.75
[1537765169.068926] [r8n4:2596 :0]         sys.c:744  MXM  WARN  Conflicting CPU frequencies detected, using: 2297.75
[1537765169.075585] [r8n4:2600 :0]         sys.c:744  MXM  WARN  Conflicting CPU frequencies detected, using: 2297.75
[1537765169.093268] [r8n4:2604 :0]         sys.c:744  MXM  WARN  Conflicting CPU frequencies detected, using: 2297.75
[1537765169.093507] [r8n4:2602 :0]         sys.c:744  MXM  WARN  Conflicting CPU frequencies detected, using: 2297.75
[1537765169.136288] [r8n4:2612 :0]         sys.c:744  MXM  WARN  Conflicting CPU frequencies detected, using: 2297.75
[1537765169.145267] [r8n4:2615 :0]         sys.c:744  MXM  WARN  Conflicting CPU frequencies detected, using: 2297.75
[1537765169.145414] [r8n4:2614 :0]         sys.c:744  MXM  WARN  Conflicting CPU frequencies detected, using: 2297.75
[1537765169.145422] [r8n4:2613 :0]         sys.c:744  MXM  WARN  Conflicting CPU frequencies detected, using: 2297.75
[1537765169.145499] [r8n4:2618 :0]         sys.c:744  MXM  WARN  Conflicting CPU frequencies detected, using: 2297.75
[1537765169.145983] [r8n4:2616 :0]         sys.c:744  MXM  WARN  Conflicting CPU frequencies detected, using: 2297.75
 argument  1 = /storage/home/bikashp/nwchem_run/rabeet/hb6/nwhb6/HCOOH-HCOOH.nw
                                         
                                         


              Northwest Computational Chemistry Package (NWChem) 6.6
              ------------------------------------------------------


                    Environmental Molecular Sciences Laboratory
                       Pacific Northwest National Laboratory
                                Richland, WA 99352

                              Copyright (c) 1994-2015
                       Pacific Northwest National Laboratory
                            Battelle Memorial Institute

             NWChem is an open-source computational chemistry package
                        distributed under the terms of the
                      Educational Community License (ECL) 2.0
             A copy of the license is included with this distribution
                              in the LICENSE.TXT file

                                  ACKNOWLEDGMENT
                                  --------------

            This software and its documentation were developed at the
            EMSL at Pacific Northwest National Laboratory, a multiprogram
            national laboratory, operated for the U.S. Department of Energy
            by Battelle under Contract Number DE-AC05-76RL01830. Support
            for this work was provided by the Department of Energy Office
            of Biological and Environmental Research, Office of Basic
            Energy Sciences, and the Office of Advanced Scientific Computing.


           Job information
           ---------------

    hostname        = r8n4.niserhpc.org
    program         = /home/bikashp/Code/nwchem-6.6_tpssloc/bin/LINUX64/nwchem
    date            = Mon Sep 24 10:29:31 2018

    compiled        = Tue_Sep_18_16:24:59_2018
    source          = /home/bikashp/Code/nwchem-6.6_tpssloc
    nwchem branch   = 6.6
    nwchem revision = 27746
    ga revision     = 10594
    input           = /storage/home/bikashp/nwchem_run/rabeet/hb6/nwhb6/HCOOH-HCOOH.nw
    prefix          = HCOOH-HCOOH.
    data base       = ./HCOOH-HCOOH.db
    status          = startup
    nproc           =       16
    time left       =     -1s



           Memory information
           ------------------

    heap     =   13107196 doubles =    100.0 Mbytes
    stack    =   13107201 doubles =    100.0 Mbytes
    global   =   26214400 doubles =    200.0 Mbytes (distinct from heap & stack)
    total    =   52428797 doubles =    400.0 Mbytes
    verify   = yes
    hardfail = no 


           Directory information
           ---------------------

  0 permanent = .
  0 scratch   = .




                                NWChem Input Module
                                -------------------



 Scaling coordinates for geometry "geometry" by  1.889725989
 (inverse scale =  0.529177249)

 C2H symmetry detected

          ------
          auto-z
          ------
  autoz: The atoms group into disjoint clusters
 cluster   1:    1    2    3    4    5    6
 cluster   2:    7    8    9   10   11   12
 Connecting clusters   1   2 via atoms    1   11 r = 1.86
  autoz: regenerating connections with new bonds


                             Geometry "geometry" -> ""
                             -------------------------

 Output coordinates in angstroms (scale by  1.889725989 to convert to a.u.)

  No.       Tag          Charge          X              Y              Z
 ---- ---------------- ---------- -------------- -------------- --------------
    1 O                    8.0000    -1.13231314     1.45209686     0.00000000
    2 C                    6.0000    -0.04944419     2.03128684     0.00000000
    3 H                    1.0000     0.00527464     3.13019549     0.00000000
    4 N                    7.0000     1.14976845     1.42894026     0.00000000
    5 H                    1.0000     1.22019123     0.40914488     0.00000000
    6 H                    1.0000     1.98354370     1.99011906     0.00000000
    7 O                    8.0000     1.13231314    -1.45209686     0.00000000
    8 C                    6.0000     0.04944419    -2.03128684     0.00000000
    9 H                    1.0000    -0.00527464    -3.13019549     0.00000000
   10 N                    7.0000    -1.14976845    -1.42894026     0.00000000
   11 H                    1.0000    -1.22019123    -0.40914488     0.00000000
   12 H                    1.0000    -1.98354370    -1.99011906     0.00000000

      Atomic Mass 
      ----------- 

      O                 15.994910
      C                 12.000000
      H                  1.007825
      N                 14.003070


 Effective nuclear repulsion energy (a.u.)     230.3044716713

            Nuclear Dipole moment (a.u.) 
            ----------------------------
        X                 Y               Z
 ---------------- ---------------- ----------------
    -0.0000000000    -0.0000000000     0.0000000000

      Symmetry information
      --------------------

 Group name             C2h       
 Group number             21
 Group order               4
 No. of unique centers     6

      Symmetry unique atoms

     1    2    3    4    5    6



                                Z-matrix (autoz)
                                -------- 

 Units are Angstrom for bonds and degrees for angles

      Type          Name      I     J     K     L     M      Value
      ----------- --------  ----- ----- ----- ----- ----- ----------
    1 Stretch                  1    11                       1.86332
    2 Stretch                  1     2                       1.22803
    3 Stretch                  2     3                       1.10027
    4 Stretch                  2     4                       1.34199
    5 Stretch                  4     5                       1.02222
    6 Stretch                  4     6                       1.00504
    7 Stretch                  7     8                       1.22803
    8 Stretch                  8     9                       1.10027
    9 Stretch                  8    10                       1.34199
   10 Stretch                 10    11                       1.02222
   11 Stretch                 10    12                       1.00504
   12 Bend                     1    11    10               173.34647
   13 Bend                     1     2     3               120.99144
   14 Bend                     1     2     4               125.18949
   15 Bend                     2     1    11               120.84402
   16 Bend                     2     4     5               120.62003
   17 Bend                     2     4     6               119.38748
   18 Bend                     3     2     4               113.81907
   19 Bend                     5     4     6               119.99249
   20 Bend                     7     8     9               120.99144
   21 Bend                     7     8    10               125.18949
   22 Bend                     8    10    11               120.62003
   23 Bend                     8    10    12               119.38748
   24 Bend                     9     8    10               113.81907
   25 Bend                    11    10    12               119.99249
   26 Torsion                  1    11    10     8           0.00000
   27 Torsion                  1    11    10    12         180.00000
   28 Torsion                  1     2     4     5           0.00000
   29 Torsion                  1     2     4     6         180.00000
   30 Torsion                  2     1    11    10           0.00000
   31 Torsion                  3     2     1    11         180.00000
   32 Torsion                  3     2     4     5         180.00000
   33 Torsion                  3     2     4     6           0.00000
   34 Torsion                  4     2     1    11           0.00000
   35 Torsion                  7     8    10    11          -0.00000
   36 Torsion                  7     8    10    12         180.00000
   37 Torsion                  9     8    10    11         180.00000
   38 Torsion                  9     8    10    12           0.00000


            XYZ format geometry
            -------------------
    12
 geometry
 O                    -1.13231314     1.45209686     0.00000000
 C                    -0.04944419     2.03128684     0.00000000
 H                     0.00527464     3.13019549     0.00000000
 N                     1.14976845     1.42894026     0.00000000
 H                     1.22019123     0.40914488     0.00000000
 H                     1.98354370     1.99011906     0.00000000
 O                     1.13231314    -1.45209686     0.00000000
 C                     0.04944419    -2.03128684     0.00000000
 H                    -0.00527464    -3.13019549     0.00000000
 N                    -1.14976845    -1.42894026     0.00000000
 H                    -1.22019123    -0.40914488     0.00000000
 H                    -1.98354370    -1.99011906     0.00000000

 ==============================================================================
                                internuclear distances
 ------------------------------------------------------------------------------
       center one      |      center two      | atomic units |  angstroms
 ------------------------------------------------------------------------------
    2 C                |   1 O                |     2.32065  |     1.22803
    3 H                |   2 C                |     2.07921  |     1.10027
    4 N                |   2 C                |     2.53599  |     1.34199
    5 H                |   4 N                |     1.93172  |     1.02222
    6 H                |   4 N                |     1.89925  |     1.00504
    8 C                |   7 O                |     2.32065  |     1.22803
    9 H                |   8 C                |     2.07921  |     1.10027
   10 N                |   8 C                |     2.53599  |     1.34199
   11 H                |  10 N                |     1.93172  |     1.02222
   12 H                |  10 N                |     1.89925  |     1.00504
 ------------------------------------------------------------------------------
                         number of included internuclear distances:         10
 ==============================================================================



 ==============================================================================
                                 internuclear angles
 ------------------------------------------------------------------------------
        center 1       |       center 2       |       center 3       |  degrees
 ------------------------------------------------------------------------------
    1 O                |   2 C                |   3 H                |   120.99
    1 O                |   2 C                |   4 N                |   125.19
    3 H                |   2 C                |   4 N                |   113.82
    2 C                |   4 N                |   5 H                |   120.62
    2 C                |   4 N                |   6 H                |   119.39
    5 H                |   4 N                |   6 H                |   119.99
    7 O                |   8 C                |   9 H                |   120.99
    7 O                |   8 C                |  10 N                |   125.19
    9 H                |   8 C                |  10 N                |   113.82
    8 C                |  10 N                |  11 H                |   120.62
    8 C                |  10 N                |  12 H                |   119.39
   11 H                |  10 N                |  12 H                |   119.99
 ------------------------------------------------------------------------------
                            number of included internuclear angles:         12
 ==============================================================================





 Summary of "ao basis" -> "" (cartesian)
 ------------------------------------------------------------------------------
       Tag                 Description            Shells   Functions and Types
 ---------------- ------------------------------  ------  ---------------------
 *                     6-311++G(3df,3pd)              on all atoms 



                                 NWChem DFT Module
                                 -----------------


                      Basis "ao basis" -> "ao basis" (cartesian)
                      -----
  O (Oxygen)
  ----------
            Exponent  Coefficients 
       -------------- ---------------------------------------------------------
  1 S  8.58850000E+03  0.001895
  1 S  1.29723000E+03  0.014386
  1 S  2.99296000E+02  0.070732
  1 S  8.73771000E+01  0.240001
  1 S  2.56789000E+01  0.594797
  1 S  3.74004000E+00  0.280802

  2 S  4.21175000E+01  0.113889
  2 S  9.62837000E+00  0.920811
  2 S  2.85332000E+00 -0.003274

  3 P  4.21175000E+01  0.036511
  3 P  9.62837000E+00  0.237153
  3 P  2.85332000E+00  0.819702

  4 S  9.05661000E-01  1.000000

  5 P  9.05661000E-01  1.000000

  6 S  2.55611000E-01  1.000000

  7 P  2.55611000E-01  1.000000

  8 S  8.45000000E-02  1.000000

  9 P  8.45000000E-02  1.000000

 10 D  5.16000000E+00  1.000000

 11 D  1.29200000E+00  1.000000

 12 D  3.22500000E-01  1.000000

 13 F  1.40000000E+00  1.000000

  C (Carbon)
  ----------
            Exponent  Coefficients 
       -------------- ---------------------------------------------------------
  1 S  4.56324000E+03  0.001967
  1 S  6.82024000E+02  0.015231
  1 S  1.54973000E+02  0.076127
  1 S  4.44553000E+01  0.260801
  1 S  1.30290000E+01  0.616462
  1 S  1.82773000E+00  0.221006

  2 S  2.09642000E+01  0.114660
  2 S  4.80331000E+00  0.919999
  2 S  1.45933000E+00 -0.003031

  3 P  2.09642000E+01  0.040249
  3 P  4.80331000E+00  0.237594
  3 P  1.45933000E+00  0.815854

  4 S  4.83456000E-01  1.000000

  5 P  4.83456000E-01  1.000000

  6 S  1.45585000E-01  1.000000

  7 P  1.45585000E-01  1.000000

  8 S  4.38000000E-02  1.000000

  9 P  4.38000000E-02  1.000000

 10 D  2.50400000E+00  1.000000

 11 D  6.26000000E-01  1.000000

 12 D  1.56500000E-01  1.000000

 13 F  8.00000000E-01  1.000000

  H (Hydrogen)
  ------------
            Exponent  Coefficients 
       -------------- ---------------------------------------------------------
  1 S  3.38650000E+01  0.025494
  1 S  5.09479000E+00  0.190373
  1 S  1.15879000E+00  0.852161

  2 S  3.25840000E-01  1.000000

  3 S  1.02741000E-01  1.000000

  4 S  3.60000000E-02  1.000000

  5 P  3.00000000E+00  1.000000

  6 P  7.50000000E-01  1.000000

  7 P  1.87500000E-01  1.000000

  8 D  1.00000000E+00  1.000000

  N (Nitrogen)
  ------------
            Exponent  Coefficients 
       -------------- ---------------------------------------------------------
  1 S  6.29348000E+03  0.001970
  1 S  9.49044000E+02  0.014961
  1 S  2.18776000E+02  0.073501
  1 S  6.36916000E+01  0.248937
  1 S  1.88282000E+01  0.602460
  1 S  2.72023000E+00  0.256202

  2 S  3.06331000E+01  0.111906
  2 S  7.02614000E+00  0.921666
  2 S  2.11205000E+00 -0.002569

  3 P  3.06331000E+01  0.038312
  3 P  7.02614000E+00  0.237403
  3 P  2.11205000E+00  0.817592

  4 S  6.84009000E-01  1.000000

  5 P  6.84009000E-01  1.000000

  6 S  2.00878000E-01  1.000000

  7 P  2.00878000E-01  1.000000

  8 S  6.39000000E-02  1.000000

  9 P  6.39000000E-02  1.000000

 10 D  3.65200000E+00  1.000000

 11 D  9.13000000E-01  1.000000

 12 D  2.28250000E-01  1.000000

 13 F  1.00000000E+00  1.000000



 Summary of "ao basis" -> "ao basis" (cartesian)
 ------------------------------------------------------------------------------
       Tag                 Description            Shells   Functions and Types
 ---------------- ------------------------------  ------  ---------------------
 O                     6-311++G(3df,3pd)            13       45   5s4p3d1f
 C                     6-311++G(3df,3pd)            13       45   5s4p3d1f
 H                     6-311++G(3df,3pd)             8       19   4s3p1d
 N                     6-311++G(3df,3pd)            13       45   5s4p3d1f




 Summary of "ao basis" -> "ao basis" (cartesian)
 ------------------------------------------------------------------------------
       Tag                 Description            Shells   Functions and Types
 ---------------- ------------------------------  ------  ---------------------
 O                     6-311++G(3df,3pd)            13       45   5s4p3d1f
 C                     6-311++G(3df,3pd)            13       45   5s4p3d1f
 H                     6-311++G(3df,3pd)             8       19   4s3p1d
 N                     6-311++G(3df,3pd)            13       45   5s4p3d1f


      Symmetry analysis of basis
      --------------------------

        ag        135
        au         57
        bg         57
        bu        135

  Caching 1-el integrals 

            General Information
            -------------------
          SCF calculation type: DFT
          Wavefunction type:  closed shell.
          No. of atoms     :    12
          No. of electrons :    48
           Alpha electrons :    24
            Beta electrons :    24
          Charge           :     0
          Spin multiplicity:     1
          Use of symmetry is: on ; symmetry adaption is: on 
          Maximum number of iterations: ***
          AO basis - number of functions:   384
                     number of shells:   126
          Convergence on energy requested: 1.00D-06
          Convergence on density requested: 1.00D-05
          Convergence on gradient requested: 5.00D-04

              XC Information
              --------------
                  TPSS metaGGA Exchange Functional  1.000          
             TPSS03 metaGGA Correlation Functional  1.000          

             Grid Information
             ----------------
          Grid used for XC integration:  medium    
          Radial quadrature: Mura-Knowles        
          Angular quadrature: Lebedev. 
          Tag              B.-S. Rad. Rad. Pts. Rad. Cut. Ang. Pts.
          ---              ---------- --------- --------- ---------
          O                   0.60       49          15.0       434
          C                   0.70       49          16.0       434
          H                   0.35       45          17.0       434
          N                   0.65       49          15.0       434
          Grid pruning is: on 
          Number of quadrature shells:   282
          Spatial weights used:  Erf1

          Convergence Information
          -----------------------
          Convergence aids based upon iterative change in 
          total energy or number of iterations. 
          Levelshifting, if invoked, occurs when the 
          HOMO/LUMO gap drops below (HL_TOL): 1.00D-02
          DIIS, if invoked, will attempt to extrapolate 
          using up to (NFOCK): 10 stored Fock matrices.

                    Damping( 0%)  Levelshifting(0.5)       DIIS
                  --------------- ------------------- ---------------
          dE  on:    start            ASAP                start   
          dE off:    2 iters        *** iters           *** iters 


      Screening Tolerance Information
      -------------------------------
          Density screening/tol_rho: 1.00D-10
          AO Gaussian exp screening on grid/accAOfunc:  14
          CD Gaussian exp screening on grid/accCDfunc:  20
          XC Gaussian exp screening on grid/accXCfunc:  20
          Schwarz screening/accCoul: 1.00D-08


      Superposition of Atomic Density Guess
      -------------------------------------

 Sum of atomic energies:        -336.50865221

      Non-variational initial energy
      ------------------------------

 Total energy =    -339.474762
 1-e energy   =    -914.327126
 2-e energy   =     344.547892
 HOMO         =      -0.363405
 LUMO         =       0.018964


      Symmetry analysis of molecular orbitals - initial
      -------------------------------------------------

  Numbering of irreducible representations: 

     1 ag          2 au          3 bg          4 bu      

  Orbital symmetries:

     1 ag          2 bu          3 ag          4 bu          5 ag      
     6 bu          7 ag          8 bu          9 bu         10 ag      
    11 ag         12 bu         13 ag         14 bu         15 bu      
    16 ag         17 au         18 bg         19 ag         20 bu      
    21 ag         22 bg         23 au         24 bu         25 au      
    26 bg         27 ag         28 bu         29 bu         30 ag      
    31 ag         32 au         33 bu         34 ag      

   Time after variat. SCF:      1.6
   Time prior to 1st pass:      1.6

 Integral file          = ./HCOOH-HCOOH.aoints.00
 Record size in doubles =    65536    No. of integs per rec  =    32766
 Max. records in memory =        0    Max. records in file   = 11597644
 No. of bits per label  =       16    No. of bits per value  =       64


 #quartets = 1.140D+07 #integrals = 3.462D+08 #direct =  0.0% #cached =100.0%


File balance: exchanges=    16  moved=   294  time=   0.0


 Grid_pts file          = ./HCOOH-HCOOH.gridpts.00
 Record size in doubles =  12289        No. of grid_pts per rec  =   3070
 Max. records in memory =      4        Max. recs in file   =  61831364


           Memory utilization after 1st SCF pass: 
           Heap Space remaining (MW):       13.05            13048916
          Stack Space remaining (MW):       13.10            13104996

   convergence    iter        energy       DeltaE   RMS-Dens  Diis-err    time
 ---------------- ----- ----------------- --------- --------- ---------  ------
 d= 0,ls=0.0,diis     1   -339.8038594509 -5.70D+02  8.47D-03  3.04D+00     7.0
 Grid integrated density:      48.000074424606
 Requested integration accuracy:   0.10E-05
 d= 0,ls=0.0,diis     2   -338.4677682470  1.34D+00  5.19D-03  1.38D+01     9.1
 Grid integrated density:      48.000054693179
 Requested integration accuracy:   0.10E-05
 d= 0,ls=0.0,diis     3   -339.8682816635 -1.40D+00  1.68D-03  8.02D-01    11.1
 Grid integrated density:      48.000059753030
 Requested integration accuracy:   0.10E-05
 d= 0,ls=0.0,diis     4   -339.9149484655 -4.67D-02  7.34D-04  4.31D-01    13.2
 Grid integrated density:      48.000058888740
 Requested integration accuracy:   0.10E-05
 d= 0,ls=0.0,diis     5   -339.9445941648 -2.96D-02  1.72D-04  2.04D-03    15.2
 Grid integrated density:      48.000060007353
 Requested integration accuracy:   0.10E-05
  Resetting Diis
 d= 0,ls=0.0,diis     6   -339.9425005850  2.09D-03  6.69D-05  5.49D-04    17.3
 Grid integrated density:      48.000059726307
 Requested integration accuracy:   0.10E-05
 d= 0,ls=0.0,diis     7   -339.9438092525 -1.31D-03  2.75D-05  3.97D-05    19.4
 Grid integrated density:      48.000059770884
 Requested integration accuracy:   0.10E-05
 d= 0,ls=0.0,diis     8   -339.9435163590  2.93D-04  1.61D-05  1.56D-04    21.5
 Grid integrated density:      48.000059810277
 Requested integration accuracy:   0.10E-05
 d= 0,ls=0.0,diis     9   -339.9434843807  3.20D-05  5.55D-06  1.14D-05    23.5
 Grid integrated density:      48.000059779087
 Requested integration accuracy:   0.10E-05
 d= 0,ls=0.0,diis    10   -339.9436174287 -1.33D-04  1.53D-06  8.02D-07    25.6
 Grid integrated density:      48.000059783937
 Requested integration accuracy:   0.10E-05
 d= 0,ls=0.0,diis    11   -339.9436284648 -1.10D-05  6.93D-07  8.90D-08    27.7
 Grid integrated density:      48.000059786935
 Requested integration accuracy:   0.10E-05
 d= 0,ls=0.0,diis    12   -339.9436112920  1.72D-05  3.76D-07  1.15D-08    29.8
 Grid integrated density:      48.000059787157
 Requested integration accuracy:   0.10E-05
 d= 0,ls=0.0,diis    13   -339.9436154183 -4.13D-06  6.10D-08  3.34D-10    31.9
 Grid integrated density:      48.000059786964
 Requested integration accuracy:   0.10E-05
 d= 0,ls=0.0,diis    14   -339.9436156742 -2.56D-07  1.03D-08  1.22D-11    33.9


         Total DFT energy =     -339.943615674153
      One electron energy =     -917.806458102174
           Coulomb energy =      391.419935026534
          Exchange energy =      -42.241774322960
       Correlation energy =       -1.619789946875
 Nuclear repulsion energy =      230.304471671322

 Numeric. integr. density =       48.000059786964

     Total iterative time =     32.4s



                  Occupations of the irreducible representations
                  ----------------------------------------------

                     irrep           alpha         beta
                     --------     --------     --------
                     ag               10.0         10.0
                     au                2.0          2.0
                     bg                2.0          2.0
                     bu               10.0         10.0


                       DFT Final Molecular Orbital Analysis
                       ------------------------------------

 Vector    6  Occ=2.000000D+00  E=-1.016113D+01  Symmetry=ag
              MO Center=  1.9D-17, -7.5D-16,  1.6D-36, r^2= 4.2D+00
   Bfn.  Coefficient  Atom+Function         Bfn.  Coefficient  Atom+Function  
  ----- ------------  ---------------      ----- ------------  ---------------
    46      0.397525   2 C  s               238      0.397525   8 C  s         
    47      0.329298   2 C  s               239      0.329298   8 C  s         

 Vector    7  Occ=2.000000D+00  E=-1.041486D+00  Symmetry=ag
              MO Center=  1.6D-13, -3.5D-13, -1.9D-16, r^2= 3.7D+00
   Bfn.  Coefficient  Atom+Function         Bfn.  Coefficient  Atom+Function  
  ----- ------------  ---------------      ----- ------------  ---------------
    10      0.343292   1 O  s               202      0.343292   7 O  s         
     6      0.316786   1 O  s               198      0.316786   7 O  s         
    51      0.160272   2 C  s               243      0.160272   8 C  s         

 Vector    8  Occ=2.000000D+00  E=-1.036774D+00  Symmetry=bu
              MO Center= -1.3D-13,  3.5D-13, -1.7D-15, r^2= 3.8D+00
   Bfn.  Coefficient  Atom+Function         Bfn.  Coefficient  Atom+Function  
  ----- ------------  ---------------      ----- ------------  ---------------
    10      0.354958   1 O  s               202     -0.354958   7 O  s         
     6      0.324095   1 O  s               198     -0.324095   7 O  s         
    51      0.160632   2 C  s               243     -0.160632   8 C  s         

 Vector    9  Occ=2.000000D+00  E=-9.127721D-01  Symmetry=bu
              MO Center= -2.5D-13, -4.5D-13,  7.1D-16, r^2= 4.2D+00
   Bfn.  Coefficient  Atom+Function         Bfn.  Coefficient  Atom+Function  
  ----- ------------  ---------------      ----- ------------  ---------------
   119      0.400039   4 N  s               311     -0.400039  10 N  s         
   115      0.309631   4 N  s               307     -0.309631  10 N  s         
    10     -0.163528   1 O  s               202      0.163528   7 O  s         

 Vector   10  Occ=2.000000D+00  E=-9.078246D-01  Symmetry=ag
              MO Center=  2.3D-13,  4.5D-13,  3.1D-29, r^2= 4.3D+00
   Bfn.  Coefficient  Atom+Function         Bfn.  Coefficient  Atom+Function  
  ----- ------------  ---------------      ----- ------------  ---------------
   119      0.385700   4 N  s               311      0.385700  10 N  s         
   115      0.306952   4 N  s               307      0.306952  10 N  s         
    10     -0.187753   1 O  s               202     -0.187753   7 O  s         
     6     -0.155739   1 O  s               198     -0.155739   7 O  s         

 Vector   11  Occ=2.000000D+00  E=-6.497574D-01  Symmetry=ag
              MO Center=  9.4D-16, -2.2D-16,  7.6D-32, r^2= 5.1D+00
   Bfn.  Coefficient  Atom+Function         Bfn.  Coefficient  Atom+Function  
  ----- ------------  ---------------      ----- ------------  ---------------
    51      0.192489   2 C  s               243      0.192489   8 C  s         
    10     -0.167839   1 O  s               202     -0.167839   7 O  s         

 Vector   12  Occ=2.000000D+00  E=-6.290765D-01  Symmetry=bu
              MO Center= -2.2D-15, -8.9D-16, -4.8D-16, r^2= 5.4D+00
   Bfn.  Coefficient  Atom+Function         Bfn.  Coefficient  Atom+Function  
  ----- ------------  ---------------      ----- ------------  ---------------
    10      0.197308   1 O  s               202     -0.197308   7 O  s         
    51     -0.184133   2 C  s               243      0.184133   8 C  s         
   120      0.176786   4 N  px              312      0.176786  10 N  px        

 Vector   13  Occ=2.000000D+00  E=-5.824175D-01  Symmetry=ag
              MO Center= -4.8D-14, -1.1D-13,  3.4D-16, r^2= 5.1D+00
   Bfn.  Coefficient  Atom+Function         Bfn.  Coefficient  Atom+Function  
  ----- ------------  ---------------      ----- ------------  ---------------
   120      0.251127   4 N  px              312     -0.251127  10 N  px        
   116      0.165652   4 N  px              308     -0.165652  10 N  px        

 Vector   14  Occ=2.000000D+00  E=-5.729965D-01  Symmetry=bu
              MO Center=  6.3D-14,  1.1D-13, -6.2D-16, r^2= 5.2D+00
   Bfn.  Coefficient  Atom+Function         Bfn.  Coefficient  Atom+Function  
  ----- ------------  ---------------      ----- ------------  ---------------
   120      0.249716   4 N  px              312      0.249716  10 N  px        
    55      0.163110   2 C  s               247     -0.163110   8 C  s         

 Vector   15  Occ=2.000000D+00  E=-5.305626D-01  Symmetry=bu
              MO Center= -2.4D-15,  7.2D-15, -6.1D-31, r^2= 4.6D+00
   Bfn.  Coefficient  Atom+Function         Bfn.  Coefficient  Atom+Function  
  ----- ------------  ---------------      ----- ------------  ---------------
    55      0.207903   2 C  s               247     -0.207903   8 C  s         
    10     -0.159135   1 O  s               202      0.159135   7 O  s         

 Vector   16  Occ=2.000000D+00  E=-4.820667D-01  Symmetry=ag
              MO Center=  1.6D-15, -5.6D-16, -5.1D-31, r^2= 4.8D+00
   Bfn.  Coefficient  Atom+Function         Bfn.  Coefficient  Atom+Function  
  ----- ------------  ---------------      ----- ------------  ---------------
    55      0.262904   2 C  s               247      0.262904   8 C  s         
   121     -0.243301   4 N  py              313      0.243301  10 N  py        
    10     -0.205266   1 O  s               202     -0.205266   7 O  s         
   117     -0.162260   4 N  py              309      0.162260  10 N  py        
   120      0.151349   4 N  px              312     -0.151349  10 N  px        

 Vector   17  Occ=2.000000D+00  E=-4.586954D-01  Symmetry=ag
              MO Center= -2.1D-16, -9.4D-15,  2.1D-13, r^2= 5.2D+00
   Bfn.  Coefficient  Atom+Function         Bfn.  Coefficient  Atom+Function  
  ----- ------------  ---------------      ----- ------------  ---------------
    11      0.225993   1 O  px              203     -0.225993   7 O  px        
     7      0.178942   1 O  px              199     -0.178942   7 O  px        
    55     -0.172736   2 C  s               247     -0.172736   8 C  s         

 Vector   18  Occ=2.000000D+00  E=-4.577819D-01  Symmetry=au
              MO Center=  5.0D-14, -3.8D-13, -2.1D-13, r^2= 4.3D+00
   Bfn.  Coefficient  Atom+Function         Bfn.  Coefficient  Atom+Function  
  ----- ------------  ---------------      ----- ------------  ---------------
    13      0.180874   1 O  pz              205      0.180874   7 O  pz        
    54      0.161606   2 C  pz              246      0.161606   8 C  pz        
     9      0.156084   1 O  pz              201      0.156084   7 O  pz        

 Vector   19  Occ=2.000000D+00  E=-4.519207D-01  Symmetry=bg
              MO Center= -3.7D-14,  3.8D-13,  2.4D-16, r^2= 4.4D+00
   Bfn.  Coefficient  Atom+Function         Bfn.  Coefficient  Atom+Function  
  ----- ------------  ---------------      ----- ------------  ---------------
    13      0.184070   1 O  pz              205     -0.184070   7 O  pz        
    54      0.165275   2 C  pz              246     -0.165275   8 C  pz        
     9      0.159203   1 O  pz              201     -0.159203   7 O  pz        

 Vector   20  Occ=2.000000D+00  E=-4.343916D-01  Symmetry=bu
              MO Center= -7.4D-15,  1.1D-14,  1.6D-15, r^2= 4.9D+00
   Bfn.  Coefficient  Atom+Function         Bfn.  Coefficient  Atom+Function  
  ----- ------------  ---------------      ----- ------------  ---------------
    11      0.241992   1 O  px              203      0.241992   7 O  px        
     7      0.194799   1 O  px              199      0.194799   7 O  px        
    10     -0.184052   1 O  s               202      0.184052   7 O  s         
    55     -0.167470   2 C  s               247      0.167470   8 C  s         
     3      0.156318   1 O  px              195      0.156318   7 O  px        

 Vector   21  Occ=2.000000D+00  E=-3.293440D-01  Symmetry=bg
              MO Center= -2.7D-14, -1.1D-13,  5.2D-16, r^2= 4.2D+00
   Bfn.  Coefficient  Atom+Function         Bfn.  Coefficient  Atom+Function  
  ----- ------------  ---------------      ----- ------------  ---------------
   122      0.277052   4 N  pz              314     -0.277052  10 N  pz        
    13     -0.211117   1 O  pz              205      0.211117   7 O  pz        
   118      0.201915   4 N  pz              310     -0.201915  10 N  pz        
     9     -0.178448   1 O  pz              201      0.178448   7 O  pz        
   114      0.157427   4 N  pz              306     -0.157427  10 N  pz        

 Vector   22  Occ=2.000000D+00  E=-3.208686D-01  Symmetry=au
              MO Center=  2.1D-14,  1.1D-13,  4.5D-16, r^2= 4.3D+00
   Bfn.  Coefficient  Atom+Function         Bfn.  Coefficient  Atom+Function  
  ----- ------------  ---------------      ----- ------------  ---------------
   122      0.279812   4 N  pz              314      0.279812  10 N  pz        
    13     -0.215877   1 O  pz              205     -0.215877   7 O  pz        
   118      0.204230   4 N  pz              310      0.204230  10 N  pz        
     9     -0.185536   1 O  pz              201     -0.185536   7 O  pz        
   114      0.159076   4 N  pz              306      0.159076  10 N  pz        

 Vector   23  Occ=2.000000D+00  E=-3.180046D-01  Symmetry=ag
              MO Center= -4.7D-14,  8.8D-14, -8.6D-16, r^2= 4.7D+00
   Bfn.  Coefficient  Atom+Function         Bfn.  Coefficient  Atom+Function  
  ----- ------------  ---------------      ----- ------------  ---------------
    12      0.278634   1 O  py              204     -0.278634   7 O  py        
   119      0.256824   4 N  s               311      0.256824  10 N  s         
     8      0.213077   1 O  py              200     -0.213077   7 O  py        
     4      0.165289   1 O  py              196     -0.165289   7 O  py        
    55     -0.154948   2 C  s               247     -0.154948   8 C  s         

 Vector   24  Occ=2.000000D+00  E=-2.959826D-01  Symmetry=bu
              MO Center=  4.3D-14, -9.0D-14, -6.6D-16, r^2= 5.1D+00
   Bfn.  Coefficient  Atom+Function         Bfn.  Coefficient  Atom+Function  
  ----- ------------  ---------------      ----- ------------  ---------------
    12      0.319793   1 O  py              204      0.319793   7 O  py        
    55     -0.290515   2 C  s               247      0.290515   8 C  s         
     8      0.227656   1 O  py              200      0.227656   7 O  py        
   121      0.201940   4 N  py              313      0.201940  10 N  py        
     4      0.176942   1 O  py              196      0.176942   7 O  py        

 Vector   25  Occ=0.000000D+00  E=-1.074998D-01  Symmetry=au
              MO Center= -9.2D-15,  4.0D-13,  1.3D-15, r^2= 5.4D+00
   Bfn.  Coefficient  Atom+Function         Bfn.  Coefficient  Atom+Function  
  ----- ------------  ---------------      ----- ------------  ---------------
    58      0.386171   2 C  pz              250      0.386171   8 C  pz        
    54      0.232916   2 C  pz              246      0.232916   8 C  pz        
    13     -0.199441   1 O  pz              205     -0.199441   7 O  pz        
   122     -0.198204   4 N  pz              314     -0.198204  10 N  pz        
    50      0.168894   2 C  pz              242      0.168894   8 C  pz        

 Vector   26  Occ=0.000000D+00  E=-9.459883D-02  Symmetry=bg
              MO Center=  2.0D-15, -4.0D-13,  9.5D-16, r^2= 5.5D+00
   Bfn.  Coefficient  Atom+Function         Bfn.  Coefficient  Atom+Function  
  ----- ------------  ---------------      ----- ------------  ---------------
    58      0.380466   2 C  pz              250     -0.380466   8 C  pz        
    54      0.232661   2 C  pz              246     -0.232661   8 C  pz        
   122     -0.230848   4 N  pz              314      0.230848  10 N  pz        
    13     -0.216092   1 O  pz              205      0.216092   7 O  pz        
     9     -0.166668   1 O  pz              201      0.166668   7 O  pz        

 Vector   27  Occ=0.000000D+00  E=-3.448450D-02  Symmetry=ag
              MO Center= -1.6D-15,  8.9D-16, -6.6D-16, r^2= 1.5D+01
   Bfn.  Coefficient  Atom+Function         Bfn.  Coefficient  Atom+Function  
  ----- ------------  ---------------      ----- ------------  ---------------
    94      0.743910   3 H  s               286      0.743910   9 H  s         
   177      0.648092   6 H  s               369      0.648092  12 H  s         
    59     -0.563120   2 C  s               251     -0.563120   8 C  s         
    61     -0.421148   2 C  py              253      0.421148   8 C  py        
   123     -0.396611   4 N  s               315     -0.396611  10 N  s         

 Vector   28  Occ=0.000000D+00  E=-2.873962D-02  Symmetry=bu
              MO Center= -4.3D-14,  9.7D-14,  3.2D-15, r^2= 1.8D+01
   Bfn.  Coefficient  Atom+Function         Bfn.  Coefficient  Atom+Function  
  ----- ------------  ---------------      ----- ------------  ---------------
    59      0.902318   2 C  s               251     -0.902318   8 C  s         
    94     -0.836609   3 H  s               286      0.836609   9 H  s         
   177     -0.762495   6 H  s               369      0.762495  12 H  s         
    55      0.396676   2 C  s               176     -0.395905   6 H  s         
   247     -0.396676   8 C  s               368      0.395905  12 H  s         

 Vector   29  Occ=0.000000D+00  E= 2.743885D-03  Symmetry=ag
              MO Center=  2.7D-13,  5.1D-13, -6.1D-15, r^2= 1.7D+01
   Bfn.  Coefficient  Atom+Function         Bfn.  Coefficient  Atom+Function  
  ----- ------------  ---------------      ----- ------------  ---------------
    94      2.075688   3 H  s               286      2.075688   9 H  s         
    59     -1.546354   2 C  s               251     -1.546354   8 C  s         
   158     -1.103504   5 H  s               350     -1.103504  11 H  s         
    61     -0.928117   2 C  py              253      0.928117   8 C  py        
    93      0.798232   3 H  s               285      0.798232   9 H  s         

 Vector   30  Occ=0.000000D+00  E= 7.699305D-03  Symmetry=bu
              MO Center= -1.7D-13, -5.2D-13,  7.6D-16, r^2= 1.9D+01
   Bfn.  Coefficient  Atom+Function         Bfn.  Coefficient  Atom+Function  
  ----- ------------  ---------------      ----- ------------  ---------------
    94      2.188191   3 H  s               286     -2.188191   9 H  s         
    59     -1.429231   2 C  s               251      1.429231   8 C  s         
   123      0.922598   4 N  s               315     -0.922598  10 N  s         
    61     -0.879438   2 C  py              253     -0.879438   8 C  py        
   177     -0.720648   6 H  s               369      0.720648  12 H  s         

 Vector   31  Occ=0.000000D+00  E= 2.649352D-02  Symmetry=ag
              MO Center=  2.0D-13,  5.6D-15, -2.7D-14, r^2= 1.7D+01
   Bfn.  Coefficient  Atom+Function         Bfn.  Coefficient  Atom+Function  
  ----- ------------  ---------------      ----- ------------  ---------------
   177     -1.564809   6 H  s               369     -1.564809  12 H  s         
    94      1.451534   3 H  s               286      1.451534   9 H  s         
   158      1.352750   5 H  s               350      1.352750  11 H  s         
    59     -0.808292   2 C  s               251     -0.808292   8 C  s         
   125      0.791656   4 N  py              317     -0.791656  10 N  py        

 Vector   32  Occ=0.000000D+00  E= 4.060748D-02  Symmetry=bu
              MO Center= -6.1D-14,  4.2D-13,  9.4D-16, r^2= 1.3D+01
   Bfn.  Coefficient  Atom+Function         Bfn.  Coefficient  Atom+Function  
  ----- ------------  ---------------      ----- ------------  ---------------
    59      1.932214   2 C  s               251     -1.932214   8 C  s         
    14     -1.337637   1 O  s               206      1.337637   7 O  s         
    94     -1.314820   3 H  s               286      1.314820   9 H  s         
    55      1.035322   2 C  s               247     -1.035322   8 C  s         
   177      0.976191   6 H  s               369     -0.976191  12 H  s         

 Vector   33  Occ=0.000000D+00  E= 4.368555D-02  Symmetry=au
              MO Center=  1.9D-16, -1.9D-15,  2.9D-14, r^2= 1.3D+01
   Bfn.  Coefficient  Atom+Function         Bfn.  Coefficient  Atom+Function  
  ----- ------------  ---------------      ----- ------------  ---------------
    62      0.836201   2 C  pz              254      0.836201   8 C  pz        
    17     -0.190466   1 O  pz              209     -0.190466   7 O  pz        

 Vector   34  Occ=0.000000D+00  E= 4.610806D-02  Symmetry=ag
              MO Center= -5.2D-13, -1.0D-12, -1.1D-15, r^2= 1.3D+01
   Bfn.  Coefficient  Atom+Function         Bfn.  Coefficient  Atom+Function  
  ----- ------------  ---------------      ----- ------------  ---------------
    59      3.638056   2 C  s               251      3.638056   8 C  s         
   123     -1.883432   4 N  s               158     -1.876314   5 H  s         
   315     -1.883432  10 N  s               350     -1.876314  11 H  s         
    61     -1.240882   2 C  py              253      1.240882   8 C  py        
    60      1.069455   2 C  px              252     -1.069455   8 C  px        

 Vector   35  Occ=0.000000D+00  E= 6.434875D-02  Symmetry=bu
              MO Center=  2.5D-13,  2.9D-13, -2.4D-16, r^2= 2.0D+01
   Bfn.  Coefficient  Atom+Function         Bfn.  Coefficient  Atom+Function  
  ----- ------------  ---------------      ----- ------------  ---------------
   158      5.305940   5 H  s               350     -5.305940  11 H  s         
    94      3.512600   3 H  s               286     -3.512600   9 H  s         
    59     -2.689318   2 C  s               251      2.689318   8 C  s         
    61     -2.313274   2 C  py              253     -2.313274   8 C  py        
   177     -1.404961   6 H  s               369      1.404961  12 H  s         

 Vector   36  Occ=0.000000D+00  E= 6.442885D-02  Symmetry=bg
              MO Center=  2.0D-15,  2.0D-14,  6.7D-14, r^2= 1.6D+01
   Bfn.  Coefficient  Atom+Function         Bfn.  Coefficient  Atom+Function  
  ----- ------------  ---------------      ----- ------------  ---------------
    62      1.097054   2 C  pz              254     -1.097054   8 C  pz        
    17     -0.263228   1 O  pz              209      0.263228   7 O  pz        
    58     -0.222920   2 C  pz              250      0.222920   8 C  pz        

 Vector   37  Occ=0.000000D+00  E= 6.962324D-02  Symmetry=ag
              MO Center=  2.3D-13,  5.6D-12,  3.3D-15, r^2= 1.4D+01
   Bfn.  Coefficient  Atom+Function         Bfn.  Coefficient  Atom+Function  
  ----- ------------  ---------------      ----- ------------  ---------------
   123      3.239347   4 N  s               315      3.239347  10 N  s         
    59     -2.104934   2 C  s               251     -2.104934   8 C  s         
    60     -1.788657   2 C  px              252      1.788657   8 C  px        
    61      1.149896   2 C  py              253     -1.149896   8 C  py        
    94     -1.088878   3 H  s               286     -1.088878   9 H  s         

 Vector   38  Occ=0.000000D+00  E= 7.477161D-02  Symmetry=bu
              MO Center= -1.3D-12, -4.8D-12, -7.1D-14, r^2= 1.5D+01
   Bfn.  Coefficient  Atom+Function         Bfn.  Coefficient  Atom+Function  
  ----- ------------  ---------------      ----- ------------  ---------------
    59      5.421282   2 C  s               251     -5.421282   8 C  s         
   123     -2.546891   4 N  s               315      2.546891  10 N  s         
    60      1.877073   2 C  px              252      1.877073   8 C  px        
   177     -1.809730   6 H  s               369      1.809730  12 H  s         
    55      1.352959   2 C  s               247     -1.352959   8 C  s         

 Vector   39  Occ=0.000000D+00  E= 9.008346D-02  Symmetry=bu
              MO Center= -9.8D-12, -3.6D-11, -1.8D-15, r^2= 2.7D+01
   Bfn.  Coefficient  Atom+Function         Bfn.  Coefficient  Atom+Function  
  ----- ------------  ---------------      ----- ------------  ---------------
    59      3.899098   2 C  s               251     -3.899098   8 C  s         
    94     -3.244250   3 H  s               286      3.244250   9 H  s         
   158      2.237275   5 H  s               350     -2.237275  11 H  s         
   177     -2.139380   6 H  s               369      2.139380  12 H  s         
    61      2.096559   2 C  py              253      2.096559   8 C  py        

 Vector   40  Occ=0.000000D+00  E= 9.352277D-02  Symmetry=ag
              MO Center=  1.3D-11,  3.2D-11, -9.3D-16, r^2= 2.7D+01
   Bfn.  Coefficient  Atom+Function         Bfn.  Coefficient  Atom+Function  
  ----- ------------  ---------------      ----- ------------  ---------------
    94      6.116122   3 H  s               286      6.116122   9 H  s         
    59     -5.151576   2 C  s               251     -5.151576   8 C  s         
    61     -4.662896   2 C  py              253      4.662896   8 C  py        
   158     -3.844912   5 H  s               350     -3.844912  11 H  s         
   176     -1.912641   6 H  s               368     -1.912641  12 H  s         

 Vector   41  Occ=0.000000D+00  E= 1.066116D-01  Symmetry=bu
              MO Center=  2.6D-12, -6.0D-13,  2.4D-14, r^2= 1.9D+01
   Bfn.  Coefficient  Atom+Function         Bfn.  Coefficient  Atom+Function  
  ----- ------------  ---------------      ----- ------------  ---------------
    59      5.283428   2 C  s               251     -5.283428   8 C  s         
    94     -4.245657   3 H  s               286      4.245657   9 H  s         
   123     -3.464343   4 N  s               315      3.464343  10 N  s         
    61      2.466906   2 C  py              253      2.466906   8 C  py        
   176      1.550792   6 H  s               368     -1.550792  12 H  s         

 Vector   42  Occ=0.000000D+00  E= 1.091707D-01  Symmetry=ag
              MO Center= -5.4D-12,  7.7D-13,  2.0D-16, r^2= 1.4D+01
   Bfn.  Coefficient  Atom+Function         Bfn.  Coefficient  Atom+Function  
  ----- ------------  ---------------      ----- ------------  ---------------
    59      7.323059   2 C  s               251      7.323059   8 C  s         
   158     -7.135322   5 H  s               350     -7.135322  11 H  s         
    61     -2.541389   2 C  py              253      2.541389   8 C  py        
   177      1.949710   6 H  s               369      1.949710  12 H  s         
   157     -1.912329   5 H  s               349     -1.912329  11 H  s         

 Vector   43  Occ=0.000000D+00  E= 1.171808D-01  Symmetry=ag
              MO Center=  3.7D-13, -1.5D-14, -4.4D-15, r^2= 2.3D+01
   Bfn.  Coefficient  Atom+Function         Bfn.  Coefficient  Atom+Function  
  ----- ------------  ---------------      ----- ------------  ---------------
   177      3.235887   6 H  s               369      3.235887  12 H  s         
    94     -2.860607   3 H  s               286     -2.860607   9 H  s         
    14     -2.391910   1 O  s               206     -2.391910   7 O  s         
   124     -2.378854   4 N  px              316      2.378854  10 N  px        
    61      1.250261   2 C  py              253     -1.250261   8 C  py        

 Vector   44  Occ=0.000000D+00  E= 1.201544D-01  Symmetry=bg
              MO Center= -7.1D-15, -2.3D-14,  1.1D-14, r^2= 1.2D+01
   Bfn.  Coefficient  Atom+Function         Bfn.  Coefficient  Atom+Function  
  ----- ------------  ---------------      ----- ------------  ---------------
   126      1.261093   4 N  pz              318     -1.261093  10 N  pz        
    62     -0.773646   2 C  pz              254      0.773646   8 C  pz        
    77     -0.204236   2 C  dxz             269     -0.204236   8 C  dxz       
    17     -0.155556   1 O  pz              209      0.155556   7 O  pz        

 Vector   45  Occ=0.000000D+00  E= 1.301800D-01  Symmetry=bu
              MO Center=  1.3D-12,  1.6D-12, -4.0D-14, r^2= 2.2D+01
   Bfn.  Coefficient  Atom+Function         Bfn.  Coefficient  Atom+Function  
  ----- ------------  ---------------      ----- ------------  ---------------
    94      4.999892   3 H  s               286     -4.999892   9 H  s         
    61     -3.378428   2 C  py              253     -3.378428   8 C  py        
   177     -3.148122   6 H  s               369      3.148122  12 H  s         
   123     -2.872496   4 N  s               315      2.872496  10 N  s         
    59     -2.449316   2 C  s               251      2.449316   8 C  s         

 Vector   46  Occ=0.000000D+00  E= 1.360139D-01  Symmetry=au
              MO Center= -8.9D-15, -3.7D-14, -6.5D-15, r^2= 8.1D+00
   Bfn.  Coefficient  Atom+Function         Bfn.  Coefficient  Atom+Function  
  ----- ------------  ---------------      ----- ------------  ---------------
    62      0.921824   2 C  pz              254      0.921824   8 C  pz        
   126     -0.903399   4 N  pz              318     -0.903399  10 N  pz        
    17     -0.422815   1 O  pz              209     -0.422815   7 O  pz        
    79      0.417293   2 C  dyz             271     -0.417293   8 C  dyz       
    13      0.244610   1 O  pz              205      0.244610   7 O  pz        

 Vector   47  Occ=0.000000D+00  E= 1.497281D-01  Symmetry=ag
              MO Center=  3.2D-14,  1.8D-13,  4.5D-15, r^2= 1.5D+01
   Bfn.  Coefficient  Atom+Function         Bfn.  Coefficient  Atom+Function  
  ----- ------------  ---------------      ----- ------------  ---------------
   157      3.176067   5 H  s               349      3.176067  11 H  s         
   125      3.024634   4 N  py              317     -3.024634  10 N  py        
    14     -2.079285   1 O  s               206     -2.079285   7 O  s         
    60     -1.891172   2 C  px              252      1.891172   8 C  px        
    59      1.830143   2 C  s               251      1.830143   8 C  s         

 Vector   48  Occ=0.000000D+00  E= 1.572236D-01  Symmetry=au
              MO Center=  1.0D-14,  3.6D-14, -2.2D-14, r^2= 1.2D+01
   Bfn.  Coefficient  Atom+Function         Bfn.  Coefficient  Atom+Function  
  ----- ------------  ---------------      ----- ------------  ---------------
   126      1.321143   4 N  pz              318      1.321143  10 N  pz        
    62     -0.846390   2 C  pz              254     -0.846390   8 C  pz        
    79      0.453823   2 C  dyz             271     -0.453823   8 C  dyz       
    17     -0.272943   1 O  pz              209     -0.272943   7 O  pz        
   167     -0.220913   5 H  pz              359     -0.220913  11 H  pz        

 Vector   49  Occ=0.000000D+00  E= 1.605923D-01  Symmetry=ag
              MO Center= -5.9D-13,  1.5D-12,  1.3D-14, r^2= 1.6D+01
   Bfn.  Coefficient  Atom+Function         Bfn.  Coefficient  Atom+Function  
  ----- ------------  ---------------      ----- ------------  ---------------
    59      6.656402   2 C  s               251      6.656402   8 C  s         
    94     -4.916334   3 H  s               286     -4.916334   9 H  s         
   125     -3.606868   4 N  py              317      3.606868  10 N  py        
    61      3.563952   2 C  py              253     -3.563952   8 C  py        
   157     -3.289053   5 H  s               349     -3.289053  11 H  s         

 Vector   50  Occ=0.000000D+00  E= 1.731212D-01  Symmetry=bu
              MO Center= -1.1D-12, -1.2D-12,  3.5D-15, r^2= 2.0D+01
   Bfn.  Coefficient  Atom+Function         Bfn.  Coefficient  Atom+Function  
  ----- ------------  ---------------      ----- ------------  ---------------
   158      9.549671   5 H  s               350     -9.549671  11 H  s         
    59     -6.606718   2 C  s               251      6.606718   8 C  s         
   125      5.556555   4 N  py              317      5.556555  10 N  py        
   157      4.243175   5 H  s               349     -4.243175  11 H  s         
    94      4.122802   3 H  s               286     -4.122802   9 H  s         

 Vector   51  Occ=0.000000D+00  E= 1.928793D-01  Symmetry=bu
              MO Center=  5.6D-13, -5.2D-14,  2.4D-15, r^2= 1.3D+01
   Bfn.  Coefficient  Atom+Function         Bfn.  Coefficient  Atom+Function  
  ----- ------------  ---------------      ----- ------------  ---------------
   123     14.160151   4 N  s               315    -14.160151  10 N  s         
    59     -6.887895   2 C  s               251      6.887895   8 C  s         
   157     -6.493337   5 H  s               349      6.493337  11 H  s         
   158     -4.254084   5 H  s               350      4.254084  11 H  s         
   119      3.519698   4 N  s               311     -3.519698  10 N  s         

 Vector   52  Occ=0.000000D+00  E= 2.006103D-01  Symmetry=ag
              MO Center=  7.6D-14,  4.0D-13,  9.3D-15, r^2= 1.6D+01
   Bfn.  Coefficient  Atom+Function         Bfn.  Coefficient  Atom+Function  
  ----- ------------  ---------------      ----- ------------  ---------------
   123     15.021828   4 N  s               315     15.021828  10 N  s         
    59    -11.213262   2 C  s               251    -11.213262   8 C  s         
   176     -3.864461   6 H  s               368     -3.864461  12 H  s         
   157     -3.766527   5 H  s               349     -3.766527  11 H  s         
    60     -3.519917   2 C  px              252      3.519917   8 C  px        

 Vector   53  Occ=0.000000D+00  E= 2.091419D-01  Symmetry=ag
              MO Center= -2.7D-14,  1.4D-13,  2.0D-16, r^2= 1.9D+01
   Bfn.  Coefficient  Atom+Function         Bfn.  Coefficient  Atom+Function  
  ----- ------------  ---------------      ----- ------------  ---------------
   158     10.122752   5 H  s               350     10.122752  11 H  s         
    61      9.884575   2 C  py              253     -9.884575   8 C  py        
    93     -6.097322   3 H  s               285     -6.097322   9 H  s         
    94     -5.558202   3 H  s               286     -5.558202   9 H  s         
    14      4.147505   1 O  s               206      4.147505   7 O  s         

 Vector   54  Occ=0.000000D+00  E= 2.118319D-01  Symmetry=bu
              MO Center=  9.9D-14,  6.9D-13,  1.0D-15, r^2= 1.6D+01
   Bfn.  Coefficient  Atom+Function         Bfn.  Coefficient  Atom+Function  
  ----- ------------  ---------------      ----- ------------  ---------------
    61      7.457299   2 C  py              253      7.457299   8 C  py        
   123      6.777926   4 N  s               315     -6.777926  10 N  s         
    59     -5.119157   2 C  s               251      5.119157   8 C  s         
    94     -4.739089   3 H  s               286      4.739089   9 H  s         
    14      4.460482   1 O  s               206     -4.460482   7 O  s         

 Vector   55  Occ=0.000000D+00  E= 2.219881D-01  Symmetry=ag
              MO Center=  1.1D-12,  1.1D-11,  1.3D-14, r^2= 1.2D+01
   Bfn.  Coefficient  Atom+Function         Bfn.  Coefficient  Atom+Function  
  ----- ------------  ---------------      ----- ------------  ---------------
    59      5.782108   2 C  s               251      5.782108   8 C  s         
   158     -4.155461   5 H  s               350     -4.155461  11 H  s         
   124      3.434783   4 N  px              316     -3.434783  10 N  px        
   176     -2.627347   6 H  s               368     -2.627347  12 H  s         
    61     -2.498822   2 C  py              253      2.498822   8 C  py        

 Vector   56  Occ=0.000000D+00  E= 2.290855D-01  Symmetry=bu
              MO Center= -5.6D-13, -1.1D-11, -3.1D-15, r^2= 1.5D+01
   Bfn.  Coefficient  Atom+Function         Bfn.  Coefficient  Atom+Function  
  ----- ------------  ---------------      ----- ------------  ---------------
    59      9.005454   2 C  s               251     -9.005454   8 C  s         
    93     -5.245305   3 H  s               285      5.245305   9 H  s         
    94     -4.775083   3 H  s               286      4.775083   9 H  s         
    61      4.500785   2 C  py              253      4.500785   8 C  py        
    55      3.593049   2 C  s               247     -3.593049   8 C  s         

 Vector   57  Occ=0.000000D+00  E= 2.317010D-01  Symmetry=bg
              MO Center=  1.2D-15, -2.0D-15, -3.2D-16, r^2= 1.1D+01
   Bfn.  Coefficient  Atom+Function         Bfn.  Coefficient  Atom+Function  
  ----- ------------  ---------------      ----- ------------  ---------------
    17      1.237705   1 O  pz              209     -1.237705   7 O  pz        
    62     -1.216554   2 C  pz              254      1.216554   8 C  pz        
    77      0.659203   2 C  dxz             269      0.659203   8 C  dxz       
    79      0.611485   2 C  dyz             271      0.611485   8 C  dyz       
   126      0.607216   4 N  pz              318     -0.607216  10 N  pz        

 Vector   58  Occ=0.000000D+00  E= 2.434044D-01  Symmetry=au
              MO Center=  1.7D-14, -9.6D-15, -3.0D-15, r^2= 1.2D+01
   Bfn.  Coefficient  Atom+Function         Bfn.  Coefficient  Atom+Function  
  ----- ------------  ---------------      ----- ------------  ---------------
    17      1.514497   1 O  pz              209      1.514497   7 O  pz        
    62     -1.030120   2 C  pz              254     -1.030120   8 C  pz        
    79      0.950658   2 C  dyz             271     -0.950658   8 C  dyz       
    58     -0.315653   2 C  pz              250     -0.315653   8 C  pz        
   167     -0.266737   5 H  pz              359     -0.266737  11 H  pz        

 Vector   59  Occ=0.000000D+00  E= 2.441638D-01  Symmetry=bu
              MO Center=  1.5D-13,  1.5D-13, -2.0D-17, r^2= 1.3D+01
   Bfn.  Coefficient  Atom+Function         Bfn.  Coefficient  Atom+Function  
  ----- ------------  ---------------      ----- ------------  ---------------
   176      5.695270   6 H  s               368     -5.695270  12 H  s         
   123     -4.648675   4 N  s               315      4.648675  10 N  s         
   125     -4.159118   4 N  py              317     -4.159118  10 N  py        
   124     -3.851405   4 N  px              316     -3.851405  10 N  px        
    61     -2.647813   2 C  py              253     -2.647813   8 C  py        

 Vector   60  Occ=0.000000D+00  E= 2.544479D-01  Symmetry=bu
              MO Center= -1.2D-11,  4.6D-13, -4.2D-14, r^2= 1.3D+01
   Bfn.  Coefficient  Atom+Function         Bfn.  Coefficient  Atom+Function  
  ----- ------------  ---------------      ----- ------------  ---------------
    59      6.617596   2 C  s               251     -6.617596   8 C  s         
   123     -4.803361   4 N  s               315      4.803361  10 N  s         
    55      4.251365   2 C  s               247     -4.251365   8 C  s         
    94     -3.588615   3 H  s               286      3.588615   9 H  s         
    61      3.039656   2 C  py              253      3.039656   8 C  py        

 Vector   61  Occ=0.000000D+00  E= 2.566526D-01  Symmetry=ag
              MO Center=  1.3D-11, -1.6D-12,  6.2D-15, r^2= 1.3D+01
   Bfn.  Coefficient  Atom+Function         Bfn.  Coefficient  Atom+Function  
  ----- ------------  ---------------      ----- ------------  ---------------
    94     -2.514148   3 H  s               286     -2.514148   9 H  s         
   176      2.470200   6 H  s               368      2.470200  12 H  s         
   123     -2.406634   4 N  s               315     -2.406634  10 N  s         
    59      2.289800   2 C  s               251      2.289800   8 C  s         
    61      2.142179   2 C  py              253     -2.142179   8 C  py        

 Vector   62  Occ=0.000000D+00  E= 2.623745D-01  Symmetry=bg
              MO Center= -8.0D-15,  4.9D-15,  4.6D-14, r^2= 8.6D+00
   Bfn.  Coefficient  Atom+Function         Bfn.  Coefficient  Atom+Function  
  ----- ------------  ---------------      ----- ------------  ---------------
    17      0.895630   1 O  pz              209     -0.895630   7 O  pz        
   126      0.811191   4 N  pz              318     -0.811191  10 N  pz        
    62     -0.576538   2 C  pz              254      0.576538   8 C  pz        
   103     -0.356380   3 H  pz              295      0.356380   9 H  pz        
    79     -0.316899   2 C  dyz             271     -0.316899   8 C  dyz       

 Vector   63  Occ=0.000000D+00  E= 2.931370D-01  Symmetry=bu
              MO Center= -1.6D-12,  2.9D-11, -3.8D-14, r^2= 1.8D+01
   Bfn.  Coefficient  Atom+Function         Bfn.  Coefficient  Atom+Function  
  ----- ------------  ---------------      ----- ------------  ---------------
    14      5.279803   1 O  s               206     -5.279803   7 O  s         
    94      5.224717   3 H  s               286     -5.224717   9 H  s         
    61     -4.833061   2 C  py              253     -4.833061   8 C  py        
    59     -4.435757   2 C  s               251      4.435757   8 C  s         
   125      4.368560   4 N  py              317      4.368560  10 N  py        

 Vector   64  Occ=0.000000D+00  E= 2.936159D-01  Symmetry=ag
              MO Center=  1.2D-12, -2.4D-11, -4.7D-15, r^2= 1.2D+01
   Bfn.  Coefficient  Atom+Function         Bfn.  Coefficient  Atom+Function  
  ----- ------------  ---------------      ----- ------------  ---------------
    59      8.241605   2 C  s               251      8.241605   8 C  s         
    14     -6.045978   1 O  s               206     -6.045978   7 O  s         
    55      5.655959   2 C  s               247      5.655959   8 C  s         
    93     -4.195649   3 H  s               285     -4.195649   9 H  s         
   158     -3.170995   5 H  s               350     -3.170995  11 H  s         

 Vector   65  Occ=0.000000D+00  E= 3.034736D-01  Symmetry=bg
              MO Center= -1.9D-14, -3.1D-15,  4.0D-14, r^2= 9.1D+00
   Bfn.  Coefficient  Atom+Function         Bfn.  Coefficient  Atom+Function  
  ----- ------------  ---------------      ----- ------------  ---------------
    77      0.886572   2 C  dxz             269      0.886572   8 C  dxz       
    62      0.810265   2 C  pz              254     -0.810265   8 C  pz        
    17     -0.758234   1 O  pz              209      0.758234   7 O  pz        
    79     -0.650154   2 C  dyz             271     -0.650154   8 C  dyz       
   167     -0.533719   5 H  pz              359      0.533719  11 H  pz        

 Vector   66  Occ=0.000000D+00  E= 3.321434D-01  Symmetry=ag
              MO Center=  1.5D-12, -4.2D-12,  1.1D-14, r^2= 1.4D+01
   Bfn.  Coefficient  Atom+Function         Bfn.  Coefficient  Atom+Function  
  ----- ------------  ---------------      ----- ------------  ---------------
    59      8.021591   2 C  s               251      8.021591   8 C  s         
    14     -6.193993   1 O  s               206     -6.193993   7 O  s         
   157     -5.450091   5 H  s               349     -5.450091  11 H  s         
   125     -4.920505   4 N  py              317      4.920505  10 N  py        
    94     -4.870059   3 H  s               286     -4.870059   9 H  s         

 Vector   67  Occ=0.000000D+00  E= 3.378519D-01  Symmetry=au
              MO Center=  2.4D-14, -6.7D-15, -2.4D-14, r^2= 1.0D+01
   Bfn.  Coefficient  Atom+Function         Bfn.  Coefficient  Atom+Function  
  ----- ------------  ---------------      ----- ------------  ---------------
   103      0.926902   3 H  pz              295      0.926902   9 H  pz        
   167      0.708441   5 H  pz              359      0.708441  11 H  pz        
    79     -0.597386   2 C  dyz             271      0.597386   8 C  dyz       
    17     -0.570387   1 O  pz              209     -0.570387   7 O  pz        
   122     -0.369728   4 N  pz              314     -0.369728  10 N  pz        

 Vector   68  Occ=0.000000D+00  E= 3.429201D-01  Symmetry=ag
              MO Center=  4.0D-13, -1.0D-12, -8.9D-16, r^2= 1.2D+01
   Bfn.  Coefficient  Atom+Function         Bfn.  Coefficient  Atom+Function  
  ----- ------------  ---------------      ----- ------------  ---------------
    14      7.173624   1 O  s               206      7.173624   7 O  s         
   124      5.535662   4 N  px              316     -5.535662  10 N  px        
   176     -3.802506   6 H  s               368     -3.802506  12 H  s         
    15      2.416857   1 O  px              207     -2.416857   7 O  px        
    59      2.371918   2 C  s               251      2.371918   8 C  s         

 Vector   69  Occ=0.000000D+00  E= 3.492482D-01  Symmetry=bu
              MO Center= -1.7D-12,  1.7D-12, -2.9D-15, r^2= 1.2D+01
   Bfn.  Coefficient  Atom+Function         Bfn.  Coefficient  Atom+Function  
  ----- ------------  ---------------      ----- ------------  ---------------
    93      3.863151   3 H  s               285     -3.863151   9 H  s         
    16     -2.119787   1 O  py              208     -2.119787   7 O  py        
    59      2.051197   2 C  s               251     -2.051197   8 C  s         
   124      1.868261   4 N  px              316      1.868261  10 N  px        
   125     -1.839163   4 N  py              317     -1.839163  10 N  py        

 Vector   70  Occ=0.000000D+00  E= 3.559465D-01  Symmetry=ag
              MO Center= -3.0D-13,  3.1D-13,  1.1D-14, r^2= 1.4D+01
   Bfn.  Coefficient  Atom+Function         Bfn.  Coefficient  Atom+Function  
  ----- ------------  ---------------      ----- ------------  ---------------
   125      7.775134   4 N  py              317     -7.775134  10 N  py        
   176     -6.848929   6 H  s               368     -6.848929  12 H  s         
   157      6.762481   5 H  s               349      6.762481  11 H  s         
    61     -4.449661   2 C  py              253      4.449661   8 C  py        
    60     -3.360441   2 C  px              252      3.360441   8 C  px        

 Vector   71  Occ=0.000000D+00  E= 3.814917D-01  Symmetry=bu
              MO Center=  1.2D-12,  1.9D-13,  1.0D-15, r^2= 1.3D+01
   Bfn.  Coefficient  Atom+Function         Bfn.  Coefficient  Atom+Function  
  ----- ------------  ---------------      ----- ------------  ---------------
   176     -8.678949   6 H  s               368      8.678949  12 H  s         
   125      8.561170   4 N  py              317      8.561170  10 N  py        
   157      5.630829   5 H  s               349     -5.630829  11 H  s         
   124      4.295181   4 N  px              316      4.295181  10 N  px        
    59     -4.212981   2 C  s               158      4.219678   5 H  s         

 Vector   72  Occ=0.000000D+00  E= 3.978030D-01  Symmetry=bg
              MO Center= -4.6D-15,  2.3D-14, -5.9D-16, r^2= 1.0D+01
   Bfn.  Coefficient  Atom+Function         Bfn.  Coefficient  Atom+Function  
  ----- ------------  ---------------      ----- ------------  ---------------
   186     -0.801044   6 H  pz              378      0.801044  12 H  pz        
    77      0.742266   2 C  dxz             269      0.742266   8 C  dxz       
    62     -0.627318   2 C  pz              126      0.627817   4 N  pz        
   254      0.627318   8 C  pz              318     -0.627817  10 N  pz        
   103      0.556566   3 H  pz              295     -0.556566   9 H  pz        

 Vector   73  Occ=0.000000D+00  E= 4.063837D-01  Symmetry=au
              MO Center= -1.7D-16, -5.8D-15, -1.1D-15, r^2= 8.5D+00
   Bfn.  Coefficient  Atom+Function         Bfn.  Coefficient  Atom+Function  
  ----- ------------  ---------------      ----- ------------  ---------------
    77      2.151195   2 C  dxz             269     -2.151195   8 C  dxz       
   122     -0.808146   4 N  pz              314     -0.808146  10 N  pz        
   126     -0.744906   4 N  pz              318     -0.744906  10 N  pz        
    17      0.679869   1 O  pz              209      0.679869   7 O  pz        
    79     -0.460977   2 C  dyz             271      0.460977   8 C  dyz       

 Vector   74  Occ=0.000000D+00  E= 4.214132D-01  Symmetry=ag
              MO Center= -2.9D-13,  1.9D-13,  3.1D-16, r^2= 1.5D+01
   Bfn.  Coefficient  Atom+Function         Bfn.  Coefficient  Atom+Function  
  ----- ------------  ---------------      ----- ------------  ---------------
   157     -5.449917   5 H  s               349     -5.449917  11 H  s         
   119      5.319133   4 N  s               311      5.319133  10 N  s         
   123      4.985750   4 N  s               315      4.985750  10 N  s         
   176     -4.775716   6 H  s               368     -4.775716  12 H  s         
   158     -3.159599   5 H  s               350     -3.159599  11 H  s         

 Vector   75  Occ=0.000000D+00  E= 4.305335D-01  Symmetry=au
              MO Center=  2.7D-15, -2.7D-15, -3.2D-16, r^2= 1.0D+01
   Bfn.  Coefficient  Atom+Function         Bfn.  Coefficient  Atom+Function  
  ----- ------------  ---------------      ----- ------------  ---------------
   126      1.323222   4 N  pz              318      1.323222  10 N  pz        
   186     -1.192290   6 H  pz              378     -1.192290  12 H  pz        
    62     -0.800326   2 C  pz              254     -0.800326   8 C  pz        
   122      0.651275   4 N  pz              314      0.651275  10 N  pz        
   167     -0.610788   5 H  pz              359     -0.610788  11 H  pz        

 Vector   76  Occ=0.000000D+00  E= 4.341482D-01  Symmetry=bu
              MO Center=  3.6D-12, -6.0D-12,  3.9D-16, r^2= 1.3D+01
   Bfn.  Coefficient  Atom+Function         Bfn.  Coefficient  Atom+Function  
  ----- ------------  ---------------      ----- ------------  ---------------
    61      6.595686   2 C  py              253      6.595686   8 C  py        
    93     -6.053992   3 H  s               285      6.053992   9 H  s         
    94     -5.425722   3 H  s               286      5.425722   9 H  s         
    59      5.022300   2 C  s               251     -5.022300   8 C  s         
   176     -4.977918   6 H  s               368      4.977918  12 H  s         

 Vector   77  Occ=0.000000D+00  E= 4.394725D-01  Symmetry=bu
              MO Center= -3.5D-12, -9.3D-12,  2.3D-15, r^2= 1.4D+01
   Bfn.  Coefficient  Atom+Function         Bfn.  Coefficient  Atom+Function  
  ----- ------------  ---------------      ----- ------------  ---------------
    93      6.521955   3 H  s               285     -6.521955   9 H  s         
    61     -4.978146   2 C  py              253     -4.978146   8 C  py        
   157     -4.766243   5 H  s               349      4.766243  11 H  s         
    14     -4.524401   1 O  s               206      4.524401   7 O  s         
   158     -4.407545   5 H  s               350      4.407545  11 H  s         

 Vector   78  Occ=0.000000D+00  E= 4.486506D-01  Symmetry=ag
              MO Center= -1.7D-12,  1.0D-11,  3.2D-16, r^2= 1.2D+01
   Bfn.  Coefficient  Atom+Function         Bfn.  Coefficient  Atom+Function  
  ----- ------------  ---------------      ----- ------------  ---------------
   123     11.505793   4 N  s               315     11.505793  10 N  s         
    14      8.201784   1 O  s               206      8.201784   7 O  s         
    59     -6.632793   2 C  s               251     -6.632793   8 C  s         
    61      5.871078   2 C  py              253     -5.871078   8 C  py        
    93     -5.230191   3 H  s               285     -5.230191   9 H  s         

 Vector   79  Occ=0.000000D+00  E= 4.544183D-01  Symmetry=ag
              MO Center= -2.5D-12,  1.0D-11,  5.1D-15, r^2= 1.3D+01
   Bfn.  Coefficient  Atom+Function         Bfn.  Coefficient  Atom+Function  
  ----- ------------  ---------------      ----- ------------  ---------------
   157      7.017387   5 H  s               349      7.017387  11 H  s         
   158      6.975958   5 H  s               350      6.975958  11 H  s         
   123     -5.966053   4 N  s               315     -5.966053  10 N  s         
    93     -5.684455   3 H  s               285     -5.684455   9 H  s         
   176      5.343285   6 H  s               368      5.343285  12 H  s         

 Vector   80  Occ=0.000000D+00  E= 4.632593D-01  Symmetry=bu
              MO Center=  1.6D-12, -2.6D-12, -1.9D-16, r^2= 1.2D+01
   Bfn.  Coefficient  Atom+Function         Bfn.  Coefficient  Atom+Function  
  ----- ------------  ---------------      ----- ------------  ---------------
   123     13.025474   4 N  s               315    -13.025474  10 N  s         
   157    -12.294512   5 H  s               349     12.294512  11 H  s         
   119      8.298972   4 N  s               311     -8.298972  10 N  s         
   158     -5.310500   5 H  s               350      5.310500  11 H  s         
   176     -4.644479   6 H  s               368      4.644479  12 H  s         

 Vector   81  Occ=0.000000D+00  E= 4.719852D-01  Symmetry=bg
              MO Center=  3.2D-15,  1.7D-15, -2.0D-13, r^2= 7.8D+00
   Bfn.  Coefficient  Atom+Function         Bfn.  Coefficient  Atom+Function  
  ----- ------------  ---------------      ----- ------------  ---------------
    77      1.864656   2 C  dxz             269      1.864656   8 C  dxz       
   126     -1.084681   4 N  pz              318      1.084681  10 N  pz        
   122     -1.001318   4 N  pz              314      1.001318  10 N  pz        
   167      0.871574   5 H  pz              359     -0.871574  11 H  pz        
    58      0.669217   2 C  pz              250     -0.669217   8 C  pz        

 Vector   82  Occ=0.000000D+00  E= 4.733104D-01  Symmetry=bu
              MO Center= -2.0D-12, -4.3D-12,  1.9D-13, r^2= 1.3D+01
   Bfn.  Coefficient  Atom+Function         Bfn.  Coefficient  Atom+Function  
  ----- ------------  ---------------      ----- ------------  ---------------
   123     13.068887   4 N  s               315    -13.068887  10 N  s         
   176     -5.939396   6 H  s               368      5.939396  12 H  s         
   157     -5.464977   5 H  s               349      5.464977  11 H  s         
    59     -4.390059   2 C  s               251      4.390059   8 C  s         
    93      3.302766   3 H  s               285     -3.302766   9 H  s         

 Vector   83  Occ=0.000000D+00  E= 4.895144D-01  Symmetry=au
              MO Center= -1.2D-15,  3.2D-15, -5.6D-15, r^2= 6.8D+00
   Bfn.  Coefficient  Atom+Function         Bfn.  Coefficient  Atom+Function  
  ----- ------------  ---------------      ----- ------------  ---------------
    58      1.584105   2 C  pz              250      1.584105   8 C  pz        
    77     -0.976973   2 C  dxz             269      0.976973   8 C  dxz       
    79     -0.797745   2 C  dyz             271      0.797745   8 C  dyz       
    17     -0.549242   1 O  pz              209     -0.549242   7 O  pz        
    54     -0.501827   2 C  pz              246     -0.501827   8 C  pz        

 Vector   84  Occ=0.000000D+00  E= 4.927146D-01  Symmetry=ag
              MO Center=  9.4D-13,  1.1D-12,  8.0D-16, r^2= 1.2D+01
   Bfn.  Coefficient  Atom+Function         Bfn.  Coefficient  Atom+Function  
  ----- ------------  ---------------      ----- ------------  ---------------
   123     11.879573   4 N  s               315     11.879573  10 N  s         
   119      7.045464   4 N  s               311      7.045464  10 N  s         
   157     -6.760830   5 H  s               349     -6.760830  11 H  s         
    59     -6.397567   2 C  s               251     -6.397567   8 C  s         
    55     -4.719373   2 C  s               247     -4.719373   8 C  s         

 Vector   85  Occ=0.000000D+00  E= 5.089957D-01  Symmetry=bg
              MO Center= -6.4D-16,  1.3D-14, -3.3D-15, r^2= 8.4D+00
   Bfn.  Coefficient  Atom+Function         Bfn.  Coefficient  Atom+Function  
  ----- ------------  ---------------      ----- ------------  ---------------
    79      1.856074   2 C  dyz             271      1.856074   8 C  dyz       
   103     -1.151827   3 H  pz              295      1.151827   9 H  pz        
    77      1.026218   2 C  dxz             269      1.026218   8 C  dxz       
   186     -0.647478   6 H  pz              378      0.647478  12 H  pz        
    17      0.634388   1 O  pz              209     -0.634388   7 O  pz        


 center of mass
 --------------
 x =  -0.00000000 y =   0.00000000 z =   0.00000000

 moments of inertia (a.u.)
 ------------------
         898.963075413106           0.000000000000           0.000000000000
           0.000000000000         317.927001476736           0.000000000000
           0.000000000000           0.000000000000        1216.890076889843

     Multipole analysis of the density
     ---------------------------------

     L   x y z        total         alpha         beta         nuclear
     -   - - -        -----         -----         ----         -------
     0   0 0 0     -0.000000    -24.000000    -24.000000     48.000000

     1   1 0 0      0.000000      0.000000      0.000000     -0.000000
     1   0 1 0      0.000000      0.000000      0.000000     -0.000000
     1   0 0 1      0.000000      0.000000      0.000000      0.000000

     2   2 0 0    -26.229992   -102.208927   -102.208927    178.187861
     2   1 1 0      8.697215     -3.534331     -3.534331     15.765878
     2   1 0 1      0.000000      0.000000      0.000000      0.000000
     2   0 2 0    -19.693488   -259.266405   -259.266405    498.839323
     2   0 1 1      0.000000      0.000000      0.000000      0.000000
     2   0 0 2    -29.206235    -14.603118    -14.603118      0.000000


------------------------------------------------------------
EAF file 0: "./HCOOH-HCOOH.aoints.00" size=346554368 bytes
------------------------------------------------------------
               write      read    awrite     aread      wait
               -----      ----    ------     -----      ----
     calls:      661        13         0      8580      8580
   data(b): 3.47e+08  6.82e+06  0.00e+00  4.50e+09
   time(s): 0.00e+00  0.00e+00  0.00e+00  0.00e+00  0.00e+00
rate(mb/s): 0.00e+00  0.00e+00
------------------------------------------------------------


 Parallel integral file used   10571 records with       0 large values


 Task  times  cpu:       34.4s     wall:       37.4s


                                NWChem Input Module
                                -------------------


 Summary of allocated global arrays
-----------------------------------
  No active global arrays



                         GA Statistics for process    0
                         ------------------------------

       create   destroy   get      put      acc     scatter   gather  read&inc
calls:  360      360     2.29e+04 3818     1.19e+04    0        0      676     
number of processes/call 1.27e+00 1.54e+00 1.15e+00 0.00e+00 0.00e+00
bytes total:             4.04e+08 5.94e+07 2.00e+08 0.00e+00 0.00e+00 5.41e+03
bytes remote:            3.61e+08 4.12e+07 1.82e+08 0.00e+00 0.00e+00 0.00e+00
Max memory consumed for GA by this process: 2598624 bytes

MA_summarize_allocated_blocks: starting scan ...
MA_summarize_allocated_blocks: scan completed: 0 heap blocks, 0 stack blocks
MA usage statistics:

	allocation statistics:
					      heap	     stack
					      ----	     -----
	current number of blocks	         0	         0
	maximum number of blocks	        23	        55
	current total bytes		         0	         0
	maximum total bytes		    465032	  36324712
	maximum total K-bytes		       466	     36325
	maximum total M-bytes		         1	        37


                                     CITATION
                                     --------
                Please cite the following reference when publishing
                           results obtained with NWChem:

                 M. Valiev, E.J. Bylaska, N. Govind, K. Kowalski,
              T.P. Straatsma, H.J.J. van Dam, D. Wang, J. Nieplocha,
                        E. Apra, T.L. Windus, W.A. de Jong
                 "NWChem: a comprehensive and scalable open-source
                  solution for large scale molecular simulations"
                      Comput. Phys. Commun. 181, 1477 (2010)
                           doi:10.1016/j.cpc.2010.04.018

                                      AUTHORS
                                      -------
          E. Apra, E. J. Bylaska, W. A. de Jong, N. Govind, K. Kowalski,
       T. P. Straatsma, M. Valiev, H. J. J. van Dam, D. Wang, T. L. Windus,
        J. Hammond, J. Autschbach, K. Bhaskaran-Nair, J. Brabec, K. Lopata,
       S. A. Fischer, S. Krishnamoorthy, W. Ma, M. Klemm, O. Villa, Y. Chen,
    V. Anisimov, F. Aquino, S. Hirata, M. T. Hackler, T. Risthaus, M. Malagoli,
       A. Marenich, A. Otero-de-la-Roza, J. Mullin, P. Nichols, R. Peverati,
     J. Pittner, Y. Zhao, P.-D. Fan, A. Fonari, M. Williamson, R. J. Harrison,
       J. R. Rehr, M. Dupuis, D. Silverstein, D. M. A. Smith, J. Nieplocha,
        V. Tipparaju, M. Krishnan, B. E. Van Kuiken, A. Vazquez-Mayagoitia,
        L. Jensen, M. Swart, Q. Wu, T. Van Voorhis, A. A. Auer, M. Nooijen,
      L. D. Crosby, E. Brown, G. Cisneros, G. I. Fann, H. Fruchtl, J. Garza,
        K. Hirao, R. A. Kendall, J. A. Nichols, K. Tsemekhman, K. Wolinski,
     J. Anchell, D. E. Bernholdt, P. Borowski, T. Clark, D. Clerc, H. Dachsel,
   M. J. O. Deegan, K. Dyall, D. Elwood, E. Glendening, M. Gutowski, A. C. Hess,
         J. Jaffe, B. G. Johnson, J. Ju, R. Kobayashi, R. Kutteh, Z. Lin,
   R. Littlefield, X. Long, B. Meng, T. Nakajima, S. Niu, L. Pollack, M. Rosing,
   K. Glaesemann, G. Sandrone, M. Stave, H. Taylor, G. Thomas, J. H. van Lenthe,
                               A. T. Wong, Z. Zhang.

 Total times  cpu:       34.4s     wall:       37.7s
