[1537765210.907216] [r8n4:2769 :0]         sys.c:744  MXM  WARN  Conflicting CPU frequencies detected, using: 1698.50
[1537765210.917902] [r8n4:2780 :0]         sys.c:744  MXM  WARN  Conflicting CPU frequencies detected, using: 1697.69
[1537765210.918153] [r8n4:2784 :0]         sys.c:744  MXM  WARN  Conflicting CPU frequencies detected, using: 1697.69
[1537765210.918349] [r8n4:2777 :0]         sys.c:744  MXM  WARN  Conflicting CPU frequencies detected, using: 1697.69
[1537765210.918479] [r8n4:2774 :0]         sys.c:744  MXM  WARN  Conflicting CPU frequencies detected, using: 1697.69
[1537765210.918491] [r8n4:2778 :0]         sys.c:744  MXM  WARN  Conflicting CPU frequencies detected, using: 1697.69
[1537765210.918541] [r8n4:2782 :0]         sys.c:744  MXM  WARN  Conflicting CPU frequencies detected, using: 1697.69
[1537765210.918680] [r8n4:2788 :0]         sys.c:744  MXM  WARN  Conflicting CPU frequencies detected, using: 1697.69
[1537765210.918755] [r8n4:2770 :0]         sys.c:744  MXM  WARN  Conflicting CPU frequencies detected, using: 1697.69
[1537765210.918842] [r8n4:2772 :0]         sys.c:744  MXM  WARN  Conflicting CPU frequencies detected, using: 1697.69
[1537765210.918879] [r8n4:2771 :0]         sys.c:744  MXM  WARN  Conflicting CPU frequencies detected, using: 1697.69
[1537765210.918963] [r8n4:2773 :0]         sys.c:744  MXM  WARN  Conflicting CPU frequencies detected, using: 1697.69
[1537765210.918993] [r8n4:2775 :0]         sys.c:744  MXM  WARN  Conflicting CPU frequencies detected, using: 1697.69
[1537765210.919082] [r8n4:2786 :0]         sys.c:744  MXM  WARN  Conflicting CPU frequencies detected, using: 1697.69
[1537765210.919758] [r8n4:2790 :0]         sys.c:744  MXM  WARN  Conflicting CPU frequencies detected, using: 1697.69
[1537765210.937143] [r8n4:2792 :0]         sys.c:744  MXM  WARN  Conflicting CPU frequencies detected, using: 1899.66
 argument  1 = /storage/home/bikashp/nwchem_run/rabeet/hb6/nwhb6/HF-HF.nw
                                         
                                         


              Northwest Computational Chemistry Package (NWChem) 6.6
              ------------------------------------------------------


                    Environmental Molecular Sciences Laboratory
                       Pacific Northwest National Laboratory
                                Richland, WA 99352

                              Copyright (c) 1994-2015
                       Pacific Northwest National Laboratory
                            Battelle Memorial Institute

             NWChem is an open-source computational chemistry package
                        distributed under the terms of the
                      Educational Community License (ECL) 2.0
             A copy of the license is included with this distribution
                              in the LICENSE.TXT file

                                  ACKNOWLEDGMENT
                                  --------------

            This software and its documentation were developed at the
            EMSL at Pacific Northwest National Laboratory, a multiprogram
            national laboratory, operated for the U.S. Department of Energy
            by Battelle under Contract Number DE-AC05-76RL01830. Support
            for this work was provided by the Department of Energy Office
            of Biological and Environmental Research, Office of Basic
            Energy Sciences, and the Office of Advanced Scientific Computing.


           Job information
           ---------------

    hostname        = r8n4.niserhpc.org
    program         = /home/bikashp/Code/nwchem-6.6_tpssloc/bin/LINUX64/nwchem
    date            = Mon Sep 24 10:30:14 2018

    compiled        = Tue_Sep_18_16:24:59_2018
    source          = /home/bikashp/Code/nwchem-6.6_tpssloc
    nwchem branch   = 6.6
    nwchem revision = 27746
    ga revision     = 10594
    input           = /storage/home/bikashp/nwchem_run/rabeet/hb6/nwhb6/HF-HF.nw
    prefix          = HF-HF.
    data base       = ./HF-HF.db
    status          = startup
    nproc           =       16
    time left       =     -1s



           Memory information
           ------------------

    heap     =   13107196 doubles =    100.0 Mbytes
    stack    =   13107201 doubles =    100.0 Mbytes
    global   =   26214400 doubles =    200.0 Mbytes (distinct from heap & stack)
    total    =   52428797 doubles =    400.0 Mbytes
    verify   = yes
    hardfail = no 


           Directory information
           ---------------------

  0 permanent = .
  0 scratch   = .




                                NWChem Input Module
                                -------------------



 Scaling coordinates for geometry "geometry" by  1.889725989
 (inverse scale =  0.529177249)

 C2H symmetry detected

          ------
          auto-z
          ------
  autoz: The atoms group into disjoint clusters
 cluster   1:    1    2    3    4    5
 cluster   2:    6    7    8    9   10
 Connecting clusters   1   2 via atoms    3    9 r = 1.71
  autoz: regenerating connections with new bonds


                             Geometry "geometry" -> ""
                             -------------------------

 Output coordinates in angstroms (scale by  1.889725989 to convert to a.u.)

  No.       Tag          Charge          X              Y              Z
 ---- ---------------- ---------- -------------- -------------- --------------
    1 C                    6.0000    -0.17291715     1.91003112     0.00000000
    2 H                    1.0000    -0.25007015     3.00126976     0.00000000
    3 O                    8.0000    -1.15507227     1.18960921     0.00000000
    4 O                    8.0000     1.08064655     1.51083538     0.00000000
    5 H                    1.0000     1.11367946     0.51989930     0.00000000
    6 O                    8.0000     1.15507227    -1.18960921     0.00000000
    7 C                    6.0000     0.17291715    -1.91003112     0.00000000
    8 O                    8.0000    -1.08064655    -1.51083538     0.00000000
    9 H                    1.0000    -1.11367946    -0.51989930     0.00000000
   10 H                    1.0000     0.25007015    -3.00126976     0.00000000

      Atomic Mass 
      ----------- 

      C                 12.000000
      H                  1.007825
      O                 15.994910


 Effective nuclear repulsion energy (a.u.)     235.0301257731

            Nuclear Dipole moment (a.u.) 
            ----------------------------
        X                 Y               Z
 ---------------- ---------------- ----------------
     0.0000000000     0.0000000000     0.0000000000

      Symmetry information
      --------------------

 Group name             C2h       
 Group number             21
 Group order               4
 No. of unique centers     5

      Symmetry unique atoms

     1    2    3    4    5



                                Z-matrix (autoz)
                                -------- 

 Units are Angstrom for bonds and degrees for angles

      Type          Name      I     J     K     L     M      Value
      ----------- --------  ----- ----- ----- ----- ----- ----------
    1 Stretch                  1     2                       1.09396
    2 Stretch                  1     3                       1.21805
    3 Stretch                  1     4                       1.31559
    4 Stretch                  3     9                       1.71001
    5 Stretch                  4     5                       0.99149
    6 Stretch                  6     7                       1.21805
    7 Stretch                  7     8                       1.31559
    8 Stretch                  7    10                       1.09396
    9 Stretch                  8     9                       0.99149
   10 Bend                     1     3     9               124.87342
   11 Bend                     1     4     5               109.57326
   12 Bend                     2     1     3               122.21626
   13 Bend                     2     1     4               111.70822
   14 Bend                     3     8     7               109.24271
   15 Bend                     3     1     4               126.07552
   16 Bend                     6     7     8               126.07552
   17 Bend                     6     7    10               122.21626
   18 Bend                     7     8     9               109.57326
   19 Bend                     8     7    10               111.70822
   20 Bend                     8     3     1               124.68177
   21 Torsion                  1     3     8     7           0.00000
   22 Torsion                  3     1     9     8         180.00000
   23 Torsion                  2     1     3     9         180.00000
   24 Torsion                  2     1     4     5         180.00000
   25 Torsion                  3     1     4     5           0.00000
   26 Torsion                  4     1     3     9           0.00000
   27 Torsion                  6     7     8     9          -0.00000
   28 Torsion                  3     9     7     8         180.00000
   29 Torsion                  9     8     7    10         180.00000


            XYZ format geometry
            -------------------
    10
 geometry
 C                    -0.17291715     1.91003112     0.00000000
 H                    -0.25007015     3.00126976     0.00000000
 O                    -1.15507227     1.18960921     0.00000000
 O                     1.08064655     1.51083538     0.00000000
 H                     1.11367946     0.51989930     0.00000000
 O                     1.15507227    -1.18960921     0.00000000
 C                     0.17291715    -1.91003112     0.00000000
 O                    -1.08064655    -1.51083538     0.00000000
 H                    -1.11367946    -0.51989930     0.00000000
 H                     0.25007015    -3.00126976     0.00000000

 ==============================================================================
                                internuclear distances
 ------------------------------------------------------------------------------
       center one      |      center two      | atomic units |  angstroms
 ------------------------------------------------------------------------------
    2 H                |   1 C                |     2.06729  |     1.09396
    3 O                |   1 C                |     2.30177  |     1.21805
    4 O                |   1 C                |     2.48611  |     1.31559
    5 H                |   4 O                |     1.87364  |     0.99149
    7 C                |   6 O                |     2.30177  |     1.21805
    8 O                |   7 C                |     2.48611  |     1.31559
    9 H                |   8 O                |     1.87364  |     0.99149
   10 H                |   7 C                |     2.06729  |     1.09396
 ------------------------------------------------------------------------------
                         number of included internuclear distances:          8
 ==============================================================================



 ==============================================================================
                                 internuclear angles
 ------------------------------------------------------------------------------
        center 1       |       center 2       |       center 3       |  degrees
 ------------------------------------------------------------------------------
    2 H                |   1 C                |   3 O                |   122.22
    2 H                |   1 C                |   4 O                |   111.71
    3 O                |   1 C                |   4 O                |   126.08
    1 C                |   4 O                |   5 H                |   109.57
    6 O                |   7 C                |   8 O                |   126.08
    6 O                |   7 C                |  10 H                |   122.22
    8 O                |   7 C                |  10 H                |   111.71
    7 C                |   8 O                |   9 H                |   109.57
 ------------------------------------------------------------------------------
                            number of included internuclear angles:          8
 ==============================================================================





 Summary of "ao basis" -> "" (cartesian)
 ------------------------------------------------------------------------------
       Tag                 Description            Shells   Functions and Types
 ---------------- ------------------------------  ------  ---------------------
 *                     6-311++G(3df,3pd)              on all atoms 



                                 NWChem DFT Module
                                 -----------------


                      Basis "ao basis" -> "ao basis" (cartesian)
                      -----
  C (Carbon)
  ----------
            Exponent  Coefficients 
       -------------- ---------------------------------------------------------
  1 S  4.56324000E+03  0.001967
  1 S  6.82024000E+02  0.015231
  1 S  1.54973000E+02  0.076127
  1 S  4.44553000E+01  0.260801
  1 S  1.30290000E+01  0.616462
  1 S  1.82773000E+00  0.221006

  2 S  2.09642000E+01  0.114660
  2 S  4.80331000E+00  0.919999
  2 S  1.45933000E+00 -0.003031

  3 P  2.09642000E+01  0.040249
  3 P  4.80331000E+00  0.237594
  3 P  1.45933000E+00  0.815854

  4 S  4.83456000E-01  1.000000

  5 P  4.83456000E-01  1.000000

  6 S  1.45585000E-01  1.000000

  7 P  1.45585000E-01  1.000000

  8 S  4.38000000E-02  1.000000

  9 P  4.38000000E-02  1.000000

 10 D  2.50400000E+00  1.000000

 11 D  6.26000000E-01  1.000000

 12 D  1.56500000E-01  1.000000

 13 F  8.00000000E-01  1.000000

  H (Hydrogen)
  ------------
            Exponent  Coefficients 
       -------------- ---------------------------------------------------------
  1 S  3.38650000E+01  0.025494
  1 S  5.09479000E+00  0.190373
  1 S  1.15879000E+00  0.852161

  2 S  3.25840000E-01  1.000000

  3 S  1.02741000E-01  1.000000

  4 S  3.60000000E-02  1.000000

  5 P  3.00000000E+00  1.000000

  6 P  7.50000000E-01  1.000000

  7 P  1.87500000E-01  1.000000

  8 D  1.00000000E+00  1.000000

  O (Oxygen)
  ----------
            Exponent  Coefficients 
       -------------- ---------------------------------------------------------
  1 S  8.58850000E+03  0.001895
  1 S  1.29723000E+03  0.014386
  1 S  2.99296000E+02  0.070732
  1 S  8.73771000E+01  0.240001
  1 S  2.56789000E+01  0.594797
  1 S  3.74004000E+00  0.280802

  2 S  4.21175000E+01  0.113889
  2 S  9.62837000E+00  0.920811
  2 S  2.85332000E+00 -0.003274

  3 P  4.21175000E+01  0.036511
  3 P  9.62837000E+00  0.237153
  3 P  2.85332000E+00  0.819702

  4 S  9.05661000E-01  1.000000

  5 P  9.05661000E-01  1.000000

  6 S  2.55611000E-01  1.000000

  7 P  2.55611000E-01  1.000000

  8 S  8.45000000E-02  1.000000

  9 P  8.45000000E-02  1.000000

 10 D  5.16000000E+00  1.000000

 11 D  1.29200000E+00  1.000000

 12 D  3.22500000E-01  1.000000

 13 F  1.40000000E+00  1.000000



 Summary of "ao basis" -> "ao basis" (cartesian)
 ------------------------------------------------------------------------------
       Tag                 Description            Shells   Functions and Types
 ---------------- ------------------------------  ------  ---------------------
 C                     6-311++G(3df,3pd)            13       45   5s4p3d1f
 H                     6-311++G(3df,3pd)             8       19   4s3p1d
 O                     6-311++G(3df,3pd)            13       45   5s4p3d1f




 Summary of "ao basis" -> "ao basis" (cartesian)
 ------------------------------------------------------------------------------
       Tag                 Description            Shells   Functions and Types
 ---------------- ------------------------------  ------  ---------------------
 C                     6-311++G(3df,3pd)            13       45   5s4p3d1f
 H                     6-311++G(3df,3pd)             8       19   4s3p1d
 O                     6-311++G(3df,3pd)            13       45   5s4p3d1f


      Symmetry analysis of basis
      --------------------------

        ag        121
        au         52
        bg         52
        bu        121

  Caching 1-el integrals 

            General Information
            -------------------
          SCF calculation type: DFT
          Wavefunction type:  closed shell.
          No. of atoms     :    10
          No. of electrons :    48
           Alpha electrons :    24
            Beta electrons :    24
          Charge           :     0
          Spin multiplicity:     1
          Use of symmetry is: on ; symmetry adaption is: on 
          Maximum number of iterations: ***
          AO basis - number of functions:   346
                     number of shells:   110
          Convergence on energy requested: 1.00D-06
          Convergence on density requested: 1.00D-05
          Convergence on gradient requested: 5.00D-04

              XC Information
              --------------
                  TPSS metaGGA Exchange Functional  1.000          
             TPSS03 metaGGA Correlation Functional  1.000          

             Grid Information
             ----------------
          Grid used for XC integration:  medium    
          Radial quadrature: Mura-Knowles        
          Angular quadrature: Lebedev. 
          Tag              B.-S. Rad. Rad. Pts. Rad. Cut. Ang. Pts.
          ---              ---------- --------- --------- ---------
          C                   0.70       49          16.0       434
          H                   0.35       45          17.0       434
          O                   0.60       49          14.0       434
          Grid pruning is: on 
          Number of quadrature shells:   237
          Spatial weights used:  Erf1

          Convergence Information
          -----------------------
          Convergence aids based upon iterative change in 
          total energy or number of iterations. 
          Levelshifting, if invoked, occurs when the 
          HOMO/LUMO gap drops below (HL_TOL): 1.00D-02
          DIIS, if invoked, will attempt to extrapolate 
          using up to (NFOCK): 10 stored Fock matrices.

                    Damping( 0%)  Levelshifting(0.5)       DIIS
                  --------------- ------------------- ---------------
          dE  on:    start            ASAP                start   
          dE off:    2 iters        *** iters           *** iters 


      Screening Tolerance Information
      -------------------------------
          Density screening/tol_rho: 1.00D-10
          AO Gaussian exp screening on grid/accAOfunc:  14
          CD Gaussian exp screening on grid/accCDfunc:  20
          XC Gaussian exp screening on grid/accXCfunc:  20
          Schwarz screening/accCoul: 1.00D-08


      Superposition of Atomic Density Guess
      -------------------------------------

 Sum of atomic energies:        -376.44865127

      Non-variational initial energy
      ------------------------------

 Total energy =    -378.905320
 1-e energy   =    -982.031395
 2-e energy   =     368.095950
 HOMO         =      -0.386176
 LUMO         =       0.011795


      Symmetry analysis of molecular orbitals - initial
      -------------------------------------------------

  Numbering of irreducible representations: 

     1 ag          2 au          3 bg          4 bu      

  Orbital symmetries:

     1 ag          2 bu          3 ag          4 bu          5 ag      
     6 bu          7 ag          8 bu          9 bu         10 ag      
    11 ag         12 bu         13 bu         14 ag         15 bu      
    16 ag         17 au         18 bg         19 ag         20 bu      
    21 bg         22 au         23 ag         24 bu         25 au      
    26 bg         27 ag         28 bu         29 ag         30 bu      
    31 au         32 ag         33 ag         34 bu      

   Time after variat. SCF:      1.4
   Time prior to 1st pass:      1.4

 Integral file          = ./HF-HF.aoints.00
 Record size in doubles =    65536    No. of integs per rec  =    32766
 Max. records in memory =        0    Max. records in file   = 11597618
 No. of bits per label  =       16    No. of bits per value  =       64


 #quartets = 6.954D+06 #integrals = 2.466D+08 #direct =  0.0% #cached =100.0%


File balance: exchanges=    15  moved=   235  time=   0.0


 Grid_pts file          = ./HF-HF.gridpts.00
 Record size in doubles =  12289        No. of grid_pts per rec  =   3070
 Max. records in memory =      4        Max. recs in file   =  61834586


           Memory utilization after 1st SCF pass: 
           Heap Space remaining (MW):       13.05            13050004
          Stack Space remaining (MW):       13.11            13105252

   convergence    iter        energy       DeltaE   RMS-Dens  Diis-err    time
 ---------------- ----- ----------------- --------- --------- ---------  ------
 d= 0,ls=0.0,diis     1   -379.5517254884 -6.15D+02  7.68D-03  3.44D+00     5.4
 d= 0,ls=0.0,diis     2   -378.6075092123  9.44D-01  4.43D-03  1.12D+01     7.0
 d= 0,ls=0.0,diis     3   -379.6504046649 -1.04D+00  2.06D-03  8.43D-01     8.6
 d= 0,ls=0.0,diis     4   -379.6673923665 -1.70D-02  9.87D-04  7.32D-01    10.2
 d= 0,ls=0.0,diis     5   -379.7190388284 -5.16D-02  1.80D-04  2.52D-03    11.9
  Resetting Diis
 d= 0,ls=0.0,diis     6   -379.7183282979  7.11D-04  6.71D-05  4.43D-04    13.5
 d= 0,ls=0.0,diis     7   -379.7185378120 -2.10D-04  2.43D-05  2.77D-05    15.2
 d= 0,ls=0.0,diis     8   -379.7186301865 -9.24D-05  1.24D-05  9.95D-05    16.8
 d= 0,ls=0.0,diis     9   -379.7184528531  1.77D-04  3.33D-06  1.92D-06    18.4
 d= 0,ls=0.0,diis    10   -379.7185319732 -7.91D-05  1.14D-06  4.73D-07    20.1
 d= 0,ls=0.0,diis    11   -379.7185252325  6.74D-06  5.47D-07  1.02D-07    21.7
 d= 0,ls=0.0,diis    12   -379.7185170083  8.22D-06  2.59D-07  3.36D-09    23.4
 d= 0,ls=0.0,diis    13   -379.7185202028 -3.19D-06  4.10D-08  3.06D-10    25.0
 d= 0,ls=0.0,diis    14   -379.7185199006  3.02D-07  4.97D-09  1.61D-12    26.6


         Total DFT energy =     -379.718519900600
      One electron energy =     -983.766023954360
           Coulomb energy =      415.480669442371
          Exchange energy =      -44.815096575839
       Correlation energy =       -1.648194585825
 Nuclear repulsion energy =      235.030125773053

 Numeric. integr. density =       48.000009172495

     Total iterative time =     25.3s



                  Occupations of the irreducible representations
                  ----------------------------------------------

                     irrep           alpha         beta
                     --------     --------     --------
                     ag               10.0         10.0
                     au                2.0          2.0
                     bg                2.0          2.0
                     bu               10.0         10.0


                       DFT Final Molecular Orbital Analysis
                       ------------------------------------

 Vector    6  Occ=2.000000D+00  E=-1.020730D+01  Symmetry=bu
              MO Center= -1.5D-17,  9.0D-17,  6.7D-39, r^2= 3.7D+00
   Bfn.  Coefficient  Atom+Function         Bfn.  Coefficient  Atom+Function  
  ----- ------------  ---------------      ----- ------------  ---------------
     1      0.397548   1 C  s               219     -0.397548   7 C  s         
     2      0.329276   1 C  s               220     -0.329276   7 C  s         

 Vector    7  Occ=2.000000D+00  E=-1.127791D+00  Symmetry=ag
              MO Center= -6.5D-15, -1.5D-13,  2.1D-16, r^2= 3.2D+00
   Bfn.  Coefficient  Atom+Function         Bfn.  Coefficient  Atom+Function  
  ----- ------------  ---------------      ----- ------------  ---------------
   119      0.312922   4 O  s               273      0.312922   8 O  s         
   115      0.270029   4 O  s               269      0.270029   8 O  s         
    74      0.202201   3 O  s               183      0.202201   6 O  s         
    70      0.198592   3 O  s               179      0.198592   6 O  s         
     6      0.150312   1 C  s               224      0.150312   7 C  s         

 Vector    8  Occ=2.000000D+00  E=-1.116723D+00  Symmetry=bu
              MO Center=  2.3D-14,  1.5D-13,  1.6D-16, r^2= 3.3D+00
   Bfn.  Coefficient  Atom+Function         Bfn.  Coefficient  Atom+Function  
  ----- ------------  ---------------      ----- ------------  ---------------
   119      0.324461   4 O  s               273     -0.324461   8 O  s         
   115      0.282075   4 O  s               269     -0.282075   8 O  s         
    74      0.200129   3 O  s               183     -0.200129   6 O  s         
    70      0.189087   3 O  s               179     -0.189087   6 O  s         
     6      0.153676   1 C  s               224     -0.153676   7 C  s         

 Vector    9  Occ=2.000000D+00  E=-1.043849D+00  Symmetry=bu
              MO Center= -1.4D-14,  8.3D-17, -9.3D-30, r^2= 3.3D+00
   Bfn.  Coefficient  Atom+Function         Bfn.  Coefficient  Atom+Function  
  ----- ------------  ---------------      ----- ------------  ---------------
    74      0.338255   3 O  s               183     -0.338255   6 O  s         
    70      0.296688   3 O  s               179     -0.296688   6 O  s         
   119     -0.283341   4 O  s               273      0.283341   8 O  s         
   115     -0.230774   4 O  s               269      0.230774   8 O  s         

 Vector   10  Occ=2.000000D+00  E=-1.032563D+00  Symmetry=ag
              MO Center= -1.6D-15, -2.8D-16,  2.8D-16, r^2= 3.4D+00
   Bfn.  Coefficient  Atom+Function         Bfn.  Coefficient  Atom+Function  
  ----- ------------  ---------------      ----- ------------  ---------------
    74      0.332986   3 O  s               183      0.332986   6 O  s         
   119     -0.297264   4 O  s               273     -0.297264   8 O  s         
    70      0.290475   3 O  s               179      0.290475   6 O  s         
   115     -0.246791   4 O  s               269     -0.246791   8 O  s         

 Vector   11  Occ=2.000000D+00  E=-7.044555D-01  Symmetry=ag
              MO Center=  1.4D-16, -8.9D-16,  2.8D-31, r^2= 4.5D+00
   Bfn.  Coefficient  Atom+Function         Bfn.  Coefficient  Atom+Function  
  ----- ------------  ---------------      ----- ------------  ---------------
     6      0.184181   1 C  s               224      0.184181   7 C  s         
   121      0.151756   4 O  py              275     -0.151756   8 O  py        

 Vector   12  Occ=2.000000D+00  E=-6.774020D-01  Symmetry=bu
              MO Center=  4.1D-15, -6.8D-15, -1.7D-15, r^2= 4.7D+00
   Bfn.  Coefficient  Atom+Function         Bfn.  Coefficient  Atom+Function  
  ----- ------------  ---------------      ----- ------------  ---------------
   121      0.173218   4 O  py              275      0.173218   8 O  py        
     6      0.163230   1 C  s               224     -0.163230   7 C  s         
   119     -0.161301   4 O  s               273      0.161301   8 O  s         

 Vector   13  Occ=2.000000D+00  E=-5.810969D-01  Symmetry=bu
              MO Center= -6.9D-17, -6.7D-16, -6.6D-32, r^2= 4.4D+00
   Bfn.  Coefficient  Atom+Function         Bfn.  Coefficient  Atom+Function  
  ----- ------------  ---------------      ----- ------------  ---------------
    74      0.218324   3 O  s               183     -0.218324   6 O  s         
    76     -0.156262   3 O  py              185     -0.156262   6 O  py        

 Vector   14  Occ=2.000000D+00  E=-5.547829D-01  Symmetry=ag
              MO Center=  1.3D-14,  2.2D-13, -2.2D-15, r^2= 4.8D+00
   Bfn.  Coefficient  Atom+Function         Bfn.  Coefficient  Atom+Function  
  ----- ------------  ---------------      ----- ------------  ---------------
   119      0.204408   4 O  s               273      0.204408   8 O  s         
   120      0.199947   4 O  px              274     -0.199947   8 O  px        
   116      0.155518   4 O  px              270     -0.155518   8 O  px        

 Vector   15  Occ=2.000000D+00  E=-5.410185D-01  Symmetry=bu
              MO Center= -2.0D-14, -2.1D-13, -1.7D-29, r^2= 4.4D+00
   Bfn.  Coefficient  Atom+Function         Bfn.  Coefficient  Atom+Function  
  ----- ------------  ---------------      ----- ------------  ---------------
   119      0.229385   4 O  s               273     -0.229385   8 O  s         
    74      0.205583   3 O  s               183     -0.205583   6 O  s         
   120      0.176322   4 O  px              274      0.176322   8 O  px        
    75     -0.168443   3 O  px              184     -0.168443   6 O  px        

 Vector   16  Occ=2.000000D+00  E=-5.217793D-01  Symmetry=ag
              MO Center=  5.6D-15,  0.0D+00, -7.4D-16, r^2= 3.7D+00
   Bfn.  Coefficient  Atom+Function         Bfn.  Coefficient  Atom+Function  
  ----- ------------  ---------------      ----- ------------  ---------------
    74      0.320794   3 O  s               183      0.320794   6 O  s         
   121      0.188777   4 O  py              275     -0.188777   8 O  py        
    75     -0.167260   3 O  px              184      0.167260   6 O  px        
    70      0.165424   3 O  s               179      0.165424   6 O  s         

 Vector   17  Occ=2.000000D+00  E=-5.113503D-01  Symmetry=au
              MO Center= -5.6D-17,  2.8D-16,  3.2D-15, r^2= 3.9D+00
   Bfn.  Coefficient  Atom+Function         Bfn.  Coefficient  Atom+Function  
  ----- ------------  ---------------      ----- ------------  ---------------
   122      0.169175   4 O  pz              276      0.169175   8 O  pz        
    77      0.157542   3 O  pz              186      0.157542   6 O  pz        
     9      0.151394   1 C  pz              118      0.151701   4 O  pz        
   227      0.151394   7 C  pz              272      0.151701   8 O  pz        

 Vector   18  Occ=2.000000D+00  E=-5.032075D-01  Symmetry=bg
              MO Center=  2.1D-15,  3.9D-16, -2.0D-16, r^2= 3.9D+00
   Bfn.  Coefficient  Atom+Function         Bfn.  Coefficient  Atom+Function  
  ----- ------------  ---------------      ----- ------------  ---------------
   122      0.178748   4 O  pz              276     -0.178748   8 O  pz        
    77      0.156608   3 O  pz              186     -0.156608   6 O  pz        
     9      0.155374   1 C  pz              227     -0.155374   7 C  pz        
   118      0.154438   4 O  pz              272     -0.154438   8 O  pz        

 Vector   19  Occ=2.000000D+00  E=-4.594203D-01  Symmetry=ag
              MO Center= -1.3D-15,  2.1D-15,  3.7D-30, r^2= 5.1D+00
   Bfn.  Coefficient  Atom+Function         Bfn.  Coefficient  Atom+Function  
  ----- ------------  ---------------      ----- ------------  ---------------
   119      0.270924   4 O  s               273      0.270924   8 O  s         
    10     -0.230266   1 C  s               228     -0.230266   7 C  s         
   121      0.158158   4 O  py              275     -0.158158   8 O  py        

 Vector   20  Occ=2.000000D+00  E=-4.205035D-01  Symmetry=bu
              MO Center= -8.9D-16, -4.6D-15,  2.7D-15, r^2= 4.6D+00
   Bfn.  Coefficient  Atom+Function         Bfn.  Coefficient  Atom+Function  
  ----- ------------  ---------------      ----- ------------  ---------------
   121      0.208521   4 O  py              275      0.208521   8 O  py        
   119      0.183624   4 O  s               273     -0.183624   8 O  s         
    75      0.182249   3 O  px              184      0.182249   6 O  px        
   120      0.169700   4 O  px              274      0.169700   8 O  px        
   157      0.166535   5 H  s               311     -0.166535   9 H  s         

 Vector   21  Occ=2.000000D+00  E=-3.929767D-01  Symmetry=bg
              MO Center=  1.1D-16,  2.2D-16, -2.8D-15, r^2= 3.7D+00
   Bfn.  Coefficient  Atom+Function         Bfn.  Coefficient  Atom+Function  
  ----- ------------  ---------------      ----- ------------  ---------------
   122     -0.244556   4 O  pz              276      0.244556   8 O  pz        
    77      0.229588   3 O  pz              186     -0.229588   6 O  pz        
   118     -0.206501   4 O  pz              272      0.206501   8 O  pz        
    73      0.192071   3 O  pz              182     -0.192071   6 O  pz        
   114     -0.157929   4 O  pz              268      0.157929   8 O  pz        

 Vector   22  Occ=2.000000D+00  E=-3.829398D-01  Symmetry=au
              MO Center= -4.5D-15, -5.0D-16, -1.5D-15, r^2= 3.8D+00
   Bfn.  Coefficient  Atom+Function         Bfn.  Coefficient  Atom+Function  
  ----- ------------  ---------------      ----- ------------  ---------------
   122      0.252116   4 O  pz              276      0.252116   8 O  pz        
    77     -0.225433   3 O  pz              186     -0.225433   6 O  pz        
   118      0.213852   4 O  pz              272      0.213852   8 O  pz        
    73     -0.194620   3 O  pz              182     -0.194620   6 O  pz        
   114      0.163125   4 O  pz              268      0.163125   8 O  pz        

 Vector   23  Occ=2.000000D+00  E=-3.569660D-01  Symmetry=ag
              MO Center= -6.4D-14,  1.1D-13,  1.2D-15, r^2= 4.0D+00
   Bfn.  Coefficient  Atom+Function         Bfn.  Coefficient  Atom+Function  
  ----- ------------  ---------------      ----- ------------  ---------------
    76      0.231905   3 O  py              185     -0.231905   6 O  py        
    75     -0.196209   3 O  px              184      0.196209   6 O  px        
    72      0.170146   3 O  py              181     -0.170146   6 O  py        
   120     -0.169160   4 O  px              274      0.169160   8 O  px        
   123      0.163520   4 O  s               277      0.163520   8 O  s         

 Vector   24  Occ=2.000000D+00  E=-3.385750D-01  Symmetry=bu
              MO Center=  6.5D-14, -1.0D-13,  3.2D-17, r^2= 4.4D+00
   Bfn.  Coefficient  Atom+Function         Bfn.  Coefficient  Atom+Function  
  ----- ------------  ---------------      ----- ------------  ---------------
    76      0.328473   3 O  py              185      0.328473   6 O  py        
    72      0.215657   3 O  py              181      0.215657   6 O  py        
    10     -0.213653   1 C  s               228      0.213653   7 C  s         
   121      0.177139   4 O  py              275      0.177139   8 O  py        
    68      0.167820   3 O  py              177      0.167820   6 O  py        

 Vector   25  Occ=0.000000D+00  E=-1.417025D-01  Symmetry=au
              MO Center= -2.3D-14,  1.8D-13, -3.1D-16, r^2= 4.8D+00
   Bfn.  Coefficient  Atom+Function         Bfn.  Coefficient  Atom+Function  
  ----- ------------  ---------------      ----- ------------  ---------------
    13      0.378606   1 C  pz              231      0.378606   7 C  pz        
     9      0.246677   1 C  pz              227      0.246677   7 C  pz        
    77     -0.211617   3 O  pz              186     -0.211617   6 O  pz        
     5      0.177732   1 C  pz              223      0.177732   7 C  pz        
    73     -0.157332   3 O  pz              182     -0.157332   6 O  pz        

 Vector   26  Occ=0.000000D+00  E=-1.304008D-01  Symmetry=bg
              MO Center=  2.5D-14, -1.8D-13,  1.8D-15, r^2= 4.9D+00
   Bfn.  Coefficient  Atom+Function         Bfn.  Coefficient  Atom+Function  
  ----- ------------  ---------------      ----- ------------  ---------------
    13      0.375048   1 C  pz              231     -0.375048   7 C  pz        
     9      0.244461   1 C  pz              227     -0.244461   7 C  pz        
    77     -0.228309   3 O  pz              186      0.228309   6 O  pz        
   122     -0.183547   4 O  pz              276      0.183547   8 O  pz        
     5      0.173955   1 C  pz              223     -0.173955   7 C  pz        

 Vector   27  Occ=0.000000D+00  E=-2.205301D-02  Symmetry=ag
              MO Center=  6.5D-14,  4.4D-14,  2.6D-14, r^2= 7.7D+00
   Bfn.  Coefficient  Atom+Function         Bfn.  Coefficient  Atom+Function  
  ----- ------------  ---------------      ----- ------------  ---------------
   157      0.642844   5 H  s               311      0.642844   9 H  s         
   158      0.620842   5 H  s               312      0.620842   9 H  s         
   123     -0.493263   4 O  s               277     -0.493263   8 O  s         
    48     -0.441114   2 H  s               330     -0.441114  10 H  s         
    78     -0.425125   3 O  s               187     -0.425125   6 O  s         

 Vector   28  Occ=0.000000D+00  E=-7.400687D-03  Symmetry=ag
              MO Center= -1.7D-16,  0.0D+00, -3.0D-16, r^2= 2.0D+01
   Bfn.  Coefficient  Atom+Function         Bfn.  Coefficient  Atom+Function  
  ----- ------------  ---------------      ----- ------------  ---------------
    49     -1.888135   2 H  s               331     -1.888135  10 H  s         
    14      1.766923   1 C  s               232      1.766923   7 C  s         
    10      0.611604   1 C  s               228      0.611604   7 C  s         
    16      0.438893   1 C  py              234     -0.438893   7 C  py        
    48     -0.388557   2 H  s               330     -0.388557  10 H  s         

 Vector   29  Occ=0.000000D+00  E=-6.176060D-03  Symmetry=bu
              MO Center=  5.9D-14, -3.5D-14,  3.8D-15, r^2= 2.1D+01
   Bfn.  Coefficient  Atom+Function         Bfn.  Coefficient  Atom+Function  
  ----- ------------  ---------------      ----- ------------  ---------------
    49      2.338938   2 H  s               331     -2.338938  10 H  s         
    14     -1.579098   1 C  s               232      1.579098   7 C  s         
    16     -1.032571   1 C  py              234     -1.032571   7 C  py        
    10     -0.544352   1 C  s               228      0.544352   7 C  s         
    48      0.535210   2 H  s               330     -0.535210  10 H  s         

 Vector   30  Occ=0.000000D+00  E= 9.805842D-03  Symmetry=bu
              MO Center= -4.0D-14, -7.5D-15, -1.2D-18, r^2= 1.1D+01
   Bfn.  Coefficient  Atom+Function         Bfn.  Coefficient  Atom+Function  
  ----- ------------  ---------------      ----- ------------  ---------------
   123      1.331104   4 O  s               277     -1.331104   8 O  s         
   157     -1.081770   5 H  s               311      1.081770   9 H  s         
   158     -0.813517   5 H  s               312      0.813517   9 H  s         
    78     -0.745662   3 O  s               187      0.745662   6 O  s         
   119      0.484482   4 O  s               273     -0.484482   8 O  s         

 Vector   31  Occ=0.000000D+00  E= 3.554798D-02  Symmetry=au
              MO Center= -3.8D-15, -1.3D-14, -3.8D-14, r^2= 1.2D+01
   Bfn.  Coefficient  Atom+Function         Bfn.  Coefficient  Atom+Function  
  ----- ------------  ---------------      ----- ------------  ---------------
    17      0.792475   1 C  pz              235      0.792475   7 C  pz        

 Vector   32  Occ=0.000000D+00  E= 4.218582D-02  Symmetry=bu
              MO Center=  8.4D-13, -3.3D-14,  1.5D-14, r^2= 9.7D+00
   Bfn.  Coefficient  Atom+Function         Bfn.  Coefficient  Atom+Function  
  ----- ------------  ---------------      ----- ------------  ---------------
    14      2.536887   1 C  s               232     -2.536887   7 C  s         
    10      1.429885   1 C  s               228     -1.429885   7 C  s         
    78     -1.301367   3 O  s               187      1.301367   6 O  s         
   123     -1.066206   4 O  s               277      1.066206   8 O  s         
    16     -0.918235   1 C  py              234     -0.918235   7 C  py        

 Vector   33  Occ=0.000000D+00  E= 4.992500D-02  Symmetry=ag
              MO Center= -7.8D-13,  1.1D-13,  3.4D-15, r^2= 1.6D+01
   Bfn.  Coefficient  Atom+Function         Bfn.  Coefficient  Atom+Function  
  ----- ------------  ---------------      ----- ------------  ---------------
   158      1.493267   5 H  s               312      1.493267   9 H  s         
    78      1.450053   3 O  s               187      1.450053   6 O  s         
    14     -1.327358   1 C  s               232     -1.327358   7 C  s         
   123     -1.182020   4 O  s               277     -1.182020   8 O  s         
    15      1.150140   1 C  px              233     -1.150140   7 C  px        

 Vector   34  Occ=0.000000D+00  E= 5.637892D-02  Symmetry=ag
              MO Center=  5.8D-13,  4.0D-13,  7.8D-15, r^2= 1.2D+01
   Bfn.  Coefficient  Atom+Function         Bfn.  Coefficient  Atom+Function  
  ----- ------------  ---------------      ----- ------------  ---------------
   158      3.145171   5 H  s               312      3.145171   9 H  s         
    14     -2.121140   1 C  s               232     -2.121140   7 C  s         
    16      1.865318   1 C  py              234     -1.865318   7 C  py        
   123      1.447139   4 O  s               277      1.447139   8 O  s         
    49     -1.290038   2 H  s               331     -1.290038  10 H  s         

 Vector   35  Occ=0.000000D+00  E= 6.546785D-02  Symmetry=bg
              MO Center= -1.3D-15,  8.4D-15, -9.3D-15, r^2= 1.6D+01
   Bfn.  Coefficient  Atom+Function         Bfn.  Coefficient  Atom+Function  
  ----- ------------  ---------------      ----- ------------  ---------------
    17      1.142522   1 C  pz              235     -1.142522   7 C  pz        
    81     -0.207059   3 O  pz              190      0.207059   6 O  pz        
   126     -0.195937   4 O  pz              280      0.195937   8 O  pz        
    13     -0.184395   1 C  pz              231      0.184395   7 C  pz        

 Vector   36  Occ=0.000000D+00  E= 8.068206D-02  Symmetry=bu
              MO Center= -2.9D-12, -1.2D-12,  1.6D-15, r^2= 1.7D+01
   Bfn.  Coefficient  Atom+Function         Bfn.  Coefficient  Atom+Function  
  ----- ------------  ---------------      ----- ------------  ---------------
   158      4.656252   5 H  s               312     -4.656252   9 H  s         
    14     -2.140271   1 C  s               232      2.140271   7 C  s         
    15     -1.912225   1 C  px              233     -1.912225   7 C  px        
   157      0.937860   5 H  s               311     -0.937860   9 H  s         
   125      0.695725   4 O  py              279      0.695725   8 O  py        

 Vector   37  Occ=0.000000D+00  E= 8.563950D-02  Symmetry=ag
              MO Center=  1.6D-12, -1.2D-13,  4.4D-17, r^2= 9.6D+00
   Bfn.  Coefficient  Atom+Function         Bfn.  Coefficient  Atom+Function  
  ----- ------------  ---------------      ----- ------------  ---------------
    14      5.054640   1 C  s               232      5.054640   7 C  s         
   158     -3.387273   5 H  s               312     -3.387273   9 H  s         
    78     -2.228562   3 O  s               187     -2.228562   6 O  s         
    10      1.850426   1 C  s               228      1.850426   7 C  s         
    16     -1.801018   1 C  py              234      1.801018   7 C  py        

 Vector   38  Occ=0.000000D+00  E= 9.582686D-02  Symmetry=bu
              MO Center=  6.8D-13, -1.5D-12, -9.3D-16, r^2= 2.9D+01
   Bfn.  Coefficient  Atom+Function         Bfn.  Coefficient  Atom+Function  
  ----- ------------  ---------------      ----- ------------  ---------------
    49     -6.898757   2 H  s               331      6.898757  10 H  s         
    14      6.397363   1 C  s               232     -6.397363   7 C  s         
    16      4.405423   1 C  py              234      4.405423   7 C  py        
    10      1.461333   1 C  s               228     -1.461333   7 C  s         
    48     -1.289442   2 H  s               330      1.289442  10 H  s         

 Vector   39  Occ=0.000000D+00  E= 9.783175D-02  Symmetry=ag
              MO Center= -3.8D-13,  2.7D-12,  4.7D-17, r^2= 2.9D+01
   Bfn.  Coefficient  Atom+Function         Bfn.  Coefficient  Atom+Function  
  ----- ------------  ---------------      ----- ------------  ---------------
    49     -5.686111   2 H  s               331     -5.686111  10 H  s         
    14      5.462347   1 C  s               232      5.462347   7 C  s         
    16      2.786653   1 C  py              234     -2.786653   7 C  py        
   158      1.252130   5 H  s               312      1.252130   9 H  s         
   157     -0.743988   5 H  s               311     -0.743988   9 H  s         

 Vector   40  Occ=0.000000D+00  E= 1.045478D-01  Symmetry=bu
              MO Center= -2.4D-13, -2.6D-13,  1.3D-16, r^2= 1.5D+01
   Bfn.  Coefficient  Atom+Function         Bfn.  Coefficient  Atom+Function  
  ----- ------------  ---------------      ----- ------------  ---------------
    14      3.161576   1 C  s               232     -3.161576   7 C  s         
   123     -2.359792   4 O  s               277      2.359792   8 O  s         
    49     -2.318706   2 H  s               331      2.318706  10 H  s         
    15      1.404220   1 C  px              233      1.404220   7 C  px        
    16      1.329159   1 C  py              234      1.329159   7 C  py        

 Vector   41  Occ=0.000000D+00  E= 1.327670D-01  Symmetry=au
              MO Center= -1.4D-16,  3.0D-15,  1.0D-15, r^2= 6.9D+00
   Bfn.  Coefficient  Atom+Function         Bfn.  Coefficient  Atom+Function  
  ----- ------------  ---------------      ----- ------------  ---------------
    17      0.660083   1 C  pz              235      0.660083   7 C  pz        
    34      0.603917   1 C  dyz             252     -0.603917   7 C  dyz       
    81     -0.534117   3 O  pz              190     -0.534117   6 O  pz        
   126     -0.351177   4 O  pz              280     -0.351177   8 O  pz        
   122      0.287720   4 O  pz              276      0.287720   8 O  pz        

 Vector   42  Occ=0.000000D+00  E= 1.452099D-01  Symmetry=ag
              MO Center=  1.4D-13,  4.5D-13, -3.3D-15, r^2= 1.1D+01
   Bfn.  Coefficient  Atom+Function         Bfn.  Coefficient  Atom+Function  
  ----- ------------  ---------------      ----- ------------  ---------------
   123      2.847633   4 O  s               277      2.847633   8 O  s         
   157     -2.819036   5 H  s               311     -2.819036   9 H  s         
    14      2.642746   1 C  s               232      2.642746   7 C  s         
    49     -2.218024   2 H  s               331     -2.218024  10 H  s         
    16      1.899933   1 C  py              234     -1.899933   7 C  py        

 Vector   43  Occ=0.000000D+00  E= 1.461640D-01  Symmetry=bg
              MO Center=  3.8D-15,  1.6D-15,  4.9D-16, r^2= 8.9D+00
   Bfn.  Coefficient  Atom+Function         Bfn.  Coefficient  Atom+Function  
  ----- ------------  ---------------      ----- ------------  ---------------
   126      0.832576   4 O  pz              280     -0.832576   8 O  pz        
    81     -0.748442   3 O  pz              190      0.748442   6 O  pz        
    32     -0.354046   1 C  dxz             250     -0.354046   7 C  dxz       
    34     -0.167665   1 C  dyz             252     -0.167665   7 C  dyz       

 Vector   44  Occ=0.000000D+00  E= 1.671182D-01  Symmetry=ag
              MO Center=  2.0D-13,  1.0D-13,  1.7D-16, r^2= 1.4D+01
   Bfn.  Coefficient  Atom+Function         Bfn.  Coefficient  Atom+Function  
  ----- ------------  ---------------      ----- ------------  ---------------
    48     -4.335396   2 H  s               330     -4.335396  10 H  s         
    16      3.943204   1 C  py              234     -3.943204   7 C  py        
    49     -3.468413   2 H  s               331     -3.468413  10 H  s         
    78      2.663658   3 O  s               187      2.663658   6 O  s         
   158      2.245880   5 H  s               312      2.245880   9 H  s         

 Vector   45  Occ=0.000000D+00  E= 1.680395D-01  Symmetry=bu
              MO Center=  1.1D-12, -9.1D-13,  5.1D-15, r^2= 1.5D+01
   Bfn.  Coefficient  Atom+Function         Bfn.  Coefficient  Atom+Function  
  ----- ------------  ---------------      ----- ------------  ---------------
   123      5.874423   4 O  s               277     -5.874423   8 O  s         
   157     -4.659642   5 H  s               311      4.659642   9 H  s         
    16      3.105019   1 C  py              234      3.105019   7 C  py        
    78      2.755879   3 O  s               187     -2.755879   6 O  s         
   125     -2.362774   4 O  py              279     -2.362774   8 O  py        

 Vector   46  Occ=0.000000D+00  E= 1.785542D-01  Symmetry=ag
              MO Center= -6.0D-13,  5.5D-13,  1.5D-15, r^2= 1.3D+01
   Bfn.  Coefficient  Atom+Function         Bfn.  Coefficient  Atom+Function  
  ----- ------------  ---------------      ----- ------------  ---------------
    14      5.227669   1 C  s               232      5.227669   7 C  s         
    78     -4.157959   3 O  s               187     -4.157959   6 O  s         
   157      3.203379   5 H  s               311      3.203379   9 H  s         
    48     -2.319262   2 H  s               330     -2.319262  10 H  s         
    10      2.228952   1 C  s               228      2.228952   7 C  s         

 Vector   47  Occ=0.000000D+00  E= 1.850614D-01  Symmetry=bu
              MO Center=  3.5D-14,  1.2D-13, -1.2D-15, r^2= 9.8D+00
   Bfn.  Coefficient  Atom+Function         Bfn.  Coefficient  Atom+Function  
  ----- ------------  ---------------      ----- ------------  ---------------
    14      4.800495   1 C  s               232     -4.800495   7 C  s         
    78     -2.735712   3 O  s               187      2.735712   6 O  s         
    48     -1.769076   2 H  s               330      1.769076  10 H  s         
   123     -1.411211   4 O  s               277      1.411211   8 O  s         
    10      1.209777   1 C  s               228     -1.209777   7 C  s         

 Vector   48  Occ=0.000000D+00  E= 2.008224D-01  Symmetry=ag
              MO Center= -5.8D-14, -2.0D-13,  5.1D-17, r^2= 1.0D+01
   Bfn.  Coefficient  Atom+Function         Bfn.  Coefficient  Atom+Function  
  ----- ------------  ---------------      ----- ------------  ---------------
    14      7.011161   1 C  s               232      7.011161   7 C  s         
   158     -3.198676   5 H  s               312     -3.198676   9 H  s         
   123     -2.024723   4 O  s               277     -2.024723   8 O  s         
    78     -1.905398   3 O  s               187     -1.905398   6 O  s         
    10      1.726284   1 C  s               228      1.726284   7 C  s         

 Vector   49  Occ=0.000000D+00  E= 2.085849D-01  Symmetry=au
              MO Center=  5.6D-16, -1.2D-15,  5.8D-16, r^2= 1.1D+01
   Bfn.  Coefficient  Atom+Function         Bfn.  Coefficient  Atom+Function  
  ----- ------------  ---------------      ----- ------------  ---------------
   126      1.343282   4 O  pz              280      1.343282   8 O  pz        
    81     -0.664628   3 O  pz              190     -0.664628   6 O  pz        
    17     -0.329500   1 C  pz              235     -0.329500   7 C  pz        
   122     -0.172601   4 O  pz              276     -0.172601   8 O  pz        
    77      0.163813   3 O  pz              186      0.163813   6 O  pz        

 Vector   50  Occ=0.000000D+00  E= 2.142420D-01  Symmetry=bu
              MO Center= -1.4D-12,  1.1D-12, -1.1D-14, r^2= 1.1D+01
   Bfn.  Coefficient  Atom+Function         Bfn.  Coefficient  Atom+Function  
  ----- ------------  ---------------      ----- ------------  ---------------
   123      7.345490   4 O  s               277     -7.345490   8 O  s         
   157     -6.955967   5 H  s               311      6.955967   9 H  s         
    78     -4.467737   3 O  s               187      4.467737   6 O  s         
    49      2.418346   2 H  s               331     -2.418346  10 H  s         
    79     -2.292498   3 O  px              188     -2.292498   6 O  px        

 Vector   51  Occ=0.000000D+00  E= 2.250036D-01  Symmetry=bu
              MO Center= -2.4D-12, -8.2D-13, -9.6D-16, r^2= 1.6D+01
   Bfn.  Coefficient  Atom+Function         Bfn.  Coefficient  Atom+Function  
  ----- ------------  ---------------      ----- ------------  ---------------
   158      5.475247   5 H  s               312     -5.475247   9 H  s         
    16     -3.807503   1 C  py              157      3.794093   5 H  s         
   234     -3.807503   7 C  py              311     -3.794093   9 H  s         
    14     -3.215578   1 C  s               232      3.215578   7 C  s         
    49      3.108937   2 H  s               331     -3.108937  10 H  s         

 Vector   52  Occ=0.000000D+00  E= 2.303592D-01  Symmetry=bu
              MO Center=  2.2D-13, -3.2D-13, -5.8D-16, r^2= 1.8D+01
   Bfn.  Coefficient  Atom+Function         Bfn.  Coefficient  Atom+Function  
  ----- ------------  ---------------      ----- ------------  ---------------
    16      8.243979   1 C  py              234      8.243979   7 C  py        
    49     -6.698481   2 H  s               331      6.698481  10 H  s         
    48     -5.527514   2 H  s               330      5.527514  10 H  s         
   123      3.359116   4 O  s               277     -3.359116   8 O  s         
   158      2.648354   5 H  s               312     -2.648354   9 H  s         

 Vector   53  Occ=0.000000D+00  E= 2.390306D-01  Symmetry=au
              MO Center=  5.7D-15,  1.9D-15,  7.0D-13, r^2= 1.2D+01
   Bfn.  Coefficient  Atom+Function         Bfn.  Coefficient  Atom+Function  
  ----- ------------  ---------------      ----- ------------  ---------------
    81      1.339541   3 O  pz              190      1.339541   6 O  pz        
    17     -1.140098   1 C  pz              235     -1.140098   7 C  pz        
    34      1.029517   1 C  dyz             252     -1.029517   7 C  dyz       
   126      0.768632   4 O  pz              280      0.768632   8 O  pz        
    13     -0.436068   1 C  pz              231     -0.436068   7 C  pz        

 Vector   54  Occ=0.000000D+00  E= 2.390782D-01  Symmetry=ag
              MO Center=  2.5D-12,  9.4D-13, -6.9D-13, r^2= 1.7D+01
   Bfn.  Coefficient  Atom+Function         Bfn.  Coefficient  Atom+Function  
  ----- ------------  ---------------      ----- ------------  ---------------
   123      8.134632   4 O  s               277      8.134632   8 O  s         
   157     -7.339086   5 H  s               311     -7.339086   9 H  s         
    16      5.707447   1 C  py              234     -5.707447   7 C  py        
    49     -4.546442   2 H  s               158      4.562842   5 H  s         
   312      4.562842   9 H  s               331     -4.546442  10 H  s         

 Vector   55  Occ=0.000000D+00  E= 2.538658D-01  Symmetry=ag
              MO Center= -1.1D-13, -4.1D-13,  7.7D-17, r^2= 1.5D+01
   Bfn.  Coefficient  Atom+Function         Bfn.  Coefficient  Atom+Function  
  ----- ------------  ---------------      ----- ------------  ---------------
   158     -2.544258   5 H  s               312     -2.544258   9 H  s         
    14      2.479119   1 C  s               232      2.479119   7 C  s         
   124      2.406965   4 O  px              278     -2.406965   8 O  px        
    16     -2.180843   1 C  py              234      2.180843   7 C  py        
   123     -1.348751   4 O  s               277     -1.348751   8 O  s         

 Vector   56  Occ=0.000000D+00  E= 2.585543D-01  Symmetry=bu
              MO Center=  1.6D-12,  3.2D-12,  3.2D-13, r^2= 1.2D+01
   Bfn.  Coefficient  Atom+Function         Bfn.  Coefficient  Atom+Function  
  ----- ------------  ---------------      ----- ------------  ---------------
    78     -6.113856   3 O  s               187      6.113856   6 O  s         
    14      5.821088   1 C  s               232     -5.821088   7 C  s         
   157     -5.022186   5 H  s               311      5.022186   9 H  s         
    10      4.097310   1 C  s               228     -4.097310   7 C  s         
   123      3.078239   4 O  s               277     -3.078239   8 O  s         

 Vector   57  Occ=0.000000D+00  E= 2.593928D-01  Symmetry=bg
              MO Center= -2.5D-15,  3.6D-15, -3.2D-13, r^2= 1.3D+01
   Bfn.  Coefficient  Atom+Function         Bfn.  Coefficient  Atom+Function  
  ----- ------------  ---------------      ----- ------------  ---------------
    17      1.440413   1 C  pz               81     -1.435855   3 O  pz        
   190      1.435855   6 O  pz              235     -1.440413   7 C  pz        
   126     -1.375104   4 O  pz              280      1.375104   8 O  pz        
    34     -0.600155   1 C  dyz             252     -0.600155   7 C  dyz       
    13      0.400133   1 C  pz              231     -0.400133   7 C  pz        

 Vector   58  Occ=0.000000D+00  E= 2.692781D-01  Symmetry=bg
              MO Center= -1.5D-15, -9.3D-15,  3.1D-15, r^2= 7.8D+00
   Bfn.  Coefficient  Atom+Function         Bfn.  Coefficient  Atom+Function  
  ----- ------------  ---------------      ----- ------------  ---------------
    34      0.712768   1 C  dyz             252      0.712768   7 C  dyz       
    58      0.409035   2 H  pz              340     -0.409035  10 H  pz        
    17     -0.259969   1 C  pz              235      0.259969   7 C  pz        
    13     -0.257559   1 C  pz              231      0.257559   7 C  pz        
    77      0.255057   3 O  pz              186     -0.255057   6 O  pz        

 Vector   59  Occ=0.000000D+00  E= 2.810041D-01  Symmetry=bu
              MO Center= -9.0D-13, -1.2D-12, -1.0D-15, r^2= 1.4D+01
   Bfn.  Coefficient  Atom+Function         Bfn.  Coefficient  Atom+Function  
  ----- ------------  ---------------      ----- ------------  ---------------
   123      6.920462   4 O  s               277     -6.920462   8 O  s         
    14     -5.565703   1 C  s               232      5.565703   7 C  s         
    10     -3.505017   1 C  s               228      3.505017   7 C  s         
    49      2.185997   2 H  s               331     -2.185997  10 H  s         
    15     -1.882824   1 C  px              233     -1.882824   7 C  px        

 Vector   60  Occ=0.000000D+00  E= 2.875510D-01  Symmetry=ag
              MO Center= -6.4D-13, -1.0D-12, -4.7D-15, r^2= 1.1D+01
   Bfn.  Coefficient  Atom+Function         Bfn.  Coefficient  Atom+Function  
  ----- ------------  ---------------      ----- ------------  ---------------
   123     11.679704   4 O  s               277     11.679704   8 O  s         
   157     -5.889690   5 H  s               311     -5.889690   9 H  s         
    14     -4.926840   1 C  s               232     -4.926840   7 C  s         
    10     -2.984509   1 C  s               228     -2.984509   7 C  s         
   124     -2.420225   4 O  px              278      2.420225   8 O  px        

 Vector   61  Occ=0.000000D+00  E= 2.992614D-01  Symmetry=ag
              MO Center=  3.5D-13, -1.6D-12, -1.0D-14, r^2= 1.1D+01
   Bfn.  Coefficient  Atom+Function         Bfn.  Coefficient  Atom+Function  
  ----- ------------  ---------------      ----- ------------  ---------------
    78     -6.570678   3 O  s               187     -6.570678   6 O  s         
    14      6.274431   1 C  s               232      6.274431   7 C  s         
    10      5.070636   1 C  s               228      5.070636   7 C  s         
   123      3.477873   4 O  s               277      3.477873   8 O  s         
   157     -3.392237   5 H  s               311     -3.392237   9 H  s         

 Vector   62  Occ=0.000000D+00  E= 3.144981D-01  Symmetry=bg
              MO Center= -3.4D-14, -2.5D-14,  1.9D-15, r^2= 6.6D+00
   Bfn.  Coefficient  Atom+Function         Bfn.  Coefficient  Atom+Function  
  ----- ------------  ---------------      ----- ------------  ---------------
    32      1.151093   1 C  dxz             250      1.151093   7 C  dxz       
   167     -0.692727   5 H  pz              321      0.692727   9 H  pz        
    17      0.275916   1 C  pz              235     -0.275916   7 C  pz        
    34     -0.242623   1 C  dyz             252     -0.242623   7 C  dyz       
    77      0.233941   3 O  pz              186     -0.233941   6 O  pz        

 Vector   63  Occ=0.000000D+00  E= 3.267871D-01  Symmetry=bu
              MO Center=  2.5D-13,  1.2D-12, -3.5D-15, r^2= 9.6D+00
   Bfn.  Coefficient  Atom+Function         Bfn.  Coefficient  Atom+Function  
  ----- ------------  ---------------      ----- ------------  ---------------
    14      4.534828   1 C  s               232     -4.534828   7 C  s         
    10      3.569003   1 C  s               228     -3.569003   7 C  s         
   157      3.445892   5 H  s               311     -3.445892   9 H  s         
    80     -3.296182   3 O  py              189     -3.296182   6 O  py        
   123     -3.069227   4 O  s               277      3.069227   8 O  s         

 Vector   64  Occ=0.000000D+00  E= 3.372833D-01  Symmetry=au
              MO Center=  3.2D-14,  2.9D-14,  3.9D-14, r^2= 9.6D+00
   Bfn.  Coefficient  Atom+Function         Bfn.  Coefficient  Atom+Function  
  ----- ------------  ---------------      ----- ------------  ---------------
    58      0.943327   2 H  pz              340      0.943327  10 H  pz        
   167      0.650982   5 H  pz              321      0.650982   9 H  pz        
    34     -0.596181   1 C  dyz             252      0.596181   7 C  dyz       
    81     -0.540367   3 O  pz              190     -0.540367   6 O  pz        
   126     -0.497386   4 O  pz              280     -0.497386   8 O  pz        

 Vector   65  Occ=0.000000D+00  E= 3.377197D-01  Symmetry=ag
              MO Center=  1.2D-13, -2.9D-13, -4.4D-14, r^2= 1.2D+01
   Bfn.  Coefficient  Atom+Function         Bfn.  Coefficient  Atom+Function  
  ----- ------------  ---------------      ----- ------------  ---------------
    14      6.501178   1 C  s               232      6.501178   7 C  s         
   157     -4.759011   5 H  s               311     -4.759011   9 H  s         
    48     -4.284823   2 H  s               330     -4.284823  10 H  s         
    80     -4.121607   3 O  py              189      4.121607   6 O  py        
    49     -3.421946   2 H  s               331     -3.421946  10 H  s         

 Vector   66  Occ=0.000000D+00  E= 3.488680D-01  Symmetry=ag
              MO Center= -9.1D-14,  4.2D-13, -1.9D-16, r^2= 9.5D+00
   Bfn.  Coefficient  Atom+Function         Bfn.  Coefficient  Atom+Function  
  ----- ------------  ---------------      ----- ------------  ---------------
    78      6.187057   3 O  s               187      6.187057   6 O  s         
   157     -5.478788   5 H  s               311     -5.478788   9 H  s         
   123      3.511776   4 O  s               277      3.511776   8 O  s         
   125     -3.296164   4 O  py              279      3.296164   8 O  py        
    16      1.907556   1 C  py              234     -1.907556   7 C  py        

 Vector   67  Occ=0.000000D+00  E= 3.596350D-01  Symmetry=bu
              MO Center= -2.2D-13,  2.0D-12,  2.5D-15, r^2= 1.2D+01
   Bfn.  Coefficient  Atom+Function         Bfn.  Coefficient  Atom+Function  
  ----- ------------  ---------------      ----- ------------  ---------------
    48      3.473811   2 H  s               330     -3.473811  10 H  s         
   123      3.431185   4 O  s               277     -3.431185   8 O  s         
   157     -3.257161   5 H  s               311      3.257161   9 H  s         
   125     -3.049996   4 O  py              279     -3.049996   8 O  py        
    80     -2.098378   3 O  py              189     -2.098378   6 O  py        

 Vector   68  Occ=0.000000D+00  E= 4.148095D-01  Symmetry=ag
              MO Center= -1.2D-13, -8.2D-13, -3.7D-16, r^2= 1.5D+01
   Bfn.  Coefficient  Atom+Function         Bfn.  Coefficient  Atom+Function  
  ----- ------------  ---------------      ----- ------------  ---------------
    48      6.811123   2 H  s               330      6.811123  10 H  s         
    12     -3.915022   1 C  py              230      3.915022   7 C  py        
    14      2.608839   1 C  s               232      2.608839   7 C  s         
    78     -2.353919   3 O  s               187     -2.353919   6 O  s         
   157     -1.821729   5 H  s               311     -1.821729   9 H  s         

 Vector   69  Occ=0.000000D+00  E= 4.319527D-01  Symmetry=bu
              MO Center=  3.3D-13, -1.2D-12, -3.3D-17, r^2= 1.5D+01
   Bfn.  Coefficient  Atom+Function         Bfn.  Coefficient  Atom+Function  
  ----- ------------  ---------------      ----- ------------  ---------------
    48    -10.009833   2 H  s               330     10.009833  10 H  s         
    16      9.391004   1 C  py              234      9.391004   7 C  py        
   123      6.930887   4 O  s               277     -6.930887   8 O  s         
    49     -6.304058   2 H  s               331      6.304058  10 H  s         
    78      5.738394   3 O  s               187     -5.738394   6 O  s         

 Vector   70  Occ=0.000000D+00  E= 4.389210D-01  Symmetry=au
              MO Center= -6.6D-15, -3.8D-14, -3.6D-14, r^2= 8.1D+00
   Bfn.  Coefficient  Atom+Function         Bfn.  Coefficient  Atom+Function  
  ----- ------------  ---------------      ----- ------------  ---------------
    32      2.286681   1 C  dxz             250     -2.286681   7 C  dxz       
    81      0.891247   3 O  pz              190      0.891247   6 O  pz        
   126     -0.683025   4 O  pz              280     -0.683025   8 O  pz        
    77      0.386034   3 O  pz              186      0.386034   6 O  pz        
   122     -0.375656   4 O  pz              276     -0.375656   8 O  pz        

 Vector   71  Occ=0.000000D+00  E= 4.426068D-01  Symmetry=ag
              MO Center=  2.1D-13, -3.8D-13,  3.5D-14, r^2= 1.1D+01
   Bfn.  Coefficient  Atom+Function         Bfn.  Coefficient  Atom+Function  
  ----- ------------  ---------------      ----- ------------  ---------------
    78      6.593233   3 O  s               187      6.593233   6 O  s         
    16      4.888791   1 C  py              234     -4.888791   7 C  py        
    48     -3.966511   2 H  s               330     -3.966511  10 H  s         
   158      3.906158   5 H  s               312      3.906158   9 H  s         
    49     -3.767869   2 H  s               331     -3.767869  10 H  s         

 Vector   72  Occ=0.000000D+00  E= 4.468088D-01  Symmetry=bg
              MO Center=  4.9D-15,  2.7D-14,  2.8D-15, r^2= 7.5D+00
   Bfn.  Coefficient  Atom+Function         Bfn.  Coefficient  Atom+Function  
  ----- ------------  ---------------      ----- ------------  ---------------
    32      1.196188   1 C  dxz             250      1.196188   7 C  dxz       
    34     -0.939667   1 C  dyz             252     -0.939667   7 C  dyz       
    58      0.788617   2 H  pz              340     -0.788617  10 H  pz        
   126     -0.630386   4 O  pz              280      0.630386   8 O  pz        
    13      0.525550   1 C  pz              231     -0.525550   7 C  pz        

 Vector   73  Occ=0.000000D+00  E= 4.766190D-01  Symmetry=au
              MO Center=  3.0D-15, -3.7D-15,  2.5D-15, r^2= 6.3D+00
   Bfn.  Coefficient  Atom+Function         Bfn.  Coefficient  Atom+Function  
  ----- ------------  ---------------      ----- ------------  ---------------
    13      1.539927   1 C  pz              231      1.539927   7 C  pz        
    32     -0.857502   1 C  dxz             250      0.857502   7 C  dxz       
    34     -0.781405   1 C  dyz             252      0.781405   7 C  dyz       
    81     -0.547674   3 O  pz              190     -0.547674   6 O  pz        
     9     -0.521591   1 C  pz              227     -0.521591   7 C  pz        

 Vector   74  Occ=0.000000D+00  E= 4.798733D-01  Symmetry=bu
              MO Center=  2.6D-13,  3.9D-14, -5.4D-15, r^2= 1.3D+01
   Bfn.  Coefficient  Atom+Function         Bfn.  Coefficient  Atom+Function  
  ----- ------------  ---------------      ----- ------------  ---------------
    48      4.917593   2 H  s               330     -4.917593  10 H  s         
    16     -3.219681   1 C  py              234     -3.219681   7 C  py        
    12     -2.791608   1 C  py               35     -2.797880   1 C  dzz       
   230     -2.791608   7 C  py              253      2.797880   7 C  dzz       
    33     -2.712738   1 C  dyy             251      2.712738   7 C  dyy       

 Vector   75  Occ=0.000000D+00  E= 4.944387D-01  Symmetry=bu
              MO Center= -2.4D-14,  8.5D-14, -1.1D-16, r^2= 9.8D+00
   Bfn.  Coefficient  Atom+Function         Bfn.  Coefficient  Atom+Function  
  ----- ------------  ---------------      ----- ------------  ---------------
   157     10.361360   5 H  s               311    -10.361360   9 H  s         
   123     -6.968413   4 O  s               277      6.968413   8 O  s         
   166      2.734594   5 H  py              320      2.734594   9 H  py        
   125      2.652213   4 O  py              279      2.652213   8 O  py        
    10      1.961091   1 C  s               228     -1.961091   7 C  s         

 Vector   76  Occ=0.000000D+00  E= 5.017822D-01  Symmetry=bg
              MO Center= -2.0D-15,  2.8D-15, -5.5D-16, r^2= 6.9D+00
   Bfn.  Coefficient  Atom+Function         Bfn.  Coefficient  Atom+Function  
  ----- ------------  ---------------      ----- ------------  ---------------
    32      1.763660   1 C  dxz             250      1.763660   7 C  dxz       
    34      1.447622   1 C  dyz             252      1.447622   7 C  dyz       
    81      0.970131   3 O  pz              190     -0.970131   6 O  pz        
   167      0.844630   5 H  pz              321     -0.844630   9 H  pz        
    13     -0.635756   1 C  pz              231      0.635756   7 C  pz        


 center of mass
 --------------
 x =   0.00000000 y =  -0.00000000 z =   0.00000000

 moments of inertia (a.u.)
 ------------------
         801.882617372477          -0.000000000000           0.000000000000
          -0.000000000000         297.761792013422           0.000000000000
           0.000000000000           0.000000000000        1099.644409385899

     Multipole analysis of the density
     ---------------------------------

     L   x y z        total         alpha         beta         nuclear
     -   - - -        -----         -----         ----         -------
     0   0 0 0     -0.000000    -24.000000    -24.000000     48.000000

     1   1 0 0     -0.000000     -0.000000     -0.000000      0.000000
     1   0 1 0      0.000000      0.000000      0.000000      0.000000
     1   0 0 1      0.000000      0.000000      0.000000      0.000000

     2   2 0 0    -31.075644    -92.309028    -92.309028    153.542412
     2   1 1 0     -0.788228     -0.092594     -0.092594     -0.603040
     2   1 0 1      0.000000      0.000000      0.000000      0.000000
     2   0 2 0    -19.497181   -226.689239   -226.689239    433.881297
     2   0 1 1     -0.000000     -0.000000     -0.000000      0.000000
     2   0 0 2    -26.117143    -13.058571    -13.058571      0.000000


------------------------------------------------------------
EAF file 0: "./HF-HF.aoints.00" size=246415360 bytes
------------------------------------------------------------
               write      read    awrite     aread      wait
               -----      ----    ------     -----      ----
     calls:      470        13         0      6097      6097
   data(b): 2.46e+08  6.82e+06  0.00e+00  3.20e+09
   time(s): 0.00e+00  0.00e+00  0.00e+00  0.00e+00  0.00e+00
rate(mb/s): 0.00e+00  0.00e+00
------------------------------------------------------------


 Parallel integral file used    7533 records with       0 large values


 Task  times  cpu:       27.1s     wall:       29.6s


                                NWChem Input Module
                                -------------------


 Summary of allocated global arrays
-----------------------------------
  No active global arrays



                         GA Statistics for process    0
                         ------------------------------

       create   destroy   get      put      acc     scatter   gather  read&inc
calls:  360      360     1.12e+04 3470     4676        0        0      354     
number of processes/call 1.51e+00 1.49e+00 1.40e+00 0.00e+00 0.00e+00
bytes total:             3.10e+08 5.69e+07 1.48e+08 0.00e+00 0.00e+00 2.83e+03
bytes remote:            2.58e+08 3.28e+07 1.29e+08 0.00e+00 0.00e+00 0.00e+00
Max memory consumed for GA by this process: 3536824 bytes

MA_summarize_allocated_blocks: starting scan ...
MA_summarize_allocated_blocks: scan completed: 0 heap blocks, 0 stack blocks
MA usage statistics:

	allocation statistics:
					      heap	     stack
					      ----	     -----
	current number of blocks	         0	         0
	maximum number of blocks	        23	        55
	current total bytes		         0	         0
	maximum total bytes		    455960	  35071208
	maximum total K-bytes		       456	     35072
	maximum total M-bytes		         1	        36


                                     CITATION
                                     --------
                Please cite the following reference when publishing
                           results obtained with NWChem:

                 M. Valiev, E.J. Bylaska, N. Govind, K. Kowalski,
              T.P. Straatsma, H.J.J. van Dam, D. Wang, J. Nieplocha,
                        E. Apra, T.L. Windus, W.A. de Jong
                 "NWChem: a comprehensive and scalable open-source
                  solution for large scale molecular simulations"
                      Comput. Phys. Commun. 181, 1477 (2010)
                           doi:10.1016/j.cpc.2010.04.018

                                      AUTHORS
                                      -------
          E. Apra, E. J. Bylaska, W. A. de Jong, N. Govind, K. Kowalski,
       T. P. Straatsma, M. Valiev, H. J. J. van Dam, D. Wang, T. L. Windus,
        J. Hammond, J. Autschbach, K. Bhaskaran-Nair, J. Brabec, K. Lopata,
       S. A. Fischer, S. Krishnamoorthy, W. Ma, M. Klemm, O. Villa, Y. Chen,
    V. Anisimov, F. Aquino, S. Hirata, M. T. Hackler, T. Risthaus, M. Malagoli,
       A. Marenich, A. Otero-de-la-Roza, J. Mullin, P. Nichols, R. Peverati,
     J. Pittner, Y. Zhao, P.-D. Fan, A. Fonari, M. Williamson, R. J. Harrison,
       J. R. Rehr, M. Dupuis, D. Silverstein, D. M. A. Smith, J. Nieplocha,
        V. Tipparaju, M. Krishnan, B. E. Van Kuiken, A. Vazquez-Mayagoitia,
        L. Jensen, M. Swart, Q. Wu, T. Van Voorhis, A. A. Auer, M. Nooijen,
      L. D. Crosby, E. Brown, G. Cisneros, G. I. Fann, H. Fruchtl, J. Garza,
        K. Hirao, R. A. Kendall, J. A. Nichols, K. Tsemekhman, K. Wolinski,
     J. Anchell, D. E. Bernholdt, P. Borowski, T. Clark, D. Clerc, H. Dachsel,
   M. J. O. Deegan, K. Dyall, D. Elwood, E. Glendening, M. Gutowski, A. C. Hess,
         J. Jaffe, B. G. Johnson, J. Ju, R. Kobayashi, R. Kutteh, Z. Lin,
   R. Littlefield, X. Long, B. Meng, T. Nakajima, S. Niu, L. Pollack, M. Rosing,
   K. Glaesemann, G. Sandrone, M. Stave, H. Taylor, G. Thomas, J. H. van Lenthe,
                               A. T. Wong, Z. Zhang.

 Total times  cpu:       27.1s     wall:       29.8s
