[1537765245.322377] [r8n4:2944 :0]         sys.c:744  MXM  WARN  Conflicting CPU frequencies detected, using: 1791.21
[1537765245.332396] [r8n4:2947 :0]         sys.c:744  MXM  WARN  Conflicting CPU frequencies detected, using: 1597.15
[1537765245.332432] [r8n4:2945 :0]         sys.c:744  MXM  WARN  Conflicting CPU frequencies detected, using: 1597.15
[1537765245.332457] [r8n4:2948 :0]         sys.c:744  MXM  WARN  Conflicting CPU frequencies detected, using: 1597.15
[1537765245.332538] [r8n4:2946 :0]         sys.c:744  MXM  WARN  Conflicting CPU frequencies detected, using: 1597.15
[1537765245.333425] [r8n4:2949 :0]         sys.c:744  MXM  WARN  Conflicting CPU frequencies detected, using: 1597.15
[1537765245.333618] [r8n4:2951 :0]         sys.c:744  MXM  WARN  Conflicting CPU frequencies detected, using: 1597.15
[1537765245.353529] [r8n4:2953 :0]         sys.c:744  MXM  WARN  Conflicting CPU frequencies detected, using: 1797.23
[1537765245.353529] [r8n4:2950 :0]         sys.c:744  MXM  WARN  Conflicting CPU frequencies detected, using: 1797.23
[1537765245.362798] [r8n4:2955 :0]         sys.c:744  MXM  WARN  Conflicting CPU frequencies detected, using: 1891.75
[1537765245.392247] [r8n4:2965 :0]         sys.c:744  MXM  WARN  Conflicting CPU frequencies detected, using: 2096.50
[1537765245.392249] [r8n4:2962 :0]         sys.c:744  MXM  WARN  Conflicting CPU frequencies detected, using: 2096.50
[1537765245.392341] [r8n4:2968 :0]         sys.c:744  MXM  WARN  Conflicting CPU frequencies detected, using: 2096.50
[1537765245.392374] [r8n4:2960 :0]         sys.c:744  MXM  WARN  Conflicting CPU frequencies detected, using: 2096.50
[1537765245.392395] [r8n4:2958 :0]         sys.c:744  MXM  WARN  Conflicting CPU frequencies detected, using: 2096.50
[1537765245.395842] [r8n4:2966 :0]         sys.c:744  MXM  WARN  Conflicting CPU frequencies detected, using: 2197.04
 argument  1 = /storage/home/bikashp/nwchem_run/rabeet/hb6/nwhb6/NH3-H2O.nw
                                         
                                         


              Northwest Computational Chemistry Package (NWChem) 6.6
              ------------------------------------------------------


                    Environmental Molecular Sciences Laboratory
                       Pacific Northwest National Laboratory
                                Richland, WA 99352

                              Copyright (c) 1994-2015
                       Pacific Northwest National Laboratory
                            Battelle Memorial Institute

             NWChem is an open-source computational chemistry package
                        distributed under the terms of the
                      Educational Community License (ECL) 2.0
             A copy of the license is included with this distribution
                              in the LICENSE.TXT file

                                  ACKNOWLEDGMENT
                                  --------------

            This software and its documentation were developed at the
            EMSL at Pacific Northwest National Laboratory, a multiprogram
            national laboratory, operated for the U.S. Department of Energy
            by Battelle under Contract Number DE-AC05-76RL01830. Support
            for this work was provided by the Department of Energy Office
            of Biological and Environmental Research, Office of Basic
            Energy Sciences, and the Office of Advanced Scientific Computing.


           Job information
           ---------------

    hostname        = r8n4.niserhpc.org
    program         = /home/bikashp/Code/nwchem-6.6_tpssloc/bin/LINUX64/nwchem
    date            = Mon Sep 24 10:30:48 2018

    compiled        = Tue_Sep_18_16:24:59_2018
    source          = /home/bikashp/Code/nwchem-6.6_tpssloc
    nwchem branch   = 6.6
    nwchem revision = 27746
    ga revision     = 10594
    input           = /storage/home/bikashp/nwchem_run/rabeet/hb6/nwhb6/NH3-H2O.nw
    prefix          = NH3-H2O.
    data base       = ./NH3-H2O.db
    status          = startup
    nproc           =       16
    time left       =     -1s



           Memory information
           ------------------

    heap     =   13107196 doubles =    100.0 Mbytes
    stack    =   13107201 doubles =    100.0 Mbytes
    global   =   26214400 doubles =    200.0 Mbytes (distinct from heap & stack)
    total    =   52428797 doubles =    400.0 Mbytes
    verify   = yes
    hardfail = no 


           Directory information
           ---------------------

  0 permanent = .
  0 scratch   = .




                                NWChem Input Module
                                -------------------



 Scaling coordinates for geometry "geometry" by  1.889725989
 (inverse scale =  0.529177249)

 CS  symmetry detected

          ------
          auto-z
          ------
  autoz: The atoms group into disjoint clusters
 cluster   1:    1    2
 cluster   2:    3    4
 Connecting clusters   1   2 via atoms    1    4 r = 1.86
  autoz: regenerating connections with new bonds


                             Geometry "geometry" -> ""
                             -------------------------

 Output coordinates in angstroms (scale by  1.889725989 to convert to a.u.)

  No.       Tag          Charge          X              Y              Z
 ---- ---------------- ---------- -------------- -------------- --------------
    1 F                    9.0000    -0.06439209    -1.32524866     0.00000000
    2 H                    1.0000     0.76719931    -1.72580394     0.00000000
    3 F                    9.0000    -0.00916764     1.45729794     0.00000000
    4 H                    1.0000    -0.10516170     0.53736046     0.00000000

      Atomic Mass 
      ----------- 

      F                 18.998400
      H                  1.007825


 Effective nuclear repulsion energy (a.u.)      29.9382962239

            Nuclear Dipole moment (a.u.) 
            ----------------------------
        X                 Y               Z
 ---------------- ---------------- ----------------
    -0.0000000000     0.0000000000     0.0000000000

      Symmetry information
      --------------------

 Group name             Cs        
 Group number              2
 Group order               2
 No. of unique centers     4

      Symmetry unique atoms

     1    2    3    4



                                Z-matrix (autoz)
                                -------- 

 Units are Angstrom for bonds and degrees for angles

      Type          Name      I     J     K     L     M      Value
      ----------- --------  ----- ----- ----- ----- ----- ----------
    1 Stretch                  1     4                       1.86306
    2 Stretch                  1     2                       0.92303
    3 Stretch                  3     4                       0.92493
    4 Bend                     1     4     3               172.78892
    5 Bend                     2     1     4               116.97278
    6 Torsion                  2     1     4     3           0.00000


            XYZ format geometry
            -------------------
     4
 geometry
 F                    -0.06439209    -1.32524866     0.00000000
 H                     0.76719931    -1.72580394     0.00000000
 F                    -0.00916764     1.45729794     0.00000000
 H                    -0.10516170     0.53736046     0.00000000

 ==============================================================================
                                internuclear distances
 ------------------------------------------------------------------------------
       center one      |      center two      | atomic units |  angstroms
 ------------------------------------------------------------------------------
    2 H                |   1 F                |     1.74428  |     0.92303
    4 H                |   3 F                |     1.74787  |     0.92493
 ------------------------------------------------------------------------------
                         number of included internuclear distances:          2
 ==============================================================================





 Summary of "ao basis" -> "" (cartesian)
 ------------------------------------------------------------------------------
       Tag                 Description            Shells   Functions and Types
 ---------------- ------------------------------  ------  ---------------------
 *                     6-311++G(3df,3pd)              on all atoms 



                                 NWChem DFT Module
                                 -----------------


                      Basis "ao basis" -> "ao basis" (cartesian)
                      -----
  F (Fluorine)
  ------------
            Exponent  Coefficients 
       -------------- ---------------------------------------------------------
  1 S  1.14271000E+04  0.001801
  1 S  1.72235000E+03  0.013742
  1 S  3.95746000E+02  0.068133
  1 S  1.15139000E+02  0.233325
  1 S  3.36026000E+01  0.589086
  1 S  4.91901000E+00  0.299505

  2 S  5.54441000E+01  0.114536
  2 S  1.26323000E+01  0.920512
  2 S  3.71756000E+00 -0.003378

  3 P  5.54441000E+01  0.035461
  3 P  1.26323000E+01  0.237451
  3 P  3.71756000E+00  0.820458

  4 S  1.16545000E+00  1.000000

  5 P  1.16545000E+00  1.000000

  6 S  3.21892000E-01  1.000000

  7 P  3.21892000E-01  1.000000

  8 S  1.07600000E-01  1.000000

  9 P  1.07600000E-01  1.000000

 10 D  7.00000000E+00  1.000000

 11 D  1.75000000E+00  1.000000

 12 D  4.37500000E-01  1.000000

 13 F  1.85000000E+00  1.000000

  H (Hydrogen)
  ------------
            Exponent  Coefficients 
       -------------- ---------------------------------------------------------
  1 S  3.38650000E+01  0.025494
  1 S  5.09479000E+00  0.190373
  1 S  1.15879000E+00  0.852161

  2 S  3.25840000E-01  1.000000

  3 S  1.02741000E-01  1.000000

  4 S  3.60000000E-02  1.000000

  5 P  3.00000000E+00  1.000000

  6 P  7.50000000E-01  1.000000

  7 P  1.87500000E-01  1.000000

  8 D  1.00000000E+00  1.000000



 Summary of "ao basis" -> "ao basis" (cartesian)
 ------------------------------------------------------------------------------
       Tag                 Description            Shells   Functions and Types
 ---------------- ------------------------------  ------  ---------------------
 F                     6-311++G(3df,3pd)            13       45   5s4p3d1f
 H                     6-311++G(3df,3pd)             8       19   4s3p1d




 Summary of "ao basis" -> "ao basis" (cartesian)
 ------------------------------------------------------------------------------
       Tag                 Description            Shells   Functions and Types
 ---------------- ------------------------------  ------  ---------------------
 F                     6-311++G(3df,3pd)            13       45   5s4p3d1f
 H                     6-311++G(3df,3pd)             8       19   4s3p1d


      Symmetry analysis of basis
      --------------------------

        a'         90
        a"         38

  Caching 1-el integrals 

            General Information
            -------------------
          SCF calculation type: DFT
          Wavefunction type:  closed shell.
          No. of atoms     :     4
          No. of electrons :    20
           Alpha electrons :    10
            Beta electrons :    10
          Charge           :     0
          Spin multiplicity:     1
          Use of symmetry is: on ; symmetry adaption is: on 
          Maximum number of iterations: ***
          AO basis - number of functions:   128
                     number of shells:    42
          Convergence on energy requested: 1.00D-06
          Convergence on density requested: 1.00D-05
          Convergence on gradient requested: 5.00D-04

              XC Information
              --------------
                  TPSS metaGGA Exchange Functional  1.000          
             TPSS03 metaGGA Correlation Functional  1.000          

             Grid Information
             ----------------
          Grid used for XC integration:  medium    
          Radial quadrature: Mura-Knowles        
          Angular quadrature: Lebedev. 
          Tag              B.-S. Rad. Rad. Pts. Rad. Cut. Ang. Pts.
          ---              ---------- --------- --------- ---------
          F                   0.50       49          12.0       434
          H                   0.35       45          12.0       434
          Grid pruning is: on 
          Number of quadrature shells:   188
          Spatial weights used:  Erf1

          Convergence Information
          -----------------------
          Convergence aids based upon iterative change in 
          total energy or number of iterations. 
          Levelshifting, if invoked, occurs when the 
          HOMO/LUMO gap drops below (HL_TOL): 1.00D-02
          DIIS, if invoked, will attempt to extrapolate 
          using up to (NFOCK): 10 stored Fock matrices.

                    Damping( 0%)  Levelshifting(0.5)       DIIS
                  --------------- ------------------- ---------------
          dE  on:    start            ASAP                start   
          dE off:    2 iters        *** iters           *** iters 


      Screening Tolerance Information
      -------------------------------
          Density screening/tol_rho: 1.00D-10
          AO Gaussian exp screening on grid/accAOfunc:  14
          CD Gaussian exp screening on grid/accCDfunc:  20
          XC Gaussian exp screening on grid/accXCfunc:  20
          Schwarz screening/accCoul: 1.00D-08


      Superposition of Atomic Density Guess
      -------------------------------------

 Sum of atomic energies:        -199.81538300

      Non-variational initial energy
      ------------------------------

 Total energy =    -199.808903
 1-e energy   =    -338.271099
 2-e energy   =     108.523900
 HOMO         =      -0.649624
 LUMO         =       0.016678


      Symmetry analysis of molecular orbitals - initial
      -------------------------------------------------

  Numbering of irreducible representations: 

     1 a'          2 a"      

  Orbital symmetries:

     1 a'          2 a'          3 a'          4 a'          5 a'      
     6 a'          7 a'          8 a"          9 a'         10 a"      
    11 a'         12 a'         13 a'         14 a'         15 a'      
    16 a"         17 a'         18 a'         19 a"         20 a'      

   Time after variat. SCF:      0.7
   Time prior to 1st pass:      0.7

 Integral file          = ./NH3-H2O.aoints.00
 Record size in doubles =    65536    No. of integs per rec  =    43688
 Max. records in memory =       44    Max. records in file   = 11597230
 No. of bits per label  =        8    No. of bits per value  =       64


 #quartets = 3.355D+05 #integrals = 1.104D+07 #direct =  0.0% #cached =100.0%


File balance: exchanges=     0  moved=     0  time=   0.0


 Grid_pts file          = ./NH3-H2O.gridpts.00
 Record size in doubles =  12289        No. of grid_pts per rec  =   3070
 Max. records in memory =      3        Max. recs in file   =  61846867


           Memory utilization after 1st SCF pass: 
           Heap Space remaining (MW):       10.18            10182956
          Stack Space remaining (MW):       13.11            13106420

   convergence    iter        energy       DeltaE   RMS-Dens  Diis-err    time
 ---------------- ----- ----------------- --------- --------- ---------  ------
 d= 0,ls=0.0,diis     1   -200.9359119454 -2.31D+02  1.04D-02  1.52D+00     1.3
 d= 0,ls=0.0,diis     2   -200.7702728972  1.66D-01  4.37D-03  2.51D+00     1.4
 d= 0,ls=0.0,diis     3   -200.9887053591 -2.18D-01  6.75D-04  8.05D-02     1.6
 d= 0,ls=0.0,diis     4   -200.9818742135  6.83D-03  1.83D-04  1.99D-03     1.8
 d= 0,ls=0.0,diis     5   -200.9816640641  2.10D-04  8.31D-05  5.54D-04     1.9
 d= 0,ls=0.0,diis     6   -200.9816646196 -5.55D-07  3.49D-05  2.03D-04     2.1
 d= 0,ls=0.0,diis     7   -200.9816051038  5.95D-05  4.92D-06  3.27D-06     2.3
 d= 0,ls=0.0,diis     8   -200.9816749355 -6.98D-05  1.16D-06  1.31D-08     2.4
 d= 0,ls=0.0,diis     9   -200.9816753935 -4.58D-07  1.70D-07  1.12D-09     2.6


         Total DFT energy =     -200.981675393509
      One electron energy =     -339.129269031974
           Coulomb energy =      129.758043681567
          Exchange energy =      -20.856215359215
       Correlation energy =       -0.692530907821
 Nuclear repulsion energy =       29.938296223934

 Numeric. integr. density =       20.000003678681

     Total iterative time =      1.9s



                  Occupations of the irreducible representations
                  ----------------------------------------------

                     irrep           alpha         beta
                     --------     --------     --------
                     a'                8.0          8.0
                     a"                2.0          2.0


                       DFT Final Molecular Orbital Analysis
                       ------------------------------------

 Vector    1  Occ=2.000000D+00  E=-2.453409D+01  Symmetry=a'
              MO Center= -6.4D-02, -1.3D+00,  1.1D-28, r^2= 1.2D-02
   Bfn.  Coefficient  Atom+Function         Bfn.  Coefficient  Atom+Function  
  ----- ------------  ---------------      ----- ------------  ---------------
     1      0.547284  1 F  s                  2      0.472731  1 F  s          

 Vector    2  Occ=2.000000D+00  E=-2.446035D+01  Symmetry=a'
              MO Center= -9.2D-03,  1.5D+00,  4.7D-18, r^2= 1.2D-02
   Bfn.  Coefficient  Atom+Function         Bfn.  Coefficient  Atom+Function  
  ----- ------------  ---------------      ----- ------------  ---------------
    65      0.547282  3 F  s                 66      0.472743  3 F  s          

 Vector    3  Occ=2.000000D+00  E=-1.236918D+00  Symmetry=a'
              MO Center=  6.4D-02, -1.4D+00,  5.1D-16, r^2= 4.0D-01
   Bfn.  Coefficient  Atom+Function         Bfn.  Coefficient  Atom+Function  
  ----- ------------  ---------------      ----- ------------  ---------------
    10      0.737212  1 F  s                  6      0.598152  1 F  s          
     2     -0.220887  1 F  s          

 Vector    4  Occ=2.000000D+00  E=-1.164298D+00  Symmetry=a'
              MO Center= -2.3D-02,  1.3D+00,  5.0D-16, r^2= 4.1D-01
   Bfn.  Coefficient  Atom+Function         Bfn.  Coefficient  Atom+Function  
  ----- ------------  ---------------      ----- ------------  ---------------
    74      0.735978  3 F  s                 70      0.598891  3 F  s          
    66     -0.221010  3 F  s          

 Vector    5  Occ=2.000000D+00  E=-6.194766D-01  Symmetry=a'
              MO Center= -7.7D-03, -1.2D+00,  4.6D-16, r^2= 8.1D-01
   Bfn.  Coefficient  Atom+Function         Bfn.  Coefficient  Atom+Function  
  ----- ------------  ---------------      ----- ------------  ---------------
    10     -0.330400  1 F  s                  7      0.303106  1 F  px         
    11      0.291815  1 F  px                 3      0.235235  1 F  px         
    12     -0.180925  1 F  py                 8     -0.173926  1 F  py         
    46      0.162826  2 H  s          

 Vector    6  Occ=2.000000D+00  E=-5.487200D-01  Symmetry=a'
              MO Center= -1.9D-02,  9.8D-01, -1.0D-15, r^2= 1.5D+00
   Bfn.  Coefficient  Atom+Function         Bfn.  Coefficient  Atom+Function  
  ----- ------------  ---------------      ----- ------------  ---------------
    74      0.365634  3 F  s                 72      0.322581  3 F  py         
    76      0.295156  3 F  py                68      0.250275  3 F  py         
   110     -0.152052  4 H  s                 10      0.150635  1 F  s          

 Vector    7  Occ=2.000000D+00  E=-4.804612D-01  Symmetry=a'
              MO Center= -3.4D-02, -9.9D-01,  2.9D-15, r^2= 1.4D+00
   Bfn.  Coefficient  Atom+Function         Bfn.  Coefficient  Atom+Function  
  ----- ------------  ---------------      ----- ------------  ---------------
    12      0.396757  1 F  py                 8      0.359626  1 F  py         
     4      0.270392  1 F  py                76      0.185495  3 F  py         
     7      0.176080  1 F  px                11      0.163721  1 F  px         
   112      0.162339  4 H  s                 78     -0.151618  3 F  s          

 Vector    8  Occ=2.000000D+00  E=-4.803211D-01  Symmetry=a"
              MO Center= -3.8D-02, -1.3D+00, -3.4D-15, r^2= 5.1D-01
   Bfn.  Coefficient  Atom+Function         Bfn.  Coefficient  Atom+Function  
  ----- ------------  ---------------      ----- ------------  ---------------
     9      0.429783  1 F  pz                13      0.429684  1 F  pz         
     5      0.318379  1 F  pz         

 Vector    9  Occ=2.000000D+00  E=-4.126818D-01  Symmetry=a'
              MO Center= -1.3D-02,  1.4D+00,  6.1D-16, r^2= 5.2D-01
   Bfn.  Coefficient  Atom+Function         Bfn.  Coefficient  Atom+Function  
  ----- ------------  ---------------      ----- ------------  ---------------
    75      0.430258  3 F  px                71      0.424177  3 F  px         
    67      0.314651  3 F  px         

 Vector   10  Occ=2.000000D+00  E=-4.123742D-01  Symmetry=a"
              MO Center= -1.2D-02,  1.4D+00, -4.1D-16, r^2= 5.2D-01
   Bfn.  Coefficient  Atom+Function         Bfn.  Coefficient  Atom+Function  
  ----- ------------  ---------------      ----- ------------  ---------------
    77      0.431021  3 F  pz                73      0.427227  3 F  pz         
    69      0.316670  3 F  pz         

 Vector   11  Occ=0.000000D+00  E=-7.277452D-02  Symmetry=a'
              MO Center=  8.5D-01, -1.6D+00,  3.8D-15, r^2= 3.7D+00
   Bfn.  Coefficient  Atom+Function         Bfn.  Coefficient  Atom+Function  
  ----- ------------  ---------------      ----- ------------  ---------------
    48      0.668973  2 H  s                 49      0.488890  2 H  s          
    14     -0.386981  1 F  s                 10     -0.361392  1 F  s          
    47      0.272700  2 H  s                  6     -0.209843  1 F  s          
    11     -0.156522  1 F  px                 7     -0.150753  1 F  px         

 Vector   12  Occ=0.000000D+00  E= 9.712337D-03  Symmetry=a'
              MO Center= -3.3D-02,  2.2D-01, -6.0D-15, r^2= 7.0D+00
   Bfn.  Coefficient  Atom+Function         Bfn.  Coefficient  Atom+Function  
  ----- ------------  ---------------      ----- ------------  ---------------
   113      1.241599  4 H  s                 49     -0.662615  2 H  s          
    48     -0.539566  2 H  s                 78     -0.400670  3 F  s          
    14      0.384641  1 F  s                112      0.369739  4 H  s          
    74     -0.364049  3 F  s                111      0.309288  4 H  s          
    70     -0.176692  3 F  s                 47     -0.161987  2 H  s          

 Vector   13  Occ=0.000000D+00  E= 7.423137D-02  Symmetry=a'
              MO Center=  8.5D-01, -2.1D+00, -1.5D-17, r^2= 8.5D+00
   Bfn.  Coefficient  Atom+Function         Bfn.  Coefficient  Atom+Function  
  ----- ------------  ---------------      ----- ------------  ---------------
    48      3.487093  2 H  s                 49     -2.038774  2 H  s          
    14     -1.866631  1 F  s                112      1.127997  4 H  s          
    15     -0.814268  1 F  px                78     -0.705729  3 F  s          
    16      0.321004  1 F  py                47      0.266538  2 H  s          
    10     -0.262562  1 F  s                 56     -0.245404  2 H  px         

 Vector   14  Occ=0.000000D+00  E= 1.049800D-01  Symmetry=a'
              MO Center= -1.6D-01,  5.4D-01,  3.8D-15, r^2= 7.4D+00
   Bfn.  Coefficient  Atom+Function         Bfn.  Coefficient  Atom+Function  
  ----- ------------  ---------------      ----- ------------  ---------------
   112      3.068049  4 H  s                113     -1.948178  4 H  s          
    48     -1.377115  2 H  s                 78     -1.277645  3 F  s          
    14      1.049577  1 F  s                 49      0.884967  2 H  s          
    80      0.625980  3 F  py                16     -0.326709  1 F  py         
    76      0.308821  3 F  py               111      0.264592  4 H  s          

 Vector   15  Occ=0.000000D+00  E= 1.382518D-01  Symmetry=a'
              MO Center= -1.7D-01, -7.0D-01,  7.6D-14, r^2= 5.3D+00
   Bfn.  Coefficient  Atom+Function         Bfn.  Coefficient  Atom+Function  
  ----- ------------  ---------------      ----- ------------  ---------------
   112     -1.589747  4 H  s                 78      1.558496  3 F  s          
    16      0.758285  1 F  py                15      0.736404  1 F  px         
    80     -0.461114  3 F  py                79      0.435390  3 F  px         
    49      0.417599  2 H  s                113     -0.359388  4 H  s          
    11     -0.273231  1 F  px                75     -0.207251  3 F  px         

 Vector   16  Occ=0.000000D+00  E= 1.394544D-01  Symmetry=a"
              MO Center= -2.1D-02, -6.3D-01, -6.9D-14, r^2= 4.8D+00
   Bfn.  Coefficient  Atom+Function         Bfn.  Coefficient  Atom+Function  
  ----- ------------  ---------------      ----- ------------  ---------------
    17      0.967430  1 F  pz                81      0.504801  3 F  pz         
    13     -0.365803  1 F  pz                77     -0.204648  3 F  pz         

 Vector   17  Occ=0.000000D+00  E= 1.920439D-01  Symmetry=a'
              MO Center= -6.9D-03,  5.0D-01,  3.8D-14, r^2= 7.7D+00
   Bfn.  Coefficient  Atom+Function         Bfn.  Coefficient  Atom+Function  
  ----- ------------  ---------------      ----- ------------  ---------------
    14      2.957351  1 F  s                112     -2.063759  4 H  s          
    48     -1.415694  2 H  s                 80     -1.091553  3 F  py         
   121      1.066802  4 H  py                16      0.709455  1 F  py         
   113      0.707147  4 H  s                 76      0.658797  3 F  py         
   111      0.659753  4 H  s                 74     -0.391182  3 F  s          

 Vector   18  Occ=0.000000D+00  E= 2.022770D-01  Symmetry=a'
              MO Center=  2.3D-01, -6.4D-01, -7.7D-15, r^2= 7.8D+00
   Bfn.  Coefficient  Atom+Function         Bfn.  Coefficient  Atom+Function  
  ----- ------------  ---------------      ----- ------------  ---------------
    14      3.150504  1 F  s                 48     -2.884257  2 H  s          
   112      1.947810  4 H  s                 16     -1.666572  1 F  py         
    78     -1.227565  3 F  s                 15      1.062065  1 F  px         
    79      0.803068  3 F  px                80      0.679262  3 F  py         
    49     -0.572481  2 H  s                 47     -0.534554  2 H  s          

 Vector   19  Occ=0.000000D+00  E= 2.231566D-01  Symmetry=a"
              MO Center=  1.5D-01,  5.2D-01, -4.2D-14, r^2= 6.2D+00
   Bfn.  Coefficient  Atom+Function         Bfn.  Coefficient  Atom+Function  
  ----- ------------  ---------------      ----- ------------  ---------------
    81      1.104882  3 F  pz                17     -0.511941  1 F  pz         
    77     -0.377597  3 F  pz                58     -0.341340  2 H  pz         
    13      0.289784  1 F  pz         

 Vector   20  Occ=0.000000D+00  E= 2.701617D-01  Symmetry=a'
              MO Center= -2.0D-01,  2.5D-01, -3.0D-15, r^2= 6.5D+00
   Bfn.  Coefficient  Atom+Function         Bfn.  Coefficient  Atom+Function  
  ----- ------------  ---------------      ----- ------------  ---------------
    14      4.239089  1 F  s                 48     -4.145577  2 H  s          
    15      2.356134  1 F  px               112     -1.259905  4 H  s          
    79     -1.114696  3 F  px                78      0.962564  3 F  s          
    16     -0.939402  1 F  py                47     -0.798498  2 H  s          
    80     -0.515020  3 F  py                56      0.378657  2 H  px         

 Vector   21  Occ=0.000000D+00  E= 2.876478D-01  Symmetry=a'
              MO Center=  1.9D-01,  6.1D-01,  4.2D-15, r^2= 7.6D+00
   Bfn.  Coefficient  Atom+Function         Bfn.  Coefficient  Atom+Function  
  ----- ------------  ---------------      ----- ------------  ---------------
   112      4.981300  4 H  s                 78     -4.392957  3 F  s          
    80      2.879173  3 F  py                14      1.835878  1 F  s          
   121      1.505257  4 H  py                48     -1.484763  2 H  s          
   113     -1.039878  4 H  s                111      1.022021  4 H  s          
    49      0.641720  2 H  s                 74     -0.522156  3 F  s          

 Vector   22  Occ=0.000000D+00  E= 3.139617D-01  Symmetry=a"
              MO Center=  3.2D-01, -6.8D-01,  1.7D-14, r^2= 4.9D+00
   Bfn.  Coefficient  Atom+Function         Bfn.  Coefficient  Atom+Function  
  ----- ------------  ---------------      ----- ------------  ---------------
    58      1.206311  2 H  pz                17     -0.773337  1 F  pz         
    81      0.741208  3 F  pz               122     -0.663766  4 H  pz         
    13     -0.176133  1 F  pz         

 Vector   23  Occ=0.000000D+00  E= 3.198488D-01  Symmetry=a'
              MO Center=  4.2D-01, -9.2D-01, -2.0D-14, r^2= 6.6D+00
   Bfn.  Coefficient  Atom+Function         Bfn.  Coefficient  Atom+Function  
  ----- ------------  ---------------      ----- ------------  ---------------
    48      7.832854  2 H  s                 14     -6.863528  1 F  s          
    15     -3.031112  1 F  px                78      1.703274  3 F  s          
    57      1.414216  2 H  py                49     -1.200069  2 H  s          
   111     -1.078166  4 H  s                 56     -0.856478  2 H  px         
    80     -0.807102  3 F  py               121     -0.798296  4 H  py         

 Vector   24  Occ=0.000000D+00  E= 3.462267D-01  Symmetry=a'
              MO Center=  4.3D-02,  2.6D-01,  2.8D-15, r^2= 7.7D+00
   Bfn.  Coefficient  Atom+Function         Bfn.  Coefficient  Atom+Function  
  ----- ------------  ---------------      ----- ------------  ---------------
    48     -5.390635  2 H  s                 14      5.191485  1 F  s          
    78      4.941782  3 F  s                112     -3.240467  4 H  s          
   113     -1.628569  4 H  s                111     -1.523444  4 H  s          
    80     -1.514843  3 F  py                15      1.383770  1 F  px         
    49      1.341679  2 H  s                 56      0.920799  2 H  px         

 Vector   25  Occ=0.000000D+00  E= 3.777494D-01  Symmetry=a'
              MO Center=  1.2D-01, -1.2D+00,  2.0D-15, r^2= 5.5D+00
   Bfn.  Coefficient  Atom+Function         Bfn.  Coefficient  Atom+Function  
  ----- ------------  ---------------      ----- ------------  ---------------
    48      3.264043  2 H  s                112      3.180518  4 H  s          
    78     -2.845988  3 F  s                121      2.126312  4 H  py         
    16      1.665016  1 F  py                80      1.314658  3 F  py         
    56     -1.103372  2 H  px                47     -1.072723  2 H  s          
    49     -0.689258  2 H  s                 74     -0.617909  3 F  s          

 Vector   26  Occ=0.000000D+00  E= 3.936576D-01  Symmetry=a"
              MO Center= -8.7D-02, -2.7D-01, -1.4D-16, r^2= 4.2D+00
   Bfn.  Coefficient  Atom+Function         Bfn.  Coefficient  Atom+Function  
  ----- ------------  ---------------      ----- ------------  ---------------
   122      1.446340  4 H  pz                17     -1.116272  1 F  pz         
    58      0.912327  2 H  pz                81     -0.611926  3 F  pz         
    77     -0.298662  3 F  pz                34      0.206173  1 F  dyz        

 Vector   27  Occ=0.000000D+00  E= 4.706818D-01  Symmetry=a'
              MO Center= -1.7D-01, -4.0D-01, -2.5D-16, r^2= 5.2D+00
   Bfn.  Coefficient  Atom+Function         Bfn.  Coefficient  Atom+Function  
  ----- ------------  ---------------      ----- ------------  ---------------
   112      9.951653  4 H  s                 78     -7.289435  3 F  s          
    16     -3.039248  1 F  py                80      2.379111  3 F  py         
    14     -1.931572  1 F  s                 57      1.235868  2 H  py         
   120     -1.043337  4 H  px                15      0.962800  1 F  px         
    48     -0.876998  2 H  s                 79      0.742057  3 F  px         

 Vector   28  Occ=0.000000D+00  E= 4.966968D-01  Symmetry=a'
              MO Center=  2.1D-02,  3.2D-01, -1.1D-15, r^2= 6.0D+00
   Bfn.  Coefficient  Atom+Function         Bfn.  Coefficient  Atom+Function  
  ----- ------------  ---------------      ----- ------------  ---------------
   112     19.975852  4 H  s                 78    -15.589291  3 F  s          
    80      5.627527  3 F  py                14     -4.451396  1 F  s          
   121      2.124440  4 H  py                16     -1.993612  1 F  py         
    47      1.321186  2 H  s                120      1.003657  4 H  px         
   113     -0.684825  4 H  s                 76      0.501095  3 F  py         

 Vector   29  Occ=0.000000D+00  E= 6.541372D-01  Symmetry=a'
              MO Center=  1.1D+00, -1.7D+00,  6.4D-16, r^2= 3.7D+00
   Bfn.  Coefficient  Atom+Function         Bfn.  Coefficient  Atom+Function  
  ----- ------------  ---------------      ----- ------------  ---------------
    48    -11.015148  2 H  s                 14     10.276222  1 F  s          
    56      4.535145  2 H  px               112      4.293778  4 H  s          
    47     -4.262802  2 H  s                 78     -4.057985  3 F  s          
    15      3.292198  1 F  px                10      3.124325  1 F  s          
    57     -2.225524  2 H  py                11      1.992939  1 F  px         


 center of mass
 --------------
 x =  -0.03449090 y =   0.06191564 z =   0.00000000

 moments of inertia (a.u.)
 ------------------
         274.841909461408           0.000000000000           0.000000000000
           0.000000000000           2.397567492790           0.000000000000
           0.000000000000           0.000000000000         277.239476954198

     Multipole analysis of the density
     ---------------------------------

     L   x y z        total         alpha         beta         nuclear
     -   - - -        -----         -----         ----         -------
     0   0 0 0     -0.000000    -10.000000    -10.000000     20.000000

     1   1 0 0      0.587765      0.293883      0.293883     -0.000000
     1   0 1 0     -1.248228     -0.624114     -0.624114      0.000000
     1   0 0 1      0.000000      0.000000      0.000000      0.000000

     2   2 0 0     -7.359576     -4.818471     -4.818471      2.277365
     2   1 1 0     -2.415921      0.100416      0.100416     -2.616752
     2   1 0 1      0.000000      0.000000      0.000000      0.000000
     2   0 2 0     -8.605610    -72.487220    -72.487220    136.368830
     2   0 1 1      0.000000      0.000000      0.000000      0.000000
     2   0 0 2     -8.759273     -4.379636     -4.379636      0.000000


 Parallel integral file used     263 records with       0 large values


 Task  times  cpu:        2.2s     wall:        2.8s


                                NWChem Input Module
                                -------------------


 Summary of allocated global arrays
-----------------------------------
  No active global arrays



                         GA Statistics for process    0
                         ------------------------------

       create   destroy   get      put      acc     scatter   gather  read&inc
calls:  245      245     1861     1283      363        0        0      158     
number of processes/call 3.45e+00 1.90e+00 5.83e+00 0.00e+00 0.00e+00
bytes total:             3.70e+07 5.67e+06 1.73e+07 0.00e+00 0.00e+00 1.26e+03
bytes remote:            3.16e+07 3.02e+06 1.54e+07 0.00e+00 0.00e+00 0.00e+00
Max memory consumed for GA by this process: 583200 bytes

MA_summarize_allocated_blocks: starting scan ...
MA_summarize_allocated_blocks: scan completed: 0 heap blocks, 0 stack blocks
MA usage statistics:

	allocation statistics:
					      heap	     stack
					      ----	     -----
	current number of blocks	         0	         0
	maximum number of blocks	        24	        55
	current total bytes		         0	         0
	maximum total bytes		  23393024	  28893288
	maximum total K-bytes		     23394	     28894
	maximum total M-bytes		        24	        29


                                     CITATION
                                     --------
                Please cite the following reference when publishing
                           results obtained with NWChem:

                 M. Valiev, E.J. Bylaska, N. Govind, K. Kowalski,
              T.P. Straatsma, H.J.J. van Dam, D. Wang, J. Nieplocha,
                        E. Apra, T.L. Windus, W.A. de Jong
                 "NWChem: a comprehensive and scalable open-source
                  solution for large scale molecular simulations"
                      Comput. Phys. Commun. 181, 1477 (2010)
                           doi:10.1016/j.cpc.2010.04.018

                                      AUTHORS
                                      -------
          E. Apra, E. J. Bylaska, W. A. de Jong, N. Govind, K. Kowalski,
       T. P. Straatsma, M. Valiev, H. J. J. van Dam, D. Wang, T. L. Windus,
        J. Hammond, J. Autschbach, K. Bhaskaran-Nair, J. Brabec, K. Lopata,
       S. A. Fischer, S. Krishnamoorthy, W. Ma, M. Klemm, O. Villa, Y. Chen,
    V. Anisimov, F. Aquino, S. Hirata, M. T. Hackler, T. Risthaus, M. Malagoli,
       A. Marenich, A. Otero-de-la-Roza, J. Mullin, P. Nichols, R. Peverati,
     J. Pittner, Y. Zhao, P.-D. Fan, A. Fonari, M. Williamson, R. J. Harrison,
       J. R. Rehr, M. Dupuis, D. Silverstein, D. M. A. Smith, J. Nieplocha,
        V. Tipparaju, M. Krishnan, B. E. Van Kuiken, A. Vazquez-Mayagoitia,
        L. Jensen, M. Swart, Q. Wu, T. Van Voorhis, A. A. Auer, M. Nooijen,
      L. D. Crosby, E. Brown, G. Cisneros, G. I. Fann, H. Fruchtl, J. Garza,
        K. Hirao, R. A. Kendall, J. A. Nichols, K. Tsemekhman, K. Wolinski,
     J. Anchell, D. E. Bernholdt, P. Borowski, T. Clark, D. Clerc, H. Dachsel,
   M. J. O. Deegan, K. Dyall, D. Elwood, E. Glendening, M. Gutowski, A. C. Hess,
         J. Jaffe, B. G. Johnson, J. Ju, R. Kobayashi, R. Kutteh, Z. Lin,
   R. Littlefield, X. Long, B. Meng, T. Nakajima, S. Niu, L. Pollack, M. Rosing,
   K. Glaesemann, G. Sandrone, M. Stave, H. Taylor, G. Thomas, J. H. van Lenthe,
                               A. T. Wong, Z. Zhang.

 Total times  cpu:        2.2s     wall:        3.0s
