[1537885772.323480] [r8n3:30617:0]         sys.c:744  MXM  WARN  Conflicting CPU frequencies detected, using: 2499.99
[1537885772.329772] [r8n3:30617:0]         mxm.c:196  MXM  WARN  The 'ulimit -s' on the system is set to 'unlimited'. This may have negative performance implications. Please set the stack size to the default value (10240) 
[1537885772.332039] [r8n3:30617:0]         mxm.c:196  MXM  WARN  The 'ulimit -s' on the system is set to 'unlimited'. This may have negative performance implications. Please set the stack size to the default value (10240) 
 argument  1 = /storage/home/bikashp/nwchem_run/rabeet/hb6/nwrevtpss/C2H2-C2H2.nw
                                         
                                         


              Northwest Computational Chemistry Package (NWChem) 6.6
              ------------------------------------------------------


                    Environmental Molecular Sciences Laboratory
                       Pacific Northwest National Laboratory
                                Richland, WA 99352

                              Copyright (c) 1994-2015
                       Pacific Northwest National Laboratory
                            Battelle Memorial Institute

             NWChem is an open-source computational chemistry package
                        distributed under the terms of the
                      Educational Community License (ECL) 2.0
             A copy of the license is included with this distribution
                              in the LICENSE.TXT file

                                  ACKNOWLEDGMENT
                                  --------------

            This software and its documentation were developed at the
            EMSL at Pacific Northwest National Laboratory, a multiprogram
            national laboratory, operated for the U.S. Department of Energy
            by Battelle under Contract Number DE-AC05-76RL01830. Support
            for this work was provided by the Department of Energy Office
            of Biological and Environmental Research, Office of Basic
            Energy Sciences, and the Office of Advanced Scientific Computing.


           Job information
           ---------------

    hostname        = r8n3.niserhpc.org
    program         = /home/bikashp/Code/nwchem-6.6_revtpss/bin/LINUX64/nwchem
    date            = Tue Sep 25 19:59:32 2018

    compiled        = Tue_Sep_25_17:05:19_2018
    source          = /home/bikashp/Code/nwchem-6.6_revtpss
    nwchem branch   = 6.6
    nwchem revision = 27746
    ga revision     = 10594
    input           = /storage/home/bikashp/nwchem_run/rabeet/hb6/nwrevtpss/C2H2-C2H2.nw
    prefix          = C2H2-C2H2.
    data base       = ./C2H2-C2H2.db
    status          = startup
    nproc           =        1
    time left       =     -1s



           Memory information
           ------------------

    heap     =   13107196 doubles =    100.0 Mbytes
    stack    =   13107201 doubles =    100.0 Mbytes
    global   =   26214400 doubles =    200.0 Mbytes (distinct from heap & stack)
    total    =   52428797 doubles =    400.0 Mbytes
    verify   = yes
    hardfail = no 


           Directory information
           ---------------------

  0 permanent = .
  0 scratch   = .




                                NWChem Input Module
                                -------------------



 Scaling coordinates for geometry "geometry" by  1.889725989
 (inverse scale =  0.529177249)

 C2H symmetry detected

          ------
          auto-z
          ------
  autoz: The atoms group into disjoint clusters
 cluster   1:    1    2    3    4
 cluster   2:    5    6    7    8
 Clusters   1   2 closest atoms are    3    7 r = 2.88 ... close but too far?
     1 autoz failed with cvr_scaling = 1.2 changing to 1.3
  autoz: The atoms group into disjoint clusters
 cluster   1:    1    2    3    4
 cluster   2:    5    6    7    8
 Connecting clusters   1   2 via atoms    3    7 r = 2.88
  autoz: regenerating connections with new bonds


                             Geometry "geometry" -> ""
                             -------------------------

 Output coordinates in angstroms (scale by  1.889725989 to convert to a.u.)

  No.       Tag          Charge          X              Y              Z
 ---- ---------------- ---------- -------------- -------------- --------------
    1 C                    6.0000    -0.51343561     1.65010179     0.00000000
    2 C                    6.0000     0.25664037     2.58191431     0.00000000
    3 H                    1.0000    -1.18390607     0.82061001     0.00000000
    4 H                    1.0000     0.92992104     3.40835068     0.00000000
    5 C                    6.0000     0.51343561    -1.65010179     0.00000000
    6 C                    6.0000    -0.25664037    -2.58191431     0.00000000
    7 H                    1.0000     1.18390607    -0.82061001     0.00000000
    8 H                    1.0000    -0.92992104    -3.40835068     0.00000000

      Atomic Mass 
      ----------- 

      C                 12.000000
      H                  1.007825


 Effective nuclear repulsion energy (a.u.)      74.2161920227

            Nuclear Dipole moment (a.u.) 
            ----------------------------
        X                 Y               Z
 ---------------- ---------------- ----------------
     0.0000000000     0.0000000000     0.0000000000

      Symmetry information
      --------------------

 Group name             C2h       
 Group number             21
 Group order               4
 No. of unique centers     4

      Symmetry unique atoms

     1    2    3    4



                                Z-matrix (autoz)
                                -------- 

 Units are Angstrom for bonds and degrees for angles

      Type          Name      I     J     K     L     M      Value
      ----------- --------  ----- ----- ----- ----- ----- ----------
    1 Stretch                  1     2                       1.20884
    2 Stretch                  1     3                       1.06658
    3 Stretch                  2     4                       1.06598
    4 Stretch                  3     7                       2.88100
    5 Stretch                  5     6                       1.20884
    6 Stretch                  5     7                       1.06658
    7 Stretch                  6     8                       1.06598
    8 Bend                     1     3     7                85.77901
    9 Bend                     2     3     7                85.44803
   10 Bend                     3     7     5                85.77901
   11 Bend                     4     3     7                85.48321
   12 Bend                     6     7     3                85.44803
   13 Bend                     8     7     3                85.48321
   14 Torsion                  1     3     7     5         180.00000
   15 Torsion                  6     5     3     7         180.00000
   16 Torsion                  3     7     2     4         180.00000
   17 Torsion                  4     3     7     5         180.00000
   18 Torsion                  2     1     7     3         180.00000
   19 Torsion                  7     3     6     8         180.00000
   20 Torsion                  1     3     7     8         180.00000


            XYZ format geometry
            -------------------
     8
 geometry
 C                    -0.51343561     1.65010179     0.00000000
 C                     0.25664037     2.58191431     0.00000000
 H                    -1.18390607     0.82061001     0.00000000
 H                     0.92992104     3.40835068     0.00000000
 C                     0.51343561    -1.65010179     0.00000000
 C                    -0.25664037    -2.58191431     0.00000000
 H                     1.18390607    -0.82061001     0.00000000
 H                    -0.92992104    -3.40835068     0.00000000

 ==============================================================================
                                internuclear distances
 ------------------------------------------------------------------------------
       center one      |      center two      | atomic units |  angstroms
 ------------------------------------------------------------------------------
    2 C                |   1 C                |     2.28437  |     1.20884
    3 H                |   1 C                |     2.01554  |     1.06658
    4 H                |   2 C                |     2.01440  |     1.06598
    6 C                |   5 C                |     2.28437  |     1.20884
    7 H                |   5 C                |     2.01554  |     1.06658
    8 H                |   6 C                |     2.01440  |     1.06598
 ------------------------------------------------------------------------------
                         number of included internuclear distances:          6
 ==============================================================================



 ==============================================================================
                                 internuclear angles
 ------------------------------------------------------------------------------
        center 1       |       center 2       |       center 3       |  degrees
 ------------------------------------------------------------------------------
    2 C                |   1 C                |   3 H                |   179.38
    1 C                |   2 C                |   4 H                |   179.60
    6 C                |   5 C                |   7 H                |   179.38
    5 C                |   6 C                |   8 H                |   179.60
 ------------------------------------------------------------------------------
                            number of included internuclear angles:          4
 ==============================================================================





 Summary of "ao basis" -> "" (cartesian)
 ------------------------------------------------------------------------------
       Tag                 Description            Shells   Functions and Types
 ---------------- ------------------------------  ------  ---------------------
 *                     6-311++G(3df,3pd)              on all atoms 



                                 NWChem DFT Module
                                 -----------------


                      Basis "ao basis" -> "ao basis" (cartesian)
                      -----
  C (Carbon)
  ----------
            Exponent  Coefficients 
       -------------- ---------------------------------------------------------
  1 S  4.56324000E+03  0.001967
  1 S  6.82024000E+02  0.015231
  1 S  1.54973000E+02  0.076127
  1 S  4.44553000E+01  0.260801
  1 S  1.30290000E+01  0.616462
  1 S  1.82773000E+00  0.221006

  2 S  2.09642000E+01  0.114660
  2 S  4.80331000E+00  0.919999
  2 S  1.45933000E+00 -0.003031

  3 P  2.09642000E+01  0.040249
  3 P  4.80331000E+00  0.237594
  3 P  1.45933000E+00  0.815854

  4 S  4.83456000E-01  1.000000

  5 P  4.83456000E-01  1.000000

  6 S  1.45585000E-01  1.000000

  7 P  1.45585000E-01  1.000000

  8 S  4.38000000E-02  1.000000

  9 P  4.38000000E-02  1.000000

 10 D  2.50400000E+00  1.000000

 11 D  6.26000000E-01  1.000000

 12 D  1.56500000E-01  1.000000

 13 F  8.00000000E-01  1.000000

  H (Hydrogen)
  ------------
            Exponent  Coefficients 
       -------------- ---------------------------------------------------------
  1 S  3.38650000E+01  0.025494
  1 S  5.09479000E+00  0.190373
  1 S  1.15879000E+00  0.852161

  2 S  3.25840000E-01  1.000000

  3 S  1.02741000E-01  1.000000

  4 S  3.60000000E-02  1.000000

  5 P  3.00000000E+00  1.000000

  6 P  7.50000000E-01  1.000000

  7 P  1.87500000E-01  1.000000

  8 D  1.00000000E+00  1.000000



 Summary of "ao basis" -> "ao basis" (cartesian)
 ------------------------------------------------------------------------------
       Tag                 Description            Shells   Functions and Types
 ---------------- ------------------------------  ------  ---------------------
 C                     6-311++G(3df,3pd)            13       45   5s4p3d1f
 H                     6-311++G(3df,3pd)             8       19   4s3p1d




 Summary of "ao basis" -> "ao basis" (cartesian)
 ------------------------------------------------------------------------------
       Tag                 Description            Shells   Functions and Types
 ---------------- ------------------------------  ------  ---------------------
 C                     6-311++G(3df,3pd)            13       45   5s4p3d1f
 H                     6-311++G(3df,3pd)             8       19   4s3p1d


      Symmetry analysis of basis
      --------------------------

        ag         90
        au         38
        bg         38
        bu         90

  Caching 1-el integrals 

            General Information
            -------------------
          SCF calculation type: DFT
          Wavefunction type:  closed shell.
          No. of atoms     :     8
          No. of electrons :    28
           Alpha electrons :    14
            Beta electrons :    14
          Charge           :     0
          Spin multiplicity:     1
          Use of symmetry is: on ; symmetry adaption is: on 
          Maximum number of iterations: ***
          AO basis - number of functions:   256
                     number of shells:    84
          Convergence on energy requested: 1.00D-06
          Convergence on density requested: 1.00D-05
          Convergence on gradient requested: 5.00D-04

              XC Information
              --------------
                  TPSS metaGGA Exchange Functional  1.000          
             TPSS03 metaGGA Correlation Functional  1.000          

             Grid Information
             ----------------
          Grid used for XC integration:  medium    
          Radial quadrature: Mura-Knowles        
          Angular quadrature: Lebedev. 
          Tag              B.-S. Rad. Rad. Pts. Rad. Cut. Ang. Pts.
          ---              ---------- --------- --------- ---------
          C                   0.70       49          17.0       434
          H                   0.35       45          19.0       434
          Grid pruning is: on 
          Number of quadrature shells:   188
          Spatial weights used:  Erf1

          Convergence Information
          -----------------------
          Convergence aids based upon iterative change in 
          total energy or number of iterations. 
          Levelshifting, if invoked, occurs when the 
          HOMO/LUMO gap drops below (HL_TOL): 1.00D-02
          DIIS, if invoked, will attempt to extrapolate 
          using up to (NFOCK): 10 stored Fock matrices.

                    Damping( 0%)  Levelshifting(0.5)       DIIS
                  --------------- ------------------- ---------------
          dE  on:    start            ASAP                start   
          dE off:    2 iters        *** iters           *** iters 


      Screening Tolerance Information
      -------------------------------
          Density screening/tol_rho: 1.00D-10
          AO Gaussian exp screening on grid/accAOfunc:  14
          CD Gaussian exp screening on grid/accCDfunc:  20
          XC Gaussian exp screening on grid/accXCfunc:  20
          Schwarz screening/accCoul: 1.00D-08


 WARNING : Found     4 linear dependencies 
 S eigenvalue threshold:     1.00000E-05
 Smallest S eigenvalue :     2.63746E-07
 Largest  S eigenvalue :     5.48173E-06


 !! The overlap matrix has   4 vectors deemed linearly dependent with
    eigenvalues:
 2.64D-07 2.83D-07 5.36D-06 5.48D-06


      Superposition of Atomic Density Guess
      -------------------------------------

 Sum of atomic energies:        -152.67574416

      Non-variational initial energy
      ------------------------------

 Total energy =    -154.321040
 1-e energy   =    -349.285013
 2-e energy   =     120.747781
 HOMO         =      -0.359578
 LUMO         =       0.026116


      Symmetry analysis of molecular orbitals - initial
      -------------------------------------------------

  Numbering of irreducible representations: 

     1 ag          2 au          3 bg          4 bu      

  Orbital symmetries:

     1 ag          2 bu          3 ag          4 bu          5 ag      
     6 bu          7 ag          8 bu          9 ag         10 bu      
    11 ag         12 au         13 bg         14 bu         15 ag      
    16 au         17 ag         18 bu         19 bg         20 bu      
    21 bu         22 ag         23 au         24 bu      

   Time after variat. SCF:     12.6
   Time prior to 1st pass:     12.6

 Integral file          = ./C2H2-C2H2.aoints.0
 Record size in doubles =    65536    No. of integs per rec  =    32766
 Max. records in memory =        0    Max. records in file   = ********
 No. of bits per label  =       16    No. of bits per value  =       64


 #quartets = 2.412D+06 #integrals = 8.307D+07 #direct =  0.0% #cached =100.0%


 Grid_pts file          = ./C2H2-C2H2.gridpts.0
 Record size in doubles =  12289        No. of grid_pts per rec  =   3070
 Max. records in memory =     31        Max. recs in file   = 995256155

 Grid integrated density:      27.989564194798
 Requested integration accuracy:   0.10E-05

           Memory utilization after 1st SCF pass: 
           Heap Space remaining (MW):       12.67            12667148
          Stack Space remaining (MW):       13.11            13105724

   convergence    iter        energy       DeltaE   RMS-Dens  Diis-err    time
 ---------------- ----- ----------------- --------- --------- ---------  ------
 d= 0,ls=0.0,diis     1   -154.6426059906 -2.29D+02  2.09D-03  5.54D-01    36.1
 d= 0,ls=0.0,diis     2   -154.6895179021 -4.69D-02  8.99D-04  7.39D-02    42.3
 d= 0,ls=0.0,diis     3   -154.6945730003 -5.06D-03  4.07D-04  4.05D-02    48.6
 d= 0,ls=0.0,diis     4   -154.6969677073 -2.39D-03  2.04D-04  1.98D-02    54.8
 d= 0,ls=0.0,diis     5   -154.6993567976 -2.39D-03  4.94D-05  1.21D-03    61.1
  Resetting Diis
 d= 0,ls=0.0,diis     6   -154.6995643985 -2.08D-04  2.62D-06  1.06D-06    67.4
 d= 0,ls=0.0,diis     7   -154.6995625825  1.82D-06  8.08D-07  5.23D-08    73.7
 d= 0,ls=0.0,diis     8   -154.6995628598 -2.77D-07  3.01D-07  2.90D-08    80.0


         Total DFT energy =     -154.699562859824
      One electron energy =     -353.136380572382
           Coulomb energy =      147.194691200763
          Exchange energy =      -22.075012037963
       Correlation energy =       -0.899053472900
 Nuclear repulsion energy =       74.216192022659

 Numeric. integr. density =       28.000001185880

     Total iterative time =     67.4s



                  Occupations of the irreducible representations
                  ----------------------------------------------

                     irrep           alpha         beta
                     --------     --------     --------
                     ag                6.0          6.0
                     au                1.0          1.0
                     bg                1.0          1.0
                     bu                6.0          6.0


                       DFT Final Molecular Orbital Analysis
                       ------------------------------------

 Vector    4  Occ=2.000000D+00  E=-1.002239D+01  Symmetry=bu
              MO Center=  2.2D-16, -2.0D-16, -1.6D-39, r^2= 4.6D+00
   Bfn.  Coefficient  Atom+Function         Bfn.  Coefficient  Atom+Function  
  ----- ------------  ---------------      ----- ------------  ---------------
     1      0.301294  1 C  s                129     -0.301294  5 C  s          
    46     -0.261185  2 C  s                174      0.261185  6 C  s          
     2      0.248543  1 C  s                130     -0.248543  5 C  s          
    47     -0.215461  2 C  s                175      0.215461  6 C  s          

 Vector    5  Occ=2.000000D+00  E=-7.056985D-01  Symmetry=ag
              MO Center=  9.0D-14, -1.4D-12,  5.7D-16, r^2= 5.3D+00
   Bfn.  Coefficient  Atom+Function         Bfn.  Coefficient  Atom+Function  
  ----- ------------  ---------------      ----- ------------  ---------------
     6      0.261850  1 C  s                134      0.261850  5 C  s          
    51      0.260032  2 C  s                179      0.260032  6 C  s          
    55      0.173448  2 C  s                183      0.173448  6 C  s          
    10      0.172437  1 C  s                138      0.172437  5 C  s          

 Vector    6  Occ=2.000000D+00  E=-7.037034D-01  Symmetry=bu
              MO Center= -8.7D-14,  1.4D-12,  1.1D-16, r^2= 5.4D+00
   Bfn.  Coefficient  Atom+Function         Bfn.  Coefficient  Atom+Function  
  ----- ------------  ---------------      ----- ------------  ---------------
    51      0.264385  2 C  s                179     -0.264385  6 C  s          
     6      0.260245  1 C  s                134     -0.260245  5 C  s          
    10      0.171458  1 C  s                138     -0.171458  5 C  s          
    55      0.170517  2 C  s                183     -0.170517  6 C  s          

 Vector    7  Occ=2.000000D+00  E=-5.374028D-01  Symmetry=ag
              MO Center=  1.7D-15,  1.8D-15, -4.8D-33, r^2= 6.6D+00
   Bfn.  Coefficient  Atom+Function         Bfn.  Coefficient  Atom+Function  
  ----- ------------  ---------------      ----- ------------  ---------------
    51     -0.196874  2 C  s                179     -0.196874  6 C  s          
     6      0.189573  1 C  s                134      0.189573  5 C  s          

 Vector    8  Occ=2.000000D+00  E=-5.320909D-01  Symmetry=bu
              MO Center= -2.7D-15, -2.6D-15,  5.8D-16, r^2= 7.0D+00
   Bfn.  Coefficient  Atom+Function         Bfn.  Coefficient  Atom+Function  
  ----- ------------  ---------------      ----- ------------  ---------------
     6      0.200256  1 C  s                134     -0.200256  5 C  s          
    51     -0.190369  2 C  s                179      0.190369  6 C  s          

 Vector    9  Occ=2.000000D+00  E=-4.613962D-01  Symmetry=ag
              MO Center=  3.5D-14, -5.4D-13, -1.4D-16, r^2= 6.6D+00
   Bfn.  Coefficient  Atom+Function         Bfn.  Coefficient  Atom+Function  
  ----- ------------  ---------------      ----- ------------  ---------------
   111      0.149366  4 H  s                239      0.149366  8 H  s          
    92      0.141458  3 H  s                220      0.141458  7 H  s          

 Vector   10  Occ=2.000000D+00  E=-4.580969D-01  Symmetry=bu
              MO Center= -3.8D-14,  5.4D-13,  2.9D-16, r^2= 6.2D+00
   Bfn.  Coefficient  Atom+Function         Bfn.  Coefficient  Atom+Function  
  ----- ------------  ---------------      ----- ------------  ---------------
    92      0.150996  3 H  s                220     -0.150996  7 H  s          

 Vector   11  Occ=2.000000D+00  E=-2.718794D-01  Symmetry=ag
              MO Center=  1.3D-14, -1.9D-13,  1.6D-16, r^2= 5.7D+00
   Bfn.  Coefficient  Atom+Function         Bfn.  Coefficient  Atom+Function  
  ----- ------------  ---------------      ----- ------------  ---------------
     7      0.155432  1 C  px               135     -0.155432  5 C  px         

 Vector   12  Occ=2.000000D+00  E=-2.683860D-01  Symmetry=au
              MO Center= -7.3D-14,  1.2D-12,  4.6D-16, r^2= 5.8D+00
   Bfn.  Coefficient  Atom+Function         Bfn.  Coefficient  Atom+Function  
  ----- ------------  ---------------      ----- ------------  ---------------
     9      0.194017  1 C  pz               137      0.194017  5 C  pz         
    54      0.192949  2 C  pz               182      0.192949  6 C  pz         

 Vector   13  Occ=2.000000D+00  E=-2.656093D-01  Symmetry=bg
              MO Center=  7.3D-14, -1.2D-12, -9.6D-16, r^2= 5.9D+00
   Bfn.  Coefficient  Atom+Function         Bfn.  Coefficient  Atom+Function  
  ----- ------------  ---------------      ----- ------------  ---------------
    54      0.196653  2 C  pz               182     -0.196653  6 C  pz         
     9      0.194523  1 C  pz               137     -0.194523  5 C  pz         

 Vector   14  Occ=2.000000D+00  E=-2.637311D-01  Symmetry=bu
              MO Center= -9.1D-15,  1.9D-13, -1.4D-16, r^2= 6.0D+00
   Bfn.  Coefficient  Atom+Function         Bfn.  Coefficient  Atom+Function  
  ----- ------------  ---------------      ----- ------------  ---------------
    52      0.155314  2 C  px               180      0.155314  6 C  px         

 Vector   15  Occ=0.000000D+00  E=-2.106067D-02  Symmetry=ag
              MO Center= -1.4D-14,  1.8D-13,  3.3D-15, r^2= 1.1D+01
   Bfn.  Coefficient  Atom+Function         Bfn.  Coefficient  Atom+Function  
  ----- ------------  ---------------      ----- ------------  ---------------
    94     -1.466644  3 H  s                222     -1.466644  7 H  s          
    14      1.354889  1 C  s                142      1.354889  5 C  s          
    59      1.205133  2 C  s                187      1.205133  6 C  s          
   113     -1.055879  4 H  s                241     -1.055879  8 H  s          
    16     -0.854856  1 C  py               144      0.854856  5 C  py         

 Vector   16  Occ=0.000000D+00  E=-1.280648D-02  Symmetry=au
              MO Center=  1.1D-14, -2.3D-13,  1.2D-13, r^2= 7.8D+00
   Bfn.  Coefficient  Atom+Function         Bfn.  Coefficient  Atom+Function  
  ----- ------------  ---------------      ----- ------------  ---------------
    17      0.498597  1 C  pz               145      0.498597  5 C  pz         
    62     -0.479454  2 C  pz               190     -0.479454  6 C  pz         
    58     -0.246230  2 C  pz               186     -0.246230  6 C  pz         
    13      0.222853  1 C  pz               141      0.222853  5 C  pz         
    54     -0.188294  2 C  pz               182     -0.188294  6 C  pz         

 Vector   17  Occ=0.000000D+00  E=-1.274836D-02  Symmetry=ag
              MO Center=  4.1D-15, -3.1D-15, -1.3D-13, r^2= 2.1D+01
   Bfn.  Coefficient  Atom+Function         Bfn.  Coefficient  Atom+Function  
  ----- ------------  ---------------      ----- ------------  ---------------
   113      2.556954  4 H  s                241      2.556954  8 H  s          
    59     -2.241074  2 C  s                187     -2.241074  6 C  s          
    14     -2.136906  1 C  s                142     -2.136906  5 C  s          
    94      1.783354  3 H  s                222      1.783354  7 H  s          
    60     -1.181188  2 C  px               188      1.181188  6 C  px         

 Vector   18  Occ=0.000000D+00  E=-9.351563D-03  Symmetry=bu
              MO Center= -6.7D-14, -7.2D-14, -2.1D-16, r^2= 2.6D+01
   Bfn.  Coefficient  Atom+Function         Bfn.  Coefficient  Atom+Function  
  ----- ------------  ---------------      ----- ------------  ---------------
   113      2.820964  4 H  s                241     -2.820964  8 H  s          
    59     -1.485450  2 C  s                187      1.485450  6 C  s          
    61     -1.048889  2 C  py               189     -1.048889  6 C  py         
    60     -0.770529  2 C  px               188     -0.770529  6 C  px         
    14     -0.766519  1 C  s                142      0.766519  5 C  s          

 Vector   19  Occ=0.000000D+00  E=-5.396813D-03  Symmetry=bg
              MO Center= -1.5D-14,  2.3D-13, -6.3D-16, r^2= 9.0D+00
   Bfn.  Coefficient  Atom+Function         Bfn.  Coefficient  Atom+Function  
  ----- ------------  ---------------      ----- ------------  ---------------
    62     -0.639703  2 C  pz               190      0.639703  6 C  pz         
    17      0.600738  1 C  pz               145     -0.600738  5 C  pz         
    13      0.251392  1 C  pz               141     -0.251392  5 C  pz         
    58     -0.208491  2 C  pz               186      0.208491  6 C  pz         
     9      0.193238  1 C  pz               137     -0.193238  5 C  pz         

 Vector   20  Occ=0.000000D+00  E= 2.745783D-03  Symmetry=bu
              MO Center= -6.0D-14, -4.5D-14,  4.3D-16, r^2= 9.7D+00
   Bfn.  Coefficient  Atom+Function         Bfn.  Coefficient  Atom+Function  
  ----- ------------  ---------------      ----- ------------  ---------------
    94      1.201186  3 H  s                222     -1.201186  7 H  s          
    16      1.022315  1 C  py               144      1.022315  5 C  py         
    14     -0.747404  1 C  s                142      0.747404  5 C  s          
    60      0.512877  2 C  px               188      0.512877  6 C  px         
    61     -0.490875  2 C  py               189     -0.490875  6 C  py         

 Vector   21  Occ=0.000000D+00  E= 1.026540D-02  Symmetry=bu
              MO Center=  5.4D-14,  1.6D-14, -2.2D-16, r^2= 1.9D+01
   Bfn.  Coefficient  Atom+Function         Bfn.  Coefficient  Atom+Function  
  ----- ------------  ---------------      ----- ------------  ---------------
    94      5.028777  3 H  s                222     -5.028777  7 H  s          
    14     -3.535126  1 C  s                142      3.535126  5 C  s          
    59     -2.863281  2 C  s                187      2.863281  6 C  s          
   113      1.937176  4 H  s                241     -1.937176  8 H  s          
    16      1.912012  1 C  py               144      1.912012  5 C  py         

 Vector   22  Occ=0.000000D+00  E= 1.040599D-02  Symmetry=ag
              MO Center=  8.3D-14, -1.7D-14, -4.0D-15, r^2= 2.1D+01
   Bfn.  Coefficient  Atom+Function         Bfn.  Coefficient  Atom+Function  
  ----- ------------  ---------------      ----- ------------  ---------------
    94      2.306157  3 H  s                222      2.306157  7 H  s          
   113     -2.214178  4 H  s                241     -2.214178  8 H  s          
    61      0.742116  2 C  py               189     -0.742116  6 C  py         
    16      0.627194  1 C  py               144     -0.627194  5 C  py         
    15      0.575131  1 C  px               143     -0.575131  5 C  px         

 Vector   23  Occ=0.000000D+00  E= 4.209959D-02  Symmetry=au
              MO Center=  1.2D-14, -5.8D-14, -1.6D-14, r^2= 1.4D+01
   Bfn.  Coefficient  Atom+Function         Bfn.  Coefficient  Atom+Function  
  ----- ------------  ---------------      ----- ------------  ---------------
    62      0.538655  2 C  pz               190      0.538655  6 C  pz         
    13     -0.264554  1 C  pz               141     -0.264554  5 C  pz         
    17      0.258110  1 C  pz               145      0.258110  5 C  pz         
    58     -0.162972  2 C  pz               186     -0.162972  6 C  pz         

 Vector   24  Occ=0.000000D+00  E= 4.949416D-02  Symmetry=bu
              MO Center=  2.6D-15, -4.5D-15,  4.4D-16, r^2= 1.6D+01
   Bfn.  Coefficient  Atom+Function         Bfn.  Coefficient  Atom+Function  
  ----- ------------  ---------------      ----- ------------  ---------------
    16      1.664404  1 C  py               144      1.664404  5 C  py         
   113     -1.353014  4 H  s                241      1.353014  8 H  s          
    94      1.249922  3 H  s                222     -1.249922  7 H  s          
   112     -0.783789  4 H  s                240      0.783789  8 H  s          
    59      0.681562  2 C  s                187     -0.681562  6 C  s          

 Vector   25  Occ=0.000000D+00  E= 6.013105D-02  Symmetry=ag
              MO Center=  8.8D-15, -4.1D-15,  8.3D-15, r^2= 1.7D+01
   Bfn.  Coefficient  Atom+Function         Bfn.  Coefficient  Atom+Function  
  ----- ------------  ---------------      ----- ------------  ---------------
    60      0.947556  2 C  px               188     -0.947556  6 C  px         
    15     -0.233188  1 C  px               143      0.233188  5 C  px         
    93      0.196846  3 H  s                221      0.196846  7 H  s          
    12      0.189928  1 C  py               140     -0.189928  5 C  py         
    61     -0.181044  2 C  py               189      0.181044  6 C  py         

 Vector   26  Occ=0.000000D+00  E= 7.302542D-02  Symmetry=bg
              MO Center= -2.5D-15,  4.7D-14,  1.1D-14, r^2= 1.7D+01
   Bfn.  Coefficient  Atom+Function         Bfn.  Coefficient  Atom+Function  
  ----- ------------  ---------------      ----- ------------  ---------------
    62      0.743185  2 C  pz               190     -0.743185  6 C  pz         
    58     -0.366557  2 C  pz               186      0.366557  6 C  pz         
    17      0.223258  1 C  pz               145     -0.223258  5 C  pz         

 Vector   27  Occ=0.000000D+00  E= 8.882169D-02  Symmetry=ag
              MO Center=  3.1D-14, -4.3D-15,  6.6D-15, r^2= 1.3D+01
   Bfn.  Coefficient  Atom+Function         Bfn.  Coefficient  Atom+Function  
  ----- ------------  ---------------      ----- ------------  ---------------
    94      2.378433  3 H  s                222      2.378433  7 H  s          
    14     -1.919767  1 C  s                142     -1.919767  5 C  s          
    59     -1.132728  2 C  s                187     -1.132728  6 C  s          
    61      0.945277  2 C  py               189     -0.945277  6 C  py         
    93      0.868274  3 H  s                221      0.868274  7 H  s          

 Vector   28  Occ=0.000000D+00  E= 1.000314D-01  Symmetry=bu
              MO Center= -8.7D-12, -1.2D-11,  9.5D-15, r^2= 2.0D+01
   Bfn.  Coefficient  Atom+Function         Bfn.  Coefficient  Atom+Function  
  ----- ------------  ---------------      ----- ------------  ---------------
    94      3.550723  3 H  s                222     -3.550723  7 H  s          
   113     -2.236251  4 H  s                241      2.236251  8 H  s          
    60      1.817941  2 C  px               188      1.817941  6 C  px         
    16      1.787535  1 C  py               144      1.787535  5 C  py         
    14     -1.184102  1 C  s                142      1.184102  5 C  s          

 Vector   29  Occ=0.000000D+00  E= 1.021991D-01  Symmetry=ag
              MO Center=  1.3D-11,  4.0D-11,  2.5D-16, r^2= 2.9D+01
   Bfn.  Coefficient  Atom+Function         Bfn.  Coefficient  Atom+Function  
  ----- ------------  ---------------      ----- ------------  ---------------
    59      7.870032  2 C  s                187      7.870032  6 C  s          
   113     -7.536000  4 H  s                241     -7.536000  8 H  s          
    14      6.969081  1 C  s                142      6.969081  5 C  s          
    61      4.901769  2 C  py               189     -4.901769  6 C  py         
    94     -4.132921  3 H  s                222     -4.132921  7 H  s          

 Vector   30  Occ=0.000000D+00  E= 1.079422D-01  Symmetry=bg
              MO Center= -1.1D-14, -1.4D-15, -5.6D-15, r^2= 1.5D+01
   Bfn.  Coefficient  Atom+Function         Bfn.  Coefficient  Atom+Function  
  ----- ------------  ---------------      ----- ------------  ---------------
    17      2.118444  1 C  pz               145     -2.118444  5 C  pz         
    62     -1.532911  2 C  pz               190      1.532911  6 C  pz         
    13     -0.339593  1 C  pz               141      0.339593  5 C  pz         
    79      0.182322  2 C  dyz              207      0.182322  6 C  dyz        
    34      0.168930  1 C  dyz              162      0.168930  5 C  dyz        

 Vector   31  Occ=0.000000D+00  E= 1.091544D-01  Symmetry=bu
              MO Center= -4.0D-12, -2.0D-11, -3.3D-15, r^2= 2.4D+01
   Bfn.  Coefficient  Atom+Function         Bfn.  Coefficient  Atom+Function  
  ----- ------------  ---------------      ----- ------------  ---------------
    14      5.136645  1 C  s                142     -5.136645  5 C  s          
    59      4.944154  2 C  s                187     -4.944154  6 C  s          
   113     -4.370453  4 H  s                241      4.370453  8 H  s          
    94     -4.220477  3 H  s                222      4.220477  7 H  s          
    61      3.414696  2 C  py               189      3.414696  6 C  py         

 Vector   32  Occ=0.000000D+00  E= 1.173641D-01  Symmetry=ag
              MO Center=  1.3D-12, -7.9D-14,  3.2D-14, r^2= 1.4D+01
   Bfn.  Coefficient  Atom+Function         Bfn.  Coefficient  Atom+Function  
  ----- ------------  ---------------      ----- ------------  ---------------
   112      2.902830  4 H  s                240      2.902830  8 H  s          
    93     -2.447431  3 H  s                221     -2.447431  7 H  s          
    94      2.286140  3 H  s                222      2.286140  7 H  s          
    59     -1.712521  2 C  s                187     -1.712521  6 C  s          
    12     -1.168518  1 C  py               140      1.168518  5 C  py         

 Vector   33  Occ=0.000000D+00  E= 1.213551D-01  Symmetry=bu
              MO Center= -1.3D-14, -6.7D-12, -4.0D-15, r^2= 2.0D+01
   Bfn.  Coefficient  Atom+Function         Bfn.  Coefficient  Atom+Function  
  ----- ------------  ---------------      ----- ------------  ---------------
    59      7.230433  2 C  s                187     -7.230433  6 C  s          
    14      6.721794  1 C  s                142     -6.721794  5 C  s          
    94     -6.017968  3 H  s                222      6.017968  7 H  s          
   113     -5.818181  4 H  s                241      5.818181  8 H  s          
    61      3.467715  2 C  py               189      3.467715  6 C  py         

 Vector   34  Occ=0.000000D+00  E= 1.246495D-01  Symmetry=au
              MO Center=  3.6D-15,  1.0D-14, -3.1D-14, r^2= 1.7D+01
   Bfn.  Coefficient  Atom+Function         Bfn.  Coefficient  Atom+Function  
  ----- ------------  ---------------      ----- ------------  ---------------
    62     -1.724145  2 C  pz               190     -1.724145  6 C  pz         
    17      1.587492  1 C  pz               145      1.587492  5 C  pz         
    58      0.312941  2 C  pz               186      0.312941  6 C  pz         
    13     -0.272675  1 C  pz               141     -0.272675  5 C  pz         
    77      0.171298  2 C  dxz              205     -0.171298  6 C  dxz        

 Vector   35  Occ=0.000000D+00  E= 1.318639D-01  Symmetry=bu
              MO Center=  2.5D-12, -2.1D-12, -5.0D-15, r^2= 1.7D+01
   Bfn.  Coefficient  Atom+Function         Bfn.  Coefficient  Atom+Function  
  ----- ------------  ---------------      ----- ------------  ---------------
    94      4.644515  3 H  s                222     -4.644515  7 H  s          
    15      3.444276  1 C  px               143      3.444276  5 C  px         
    16     -1.396251  1 C  py               144     -1.396251  5 C  py         
   112     -0.936477  4 H  s                240      0.936477  8 H  s          
    61      0.898799  2 C  py               189      0.898799  6 C  py         

 Vector   36  Occ=0.000000D+00  E= 1.344662D-01  Symmetry=ag
              MO Center= -5.8D-12,  1.2D-12,  1.4D-16, r^2= 1.6D+01
   Bfn.  Coefficient  Atom+Function         Bfn.  Coefficient  Atom+Function  
  ----- ------------  ---------------      ----- ------------  ---------------
    94      5.490791  3 H  s                222      5.490791  7 H  s          
    14     -3.714216  1 C  s                142     -3.714216  5 C  s          
    16      3.322224  1 C  py               144     -3.322224  5 C  py         
    15      2.506024  1 C  px                93      2.513838  3 H  s          
   143     -2.506024  5 C  px               221      2.513838  7 H  s          

 Vector   37  Occ=0.000000D+00  E= 1.485461D-01  Symmetry=ag
              MO Center= -4.9D-13,  7.7D-13,  4.8D-16, r^2= 1.9D+01
   Bfn.  Coefficient  Atom+Function         Bfn.  Coefficient  Atom+Function  
  ----- ------------  ---------------      ----- ------------  ---------------
    94      4.547090  3 H  s                222      4.547090  7 H  s          
    14     -2.956009  1 C  s                142     -2.956009  5 C  s          
    15      2.668986  1 C  px               143     -2.668986  5 C  px         
    61      2.091317  2 C  py               189     -2.091317  6 C  py         
    59     -1.474935  2 C  s                187     -1.474935  6 C  s          

 Vector   38  Occ=0.000000D+00  E= 1.623290D-01  Symmetry=bu
              MO Center=  1.5D-12, -1.0D-12, -5.9D-16, r^2= 1.7D+01
   Bfn.  Coefficient  Atom+Function         Bfn.  Coefficient  Atom+Function  
  ----- ------------  ---------------      ----- ------------  ---------------
    94      9.077355  3 H  s                222     -9.077355  7 H  s          
    14     -7.793036  1 C  s                142      7.793036  5 C  s          
    16      7.407388  1 C  py               144      7.407388  5 C  py         
    93      4.730487  3 H  s                221     -4.730487  7 H  s          
    59     -3.308991  2 C  s                187      3.308991  6 C  s          

 Vector   39  Occ=0.000000D+00  E= 2.228024D-01  Symmetry=bu
              MO Center= -1.2D-13,  7.7D-15, -1.6D-16, r^2= 1.7D+01
   Bfn.  Coefficient  Atom+Function         Bfn.  Coefficient  Atom+Function  
  ----- ------------  ---------------      ----- ------------  ---------------
    59      6.269748  2 C  s                187     -6.269748  6 C  s          
    14      6.041122  1 C  s                142     -6.041122  5 C  s          
    93     -5.462494  3 H  s                221      5.462494  7 H  s          
   113     -4.944407  4 H  s                241      4.944407  8 H  s          
    61      4.860312  2 C  py               189      4.860312  6 C  py         

 Vector   40  Occ=0.000000D+00  E= 2.301690D-01  Symmetry=ag
              MO Center=  4.7D-14, -3.4D-13,  2.0D-16, r^2= 1.8D+01
   Bfn.  Coefficient  Atom+Function         Bfn.  Coefficient  Atom+Function  
  ----- ------------  ---------------      ----- ------------  ---------------
    14      6.807748  1 C  s                142      6.807748  5 C  s          
    59      6.530352  2 C  s                187      6.530352  6 C  s          
    61      5.603018  2 C  py               189     -5.603018  6 C  py         
   112     -5.526886  4 H  s                240     -5.526886  8 H  s          
    16     -5.448775  1 C  py               144      5.448775  5 C  py         

 Vector   41  Occ=0.000000D+00  E= 2.730561D-01  Symmetry=ag
              MO Center=  3.6D-14,  8.7D-14, -8.7D-18, r^2= 8.1D+00
   Bfn.  Coefficient  Atom+Function         Bfn.  Coefficient  Atom+Function  
  ----- ------------  ---------------      ----- ------------  ---------------
    93      4.300280  3 H  s                221      4.300280  7 H  s          
    14     -3.896380  1 C  s                142     -3.896380  5 C  s          
    94      2.824341  3 H  s                222      2.824341  7 H  s          
    59     -2.275680  2 C  s                187     -2.275680  6 C  s          
    15      1.731184  1 C  px               143     -1.731184  5 C  px         

 Vector   42  Occ=0.000000D+00  E= 2.782339D-01  Symmetry=au
              MO Center=  2.6D-15,  6.5D-15, -1.9D-16, r^2= 7.4D+00
   Bfn.  Coefficient  Atom+Function         Bfn.  Coefficient  Atom+Function  
  ----- ------------  ---------------      ----- ------------  ---------------
    32      0.733253  1 C  dxz              160     -0.733253  5 C  dxz        
    77      0.535655  2 C  dxz              205     -0.535655  6 C  dxz        
    17     -0.294028  1 C  pz                34     -0.295461  1 C  dyz        
   145     -0.294028  5 C  pz               162      0.295461  5 C  dyz        
   103      0.259045  3 H  pz               231      0.259045  7 H  pz         

 Vector   43  Occ=0.000000D+00  E= 3.058393D-01  Symmetry=bu
              MO Center= -1.0D-12, -4.8D-12, -5.3D-15, r^2= 1.8D+01
   Bfn.  Coefficient  Atom+Function         Bfn.  Coefficient  Atom+Function  
  ----- ------------  ---------------      ----- ------------  ---------------
   112      9.146164  4 H  s                240     -9.146164  8 H  s          
    59     -6.392679  2 C  s                187      6.392679  6 C  s          
   113      4.861780  4 H  s                241     -4.861780  8 H  s          
    61     -4.168832  2 C  py               189     -4.168832  6 C  py         
    60     -3.599393  2 C  px               188     -3.599393  6 C  px         

 Vector   44  Occ=0.000000D+00  E= 3.151659D-01  Symmetry=ag
              MO Center=  1.0D-12,  5.0D-12, -2.6D-16, r^2= 1.5D+01
   Bfn.  Coefficient  Atom+Function         Bfn.  Coefficient  Atom+Function  
  ----- ------------  ---------------      ----- ------------  ---------------
   112      6.849084  4 H  s                240      6.849084  8 H  s          
    59     -3.878143  2 C  s                187     -3.878143  6 C  s          
    93     -3.399277  3 H  s                221     -3.399277  7 H  s          
    57     -2.401690  2 C  py               185      2.401690  6 C  py         
    56     -2.224644  2 C  px               184      2.224644  6 C  px         

 Vector   45  Occ=0.000000D+00  E= 3.178118D-01  Symmetry=bg
              MO Center= -7.1D-16,  3.3D-15,  3.5D-15, r^2= 8.8D+00
   Bfn.  Coefficient  Atom+Function         Bfn.  Coefficient  Atom+Function  
  ----- ------------  ---------------      ----- ------------  ---------------
    17      0.632674  1 C  pz                79     -0.634236  2 C  dyz        
   145     -0.632674  5 C  pz               207     -0.634236  6 C  dyz        
   103     -0.464186  3 H  pz               231      0.464186  7 H  pz         
    34     -0.457332  1 C  dyz              162     -0.457332  5 C  dyz        
    77      0.435014  2 C  dxz              205      0.435014  6 C  dxz        

 Vector   46  Occ=0.000000D+00  E= 3.429317D-01  Symmetry=bu
              MO Center= -1.5D-14,  2.6D-14,  4.0D-16, r^2= 9.1D+00
   Bfn.  Coefficient  Atom+Function         Bfn.  Coefficient  Atom+Function  
  ----- ------------  ---------------      ----- ------------  ---------------
    94      2.005679  3 H  s                222     -2.005679  7 H  s          
    93      1.921151  3 H  s                221     -1.921151  7 H  s          
    15      1.670509  1 C  px               143      1.670509  5 C  px         
   112     -1.598771  4 H  s                240      1.598771  8 H  s          
    14     -1.066344  1 C  s                142      1.066344  5 C  s          

 Vector   47  Occ=0.000000D+00  E= 3.507355D-01  Symmetry=ag
              MO Center=  6.7D-12, -9.7D-12,  2.1D-15, r^2= 1.5D+01
   Bfn.  Coefficient  Atom+Function         Bfn.  Coefficient  Atom+Function  
  ----- ------------  ---------------      ----- ------------  ---------------
    14      8.268735  1 C  s                142      8.268735  5 C  s          
    59      7.575585  2 C  s                187      7.575585  6 C  s          
    93     -6.879880  3 H  s                221     -6.879880  7 H  s          
   112     -5.798569  4 H  s                240     -5.798569  8 H  s          
    94     -5.214700  3 H  s                222     -5.214700  7 H  s          

 Vector   48  Occ=0.000000D+00  E= 3.552026D-01  Symmetry=bu
              MO Center= -6.6D-12,  9.1D-12,  5.2D-16, r^2= 1.2D+01
   Bfn.  Coefficient  Atom+Function         Bfn.  Coefficient  Atom+Function  
  ----- ------------  ---------------      ----- ------------  ---------------
    93    -10.816210  3 H  s                221     10.816210  7 H  s          
    14      9.867676  1 C  s                142     -9.867676  5 C  s          
    94     -7.299236  3 H  s                222      7.299236  7 H  s          
    16     -6.988633  1 C  py               144     -6.988633  5 C  py         
    59      6.480003  2 C  s                187     -6.480003  6 C  s          

 Vector   49  Occ=0.000000D+00  E= 3.577148D-01  Symmetry=bg
              MO Center=  4.4D-16, -5.0D-14, -9.2D-16, r^2= 9.8D+00
   Bfn.  Coefficient  Atom+Function         Bfn.  Coefficient  Atom+Function  
  ----- ------------  ---------------      ----- ------------  ---------------
    77      0.526419  2 C  dxz              205      0.526419  6 C  dxz        
   122      0.518959  4 H  pz               250     -0.518959  8 H  pz         
   103      0.400594  3 H  pz               231     -0.400594  7 H  pz         
    79     -0.354960  2 C  dyz              207     -0.354960  6 C  dyz        
    34     -0.259136  1 C  dyz              162     -0.259136  5 C  dyz        

 Vector   50  Occ=0.000000D+00  E= 3.659683D-01  Symmetry=au
              MO Center= -2.5D-15,  3.2D-14, -8.9D-15, r^2= 1.0D+01
   Bfn.  Coefficient  Atom+Function         Bfn.  Coefficient  Atom+Function  
  ----- ------------  ---------------      ----- ------------  ---------------
   122      0.535020  4 H  pz               250      0.535020  8 H  pz         
    32     -0.384967  1 C  dxz               34     -0.383499  1 C  dyz        
   160      0.384967  5 C  dxz              162      0.383499  5 C  dyz        
    62     -0.339144  2 C  pz               190     -0.339144  6 C  pz         
   103      0.310562  3 H  pz               231      0.310562  7 H  pz         

 Vector   51  Occ=0.000000D+00  E= 3.898996D-01  Symmetry=ag
              MO Center=  1.9D-14, -1.7D-14,  6.1D-15, r^2= 9.3D+00
   Bfn.  Coefficient  Atom+Function         Bfn.  Coefficient  Atom+Function  
  ----- ------------  ---------------      ----- ------------  ---------------
    94      3.122580  3 H  s                222      3.122580  7 H  s          
    14     -2.574899  1 C  s                142     -2.574899  5 C  s          
    93      1.571928  3 H  s                221      1.571928  7 H  s          
    61      1.211871  2 C  py               189     -1.211871  6 C  py         
    16      1.131732  1 C  py               144     -1.131732  5 C  py         

 Vector   52  Occ=0.000000D+00  E= 4.059105D-01  Symmetry=bu
              MO Center=  4.5D-14,  3.5D-13, -1.2D-16, r^2= 1.2D+01
   Bfn.  Coefficient  Atom+Function         Bfn.  Coefficient  Atom+Function  
  ----- ------------  ---------------      ----- ------------  ---------------
    16      1.868284  1 C  py               144      1.868284  5 C  py         
    60      1.046738  2 C  px               188      1.046738  6 C  px         
    14     -1.034315  1 C  s                142      1.034315  5 C  s          
   112      0.813572  4 H  s                240     -0.813572  8 H  s          
    59     -0.649768  2 C  s                187      0.649768  6 C  s          

 Vector   53  Occ=0.000000D+00  E= 4.440958D-01  Symmetry=au
              MO Center=  2.6D-15,  1.3D-14,  2.2D-16, r^2= 9.2D+00
   Bfn.  Coefficient  Atom+Function         Bfn.  Coefficient  Atom+Function  
  ----- ------------  ---------------      ----- ------------  ---------------
    79      1.077390  2 C  dyz              207     -1.077390  6 C  dyz        
    77     -0.898553  2 C  dxz              205      0.898553  6 C  dxz        
    34     -0.876550  1 C  dyz              162      0.876550  5 C  dyz        
    32      0.846306  1 C  dxz              160     -0.846306  5 C  dxz        
   122     -0.487966  4 H  pz               250     -0.487966  8 H  pz         

 Vector   54  Occ=0.000000D+00  E= 4.537388D-01  Symmetry=ag
              MO Center=  5.5D-14,  1.2D-13,  6.9D-15, r^2= 1.2D+01
   Bfn.  Coefficient  Atom+Function         Bfn.  Coefficient  Atom+Function  
  ----- ------------  ---------------      ----- ------------  ---------------
    93      3.748627  3 H  s                221      3.748627  7 H  s          
   113      1.936610  4 H  s                241      1.936610  8 H  s          
    30     -1.773927  1 C  dxx              158     -1.773927  5 C  dxx        
    60     -1.532862  2 C  px               188      1.532862  6 C  px         
    59     -1.369281  2 C  s                187     -1.369281  6 C  s          

 Vector   55  Occ=0.000000D+00  E= 4.779785D-01  Symmetry=ag
              MO Center= -4.7D-15, -1.6D-14, -4.0D-15, r^2= 1.2D+01
   Bfn.  Coefficient  Atom+Function         Bfn.  Coefficient  Atom+Function  
  ----- ------------  ---------------      ----- ------------  ---------------
    94      4.295339  3 H  s                222      4.295339  7 H  s          
    14     -3.735002  1 C  s                142     -3.735002  5 C  s          
    15      2.695872  1 C  px               143     -2.695872  5 C  px         
    16      2.367376  1 C  py               144     -2.367376  5 C  py         
   112      2.256185  4 H  s                240      2.256185  8 H  s          

 Vector   56  Occ=0.000000D+00  E= 4.830987D-01  Symmetry=bu
              MO Center= -2.8D-13,  1.1D-13,  2.9D-14, r^2= 1.5D+01
   Bfn.  Coefficient  Atom+Function         Bfn.  Coefficient  Atom+Function  
  ----- ------------  ---------------      ----- ------------  ---------------
    94      4.358329  3 H  s                222     -4.358329  7 H  s          
    16      3.404460  1 C  py               144      3.404460  5 C  py         
    14     -2.772118  1 C  s                142      2.772118  5 C  s          
   113     -2.256310  4 H  s                241      2.256310  8 H  s          
    15      1.846521  1 C  px               143      1.846521  5 C  px         

 Vector   57  Occ=0.000000D+00  E= 4.879244D-01  Symmetry=bg
              MO Center=  8.0D-15, -4.2D-14, -4.0D-14, r^2= 1.1D+01
   Bfn.  Coefficient  Atom+Function         Bfn.  Coefficient  Atom+Function  
  ----- ------------  ---------------      ----- ------------  ---------------
   103      1.068975  3 H  pz               231     -1.068975  7 H  pz         
    34      1.008300  1 C  dyz              162      1.008300  5 C  dyz        
    62      0.827388  2 C  pz               190     -0.827388  6 C  pz         
   122     -0.785777  4 H  pz               250      0.785777  8 H  pz         
    17     -0.706452  1 C  pz               145      0.706452  5 C  pz         

 Vector   58  Occ=0.000000D+00  E= 4.918624D-01  Symmetry=bu
              MO Center=  1.0D-14, -2.2D-14,  6.1D-15, r^2= 1.2D+01
   Bfn.  Coefficient  Atom+Function         Bfn.  Coefficient  Atom+Function  
  ----- ------------  ---------------      ----- ------------  ---------------
   112      3.600683  4 H  s                240     -3.600683  8 H  s          
    60     -1.685849  2 C  px               188     -1.685849  6 C  px         
    78     -1.567483  2 C  dyy              206      1.567483  6 C  dyy        
    31     -1.554179  1 C  dxy              159      1.554179  5 C  dxy        
    75     -1.516782  2 C  dxx              203      1.516782  6 C  dxx        

 Vector   59  Occ=0.000000D+00  E= 5.018617D-01  Symmetry=au
              MO Center=  2.2D-14, -1.8D-13,  8.6D-16, r^2= 1.0D+01
   Bfn.  Coefficient  Atom+Function         Bfn.  Coefficient  Atom+Function  
  ----- ------------  ---------------      ----- ------------  ---------------
    77      1.299689  2 C  dxz              205     -1.299689  6 C  dxz        
   122     -1.245039  4 H  pz               250     -1.245039  8 H  pz         
    34      0.979894  1 C  dyz              162     -0.979894  5 C  dyz        
   103      0.790229  3 H  pz               231      0.790229  7 H  pz         
    17     -0.782099  1 C  pz               145     -0.782099  5 C  pz         


 center of mass
 --------------
 x =   0.00000000 y =   0.00000000 z =   0.00000000

 moments of inertia (a.u.)
 ------------------
         893.164860396322           0.000000000000           0.000000000000
           0.000000000000          44.551784949502           0.000000000000
           0.000000000000           0.000000000000         937.716645345825

     Multipole analysis of the density
     ---------------------------------

     L   x y z        total         alpha         beta         nuclear
     -   - - -        -----         -----         ----         -------
     0   0 0 0      0.000000    -14.000000    -14.000000     28.000000

     1   1 0 0      0.000000      0.000000      0.000000      0.000000
     1   0 1 0     -0.000000     -0.000000     -0.000000      0.000000
     1   0 0 1      0.000000      0.000000      0.000000      0.000000

     2   2 0 0    -16.483226    -23.394600    -23.394600     30.305974
     2   1 1 0      4.581194     -1.603243     -1.603243      7.787680
     2   1 0 1      0.000000      0.000000      0.000000      0.000000
     2   0 2 0    -14.660947   -252.394617   -252.394617    490.128288
     2   0 1 1      0.000000      0.000000      0.000000      0.000000
     2   0 0 2    -20.496576    -10.248288    -10.248288      0.000000


------------------------------------------------------------
EAF file 0: "./C2H2-C2H2.aoints.0" size=1329594368 bytes
------------------------------------------------------------
               write      read    awrite     aread      wait
               -----      ----    ------     -----      ----
     calls:     2536         7         0     17745     17745
   data(b): 1.33e+09  3.67e+06  0.00e+00  9.30e+09
   time(s): 0.00e+00  0.00e+00  0.00e+00  0.00e+00  0.00e+00
rate(mb/s): 0.00e+00  0.00e+00
------------------------------------------------------------


 Parallel integral file used    2536 records with       0 large values


 Task  times  cpu:       81.1s     wall:       90.3s


                                NWChem Input Module
                                -------------------


 Summary of allocated global arrays
-----------------------------------
  No active global arrays



                         GA Statistics for process    0
                         ------------------------------

       create   destroy   get      put      acc     scatter   gather  read&inc
calls:  249      249     7.48e+04 2.21e+04 3.17e+04    0        0     2868     
number of processes/call 1.00e+00 1.00e+00 1.00e+00 0.00e+00 0.00e+00
bytes total:             5.31e+08 1.28e+08 3.28e+08 0.00e+00 0.00e+00 2.29e+04
bytes remote:            0.00e+00 0.00e+00 0.00e+00 0.00e+00 0.00e+00 0.00e+00
Max memory consumed for GA by this process: 20447232 bytes

MA_summarize_allocated_blocks: starting scan ...
MA_summarize_allocated_blocks: scan completed: 0 heap blocks, 0 stack blocks
MA usage statistics:

	allocation statistics:
					      heap	     stack
					      ----	     -----
	current number of blocks	         0	         0
	maximum number of blocks	        23	        55
	current total bytes		         0	         0
	maximum total bytes		   3520384	  32293992
	maximum total K-bytes		      3521	     32294
	maximum total M-bytes		         4	        33


                                     CITATION
                                     --------
                Please cite the following reference when publishing
                           results obtained with NWChem:

                 M. Valiev, E.J. Bylaska, N. Govind, K. Kowalski,
              T.P. Straatsma, H.J.J. van Dam, D. Wang, J. Nieplocha,
                        E. Apra, T.L. Windus, W.A. de Jong
                 "NWChem: a comprehensive and scalable open-source
                  solution for large scale molecular simulations"
                      Comput. Phys. Commun. 181, 1477 (2010)
                           doi:10.1016/j.cpc.2010.04.018

                                      AUTHORS
                                      -------
          E. Apra, E. J. Bylaska, W. A. de Jong, N. Govind, K. Kowalski,
       T. P. Straatsma, M. Valiev, H. J. J. van Dam, D. Wang, T. L. Windus,
        J. Hammond, J. Autschbach, K. Bhaskaran-Nair, J. Brabec, K. Lopata,
       S. A. Fischer, S. Krishnamoorthy, W. Ma, M. Klemm, O. Villa, Y. Chen,
    V. Anisimov, F. Aquino, S. Hirata, M. T. Hackler, T. Risthaus, M. Malagoli,
       A. Marenich, A. Otero-de-la-Roza, J. Mullin, P. Nichols, R. Peverati,
     J. Pittner, Y. Zhao, P.-D. Fan, A. Fonari, M. Williamson, R. J. Harrison,
       J. R. Rehr, M. Dupuis, D. Silverstein, D. M. A. Smith, J. Nieplocha,
        V. Tipparaju, M. Krishnan, B. E. Van Kuiken, A. Vazquez-Mayagoitia,
        L. Jensen, M. Swart, Q. Wu, T. Van Voorhis, A. A. Auer, M. Nooijen,
      L. D. Crosby, E. Brown, G. Cisneros, G. I. Fann, H. Fruchtl, J. Garza,
        K. Hirao, R. A. Kendall, J. A. Nichols, K. Tsemekhman, K. Wolinski,
     J. Anchell, D. E. Bernholdt, P. Borowski, T. Clark, D. Clerc, H. Dachsel,
   M. J. O. Deegan, K. Dyall, D. Elwood, E. Glendening, M. Gutowski, A. C. Hess,
         J. Jaffe, B. G. Johnson, J. Ju, R. Kobayashi, R. Kutteh, Z. Lin,
   R. Littlefield, X. Long, B. Meng, T. Nakajima, S. Niu, L. Pollack, M. Rosing,
   K. Glaesemann, G. Sandrone, M. Stave, H. Taylor, G. Thomas, J. H. van Lenthe,
                               A. T. Wong, Z. Zhang.

 Total times  cpu:       81.2s     wall:       90.5s
