[1537885999.083829] [r8n3:30858:0]         sys.c:744  MXM  WARN  Conflicting CPU frequencies detected, using: 3584.68
[1537885999.089318] [r8n3:30858:0]         mxm.c:196  MXM  WARN  The 'ulimit -s' on the system is set to 'unlimited'. This may have negative performance implications. Please set the stack size to the default value (10240) 
[1537885999.091204] [r8n3:30858:0]         mxm.c:196  MXM  WARN  The 'ulimit -s' on the system is set to 'unlimited'. This may have negative performance implications. Please set the stack size to the default value (10240) 
 argument  1 = /storage/home/bikashp/nwchem_run/rabeet/hb6/nwrevtpss/C2H4-F2.nw
                                         
                                         


              Northwest Computational Chemistry Package (NWChem) 6.6
              ------------------------------------------------------


                    Environmental Molecular Sciences Laboratory
                       Pacific Northwest National Laboratory
                                Richland, WA 99352

                              Copyright (c) 1994-2015
                       Pacific Northwest National Laboratory
                            Battelle Memorial Institute

             NWChem is an open-source computational chemistry package
                        distributed under the terms of the
                      Educational Community License (ECL) 2.0
             A copy of the license is included with this distribution
                              in the LICENSE.TXT file

                                  ACKNOWLEDGMENT
                                  --------------

            This software and its documentation were developed at the
            EMSL at Pacific Northwest National Laboratory, a multiprogram
            national laboratory, operated for the U.S. Department of Energy
            by Battelle under Contract Number DE-AC05-76RL01830. Support
            for this work was provided by the Department of Energy Office
            of Biological and Environmental Research, Office of Basic
            Energy Sciences, and the Office of Advanced Scientific Computing.


           Job information
           ---------------

    hostname        = r8n3.niserhpc.org
    program         = /home/bikashp/Code/nwchem-6.6_revtpss/bin/LINUX64/nwchem
    date            = Tue Sep 25 20:03:19 2018

    compiled        = Tue_Sep_25_17:05:19_2018
    source          = /home/bikashp/Code/nwchem-6.6_revtpss
    nwchem branch   = 6.6
    nwchem revision = 27746
    ga revision     = 10594
    input           = /storage/home/bikashp/nwchem_run/rabeet/hb6/nwrevtpss/C2H4-F2.nw
    prefix          = C2H4-F2.
    data base       = ./C2H4-F2.db
    status          = startup
    nproc           =        1
    time left       =     -1s



           Memory information
           ------------------

    heap     =   13107196 doubles =    100.0 Mbytes
    stack    =   13107201 doubles =    100.0 Mbytes
    global   =   26214400 doubles =    200.0 Mbytes (distinct from heap & stack)
    total    =   52428797 doubles =    400.0 Mbytes
    verify   = yes
    hardfail = no 


           Directory information
           ---------------------

  0 permanent = .
  0 scratch   = .




                                NWChem Input Module
                                -------------------



 Scaling coordinates for geometry "geometry" by  1.889725989
 (inverse scale =  0.529177249)

 C2V symmetry detected

          ------
          auto-z
          ------
  autoz: The atoms group into disjoint clusters
 cluster   1:    1    2    3    4    5    6
 cluster   2:    7
 cluster   3:    8
 Connecting clusters   1   2 via atoms    1    7 r = 3.05
 Connecting clusters   1   3 via atoms    1    8 r = 4.45
 Connecting clusters   2   3 via atoms    7    8 r = 1.42
  autoz: regenerating connections with new bonds


                             Geometry "geometry" -> ""
                             -------------------------

 Output coordinates in angstroms (scale by  1.889725989 to convert to a.u.)

  No.       Tag          Charge          X              Y              Z
 ---- ---------------- ---------- -------------- -------------- --------------
    1 C                    6.0000     0.00000000    -0.66839000     1.95281176
    2 C                    6.0000     0.00000000     0.66839000     1.95281176
    3 H                    1.0000    -0.92519000    -1.23398000     1.95227426
    4 H                    1.0000     0.92519000    -1.23398000     1.95227426
    5 H                    1.0000    -0.92519000     1.23398000     1.95227426
    6 H                    1.0000     0.92519000     1.23398000     1.95227426
    7 F                    9.0000     0.00000000     0.00000000    -1.02573324
    8 F                    9.0000     0.00000000     0.00000000    -2.44569324

      Atomic Mass 
      ----------- 

      C                 12.000000
      H                  1.007825
      F                 18.998400


 Effective nuclear repulsion energy (a.u.)     104.8327487029

            Nuclear Dipole moment (a.u.) 
            ----------------------------
        X                 Y               Z
 ---------------- ---------------- ----------------
    -0.0000000000     0.0000000000    -0.0000000000

      Symmetry information
      --------------------

 Group name             C2v       
 Group number             16
 Group order               4
 No. of unique centers     4

      Symmetry unique atoms

     1    3    7    8



                                Z-matrix (autoz)
                                -------- 

 Units are Angstrom for bonds and degrees for angles

      Type          Name      I     J     K     L     M      Value
      ----------- --------  ----- ----- ----- ----- ----- ----------
    1 Stretch                  1     7                       3.05262
    2 Stretch                  1     8                       4.44900
    3 Stretch                  1     2                       1.33678
    4 Stretch                  1     3                       1.08437
    5 Stretch                  1     4                       1.08437
    6 Stretch                  2     5                       1.08437
    7 Stretch                  2     6                       1.08437
    8 Stretch                  7     8                       1.41996
    9 Bend                     1     7     8               167.35226
   10 Bend                     1     8     7                 8.64048
   11 Bend                     1     2     5               121.43840
   12 Bend                     1     2     6               121.43840
   13 Bend                     2     1     7                77.35226
   14 Bend                     2     1     8                81.35952
   15 Bend                     2     1     3               121.43840
   16 Bend                     2     1     4               121.43840
   17 Bend                     3     1     7                96.52980
   18 Bend                     3     1     8                94.46609
   19 Bend                     3     1     4               117.12316
   20 Bend                     4     1     7                96.52980
   21 Bend                     4     1     8                94.46609
   22 Bend                     5     2     6               117.12316
   23 Torsion                  2     1     7     8         180.00000
   24 Torsion                  2     1     8     7           0.00000
   25 Torsion                  3     1     7     8         -59.17901
   26 Torsion                  3     1     8     7         121.15179
   27 Torsion                  3     1     2     5           0.00000
   28 Torsion                  3     1     2     6        -179.93343
   29 Torsion                  4     1     7     8          59.17901
   30 Torsion                  4     1     8     7        -121.15179
   31 Torsion                  4     1     2     5         179.93343
   32 Torsion                  4     1     2     6           0.00000
   33 Torsion                  5     2     1     7          89.96671
   34 Torsion                  5     2     1     8          89.96671
   35 Torsion                  6     2     1     7         -89.96671
   36 Torsion                  6     2     1     8         -89.96671


            XYZ format geometry
            -------------------
     8
 geometry
 C                     0.00000000    -0.66839000     1.95281176
 C                     0.00000000     0.66839000     1.95281176
 H                    -0.92519000    -1.23398000     1.95227426
 H                     0.92519000    -1.23398000     1.95227426
 H                    -0.92519000     1.23398000     1.95227426
 H                     0.92519000     1.23398000     1.95227426
 F                     0.00000000     0.00000000    -1.02573324
 F                     0.00000000     0.00000000    -2.44569324

 ==============================================================================
                                internuclear distances
 ------------------------------------------------------------------------------
       center one      |      center two      | atomic units |  angstroms
 ------------------------------------------------------------------------------
    2 C                |   1 C                |     2.52615  |     1.33678
    3 H                |   1 C                |     2.04917  |     1.08437
    4 H                |   1 C                |     2.04917  |     1.08437
    5 H                |   2 C                |     2.04917  |     1.08437
    6 H                |   2 C                |     2.04917  |     1.08437
 ------------------------------------------------------------------------------
                         number of included internuclear distances:          5
 ==============================================================================



 ==============================================================================
                                 internuclear angles
 ------------------------------------------------------------------------------
        center 1       |       center 2       |       center 3       |  degrees
 ------------------------------------------------------------------------------
    2 C                |   1 C                |   3 H                |   121.44
    2 C                |   1 C                |   4 H                |   121.44
    3 H                |   1 C                |   4 H                |   117.12
    1 C                |   2 C                |   5 H                |   121.44
    1 C                |   2 C                |   6 H                |   121.44
    5 H                |   2 C                |   6 H                |   117.12
 ------------------------------------------------------------------------------
                            number of included internuclear angles:          6
 ==============================================================================





 Summary of "ao basis" -> "" (cartesian)
 ------------------------------------------------------------------------------
       Tag                 Description            Shells   Functions and Types
 ---------------- ------------------------------  ------  ---------------------
 *                     6-311++G(3df,3pd)              on all atoms 



                                 NWChem DFT Module
                                 -----------------


                      Basis "ao basis" -> "ao basis" (cartesian)
                      -----
  C (Carbon)
  ----------
            Exponent  Coefficients 
       -------------- ---------------------------------------------------------
  1 S  4.56324000E+03  0.001967
  1 S  6.82024000E+02  0.015231
  1 S  1.54973000E+02  0.076127
  1 S  4.44553000E+01  0.260801
  1 S  1.30290000E+01  0.616462
  1 S  1.82773000E+00  0.221006

  2 S  2.09642000E+01  0.114660
  2 S  4.80331000E+00  0.919999
  2 S  1.45933000E+00 -0.003031

  3 P  2.09642000E+01  0.040249
  3 P  4.80331000E+00  0.237594
  3 P  1.45933000E+00  0.815854

  4 S  4.83456000E-01  1.000000

  5 P  4.83456000E-01  1.000000

  6 S  1.45585000E-01  1.000000

  7 P  1.45585000E-01  1.000000

  8 S  4.38000000E-02  1.000000

  9 P  4.38000000E-02  1.000000

 10 D  2.50400000E+00  1.000000

 11 D  6.26000000E-01  1.000000

 12 D  1.56500000E-01  1.000000

 13 F  8.00000000E-01  1.000000

  H (Hydrogen)
  ------------
            Exponent  Coefficients 
       -------------- ---------------------------------------------------------
  1 S  3.38650000E+01  0.025494
  1 S  5.09479000E+00  0.190373
  1 S  1.15879000E+00  0.852161

  2 S  3.25840000E-01  1.000000

  3 S  1.02741000E-01  1.000000

  4 S  3.60000000E-02  1.000000

  5 P  3.00000000E+00  1.000000

  6 P  7.50000000E-01  1.000000

  7 P  1.87500000E-01  1.000000

  8 D  1.00000000E+00  1.000000

  F (Fluorine)
  ------------
            Exponent  Coefficients 
       -------------- ---------------------------------------------------------
  1 S  1.14271000E+04  0.001801
  1 S  1.72235000E+03  0.013742
  1 S  3.95746000E+02  0.068133
  1 S  1.15139000E+02  0.233325
  1 S  3.36026000E+01  0.589086
  1 S  4.91901000E+00  0.299505

  2 S  5.54441000E+01  0.114536
  2 S  1.26323000E+01  0.920512
  2 S  3.71756000E+00 -0.003378

  3 P  5.54441000E+01  0.035461
  3 P  1.26323000E+01  0.237451
  3 P  3.71756000E+00  0.820458

  4 S  1.16545000E+00  1.000000

  5 P  1.16545000E+00  1.000000

  6 S  3.21892000E-01  1.000000

  7 P  3.21892000E-01  1.000000

  8 S  1.07600000E-01  1.000000

  9 P  1.07600000E-01  1.000000

 10 D  7.00000000E+00  1.000000

 11 D  1.75000000E+00  1.000000

 12 D  4.37500000E-01  1.000000

 13 F  1.85000000E+00  1.000000



 Summary of "ao basis" -> "ao basis" (cartesian)
 ------------------------------------------------------------------------------
       Tag                 Description            Shells   Functions and Types
 ---------------- ------------------------------  ------  ---------------------
 C                     6-311++G(3df,3pd)            13       45   5s4p3d1f
 H                     6-311++G(3df,3pd)             8       19   4s3p1d
 F                     6-311++G(3df,3pd)            13       45   5s4p3d1f




 Summary of "ao basis" -> "ao basis" (cartesian)
 ------------------------------------------------------------------------------
       Tag                 Description            Shells   Functions and Types
 ---------------- ------------------------------  ------  ---------------------
 C                     6-311++G(3df,3pd)            13       45   5s4p3d1f
 H                     6-311++G(3df,3pd)             8       19   4s3p1d
 F                     6-311++G(3df,3pd)            13       45   5s4p3d1f


      Symmetry analysis of basis
      --------------------------

        a1         92
        a2         41
        b1         53
        b2         70

  Caching 1-el integrals 

            General Information
            -------------------
          SCF calculation type: DFT
          Wavefunction type:  closed shell.
          No. of atoms     :     8
          No. of electrons :    34
           Alpha electrons :    17
            Beta electrons :    17
          Charge           :     0
          Spin multiplicity:     1
          Use of symmetry is: on ; symmetry adaption is: on 
          Maximum number of iterations: ***
          AO basis - number of functions:   256
                     number of shells:    84
          Convergence on energy requested: 1.00D-06
          Convergence on density requested: 1.00D-05
          Convergence on gradient requested: 5.00D-04

              XC Information
              --------------
                  TPSS metaGGA Exchange Functional  1.000          
             TPSS03 metaGGA Correlation Functional  1.000          

             Grid Information
             ----------------
          Grid used for XC integration:  medium    
          Radial quadrature: Mura-Knowles        
          Angular quadrature: Lebedev. 
          Tag              B.-S. Rad. Rad. Pts. Rad. Cut. Ang. Pts.
          ---              ---------- --------- --------- ---------
          C                   0.70       49          12.0       434
          H                   0.35       45          13.0       434
          F                   0.50       49          14.0       434
          Grid pruning is: on 
          Number of quadrature shells:   192
          Spatial weights used:  Erf1

          Convergence Information
          -----------------------
          Convergence aids based upon iterative change in 
          total energy or number of iterations. 
          Levelshifting, if invoked, occurs when the 
          HOMO/LUMO gap drops below (HL_TOL): 1.00D-02
          DIIS, if invoked, will attempt to extrapolate 
          using up to (NFOCK): 10 stored Fock matrices.

                    Damping( 0%)  Levelshifting(0.5)       DIIS
                  --------------- ------------------- ---------------
          dE  on:    start            ASAP                start   
          dE off:    2 iters        *** iters           *** iters 


      Screening Tolerance Information
      -------------------------------
          Density screening/tol_rho: 1.00D-10
          AO Gaussian exp screening on grid/accAOfunc:  14
          CD Gaussian exp screening on grid/accCDfunc:  20
          XC Gaussian exp screening on grid/accXCfunc:  20
          Schwarz screening/accCoul: 1.00D-08


 WARNING : Found     1 linear dependencies 
 S eigenvalue threshold:     1.00000E-05
 Smallest S eigenvalue :     8.95033E-06
 Largest  S eigenvalue :     8.95033E-06


 !! The overlap matrix has   1 vectors deemed linearly dependent with
    eigenvalues:
 8.95D-06


      Superposition of Atomic Density Guess
      -------------------------------------

 Sum of atomic energies:        -276.15325507

      Non-variational initial energy
      ------------------------------

 Total energy =    -277.002550
 1-e energy   =    -589.273989
 2-e energy   =     207.438690
 HOMO         =      -0.347870
 LUMO         =      -0.206447


      Symmetry analysis of molecular orbitals - initial
      -------------------------------------------------

  Numbering of irreducible representations: 

     1 a1          2 a2          3 b1          4 b2      

  Orbital symmetries:

     1 a1          2 a1          3 a1          4 b2          5 a1      
     6 a1          7 a1          8 b2          9 a1         10 b1      
    11 b2         12 b1         13 a1         14 b2         15 b1      
    16 a2         17 a1         18 a1         19 b2         20 a1      
    21 b2         22 b1         23 a2         24 a1         25 a1      
    26 b2         27 a1      

   Time after variat. SCF:     10.4
   Time prior to 1st pass:     10.4

 Integral file          = ./C2H4-F2.aoints.0
 Record size in doubles =    65536    No. of integs per rec  =    32766
 Max. records in memory =        0    Max. records in file   = ********
 No. of bits per label  =       16    No. of bits per value  =       64


 #quartets = 1.542D+06 #integrals = 7.962D+07 #direct =  0.0% #cached =100.0%


 Grid_pts file          = ./C2H4-F2.gridpts.0
 Record size in doubles =  12289        No. of grid_pts per rec  =   3070
 Max. records in memory =     31        Max. recs in file   = 995236863

 Grid integrated density:      33.989795201173
 Requested integration accuracy:   0.10E-05

           Memory utilization after 1st SCF pass: 
           Heap Space remaining (MW):       12.72            12720388
          Stack Space remaining (MW):       13.11            13105724

   convergence    iter        energy       DeltaE   RMS-Dens  Diis-err    time
 ---------------- ----- ----------------- --------- --------- ---------  ------
 d= 0,ls=0.0,diis     1   -278.0807078034 -3.83D+02  5.58D-03  1.02D+00    34.5
 d= 0,ls=0.0,diis     2   -277.6643033026  4.16D-01  5.22D-03  4.14D+00    40.8
 d= 0,ls=0.0,diis     3   -278.0958293107 -4.32D-01  1.53D-03  3.85D-01    47.0
 d= 0,ls=0.0,diis     4   -278.1293256492 -3.35D-02  1.01D-03  1.18D-01    53.3
 d= 0,ls=0.0,diis     5   -278.1297521099 -4.26D-04  4.79D-04  1.19D-01    59.6
  Resetting Diis
 d= 0,ls=0.0,diis     6   -278.1389122774 -9.16D-03  1.09D-04  2.98D-03    65.6
 d= 0,ls=0.0,diis     7   -278.1390722603 -1.60D-04  1.49D-04  3.17D-04    71.5
 d= 0,ls=0.0,diis     8   -278.1389661341  1.06D-04  8.99D-05  1.49D-03    77.6
 d= 0,ls=0.0,diis     9   -278.1391441196 -1.78D-04  1.49D-05  9.24D-05    83.7
 d= 0,ls=0.0,diis    10   -278.1391461126 -1.99D-06  5.12D-06  1.28D-05    89.7
 d= 0,ls=0.0,diis    11   -278.1391449460  1.17D-06  1.82D-06  2.96D-07    95.7
 d= 0,ls=0.0,diis    12   -278.1391452722 -3.26D-07  7.14D-08  1.21D-09   101.7


         Total DFT energy =     -278.139145272154
      One electron energy =     -591.170487119591
           Coulomb energy =      241.178766207330
          Exchange energy =      -31.827131592802
       Correlation energy =       -1.153041469969
 Nuclear repulsion energy =      104.832748702878

 Numeric. integr. density =       33.999989197599

     Total iterative time =     91.3s



                  Occupations of the irreducible representations
                  ----------------------------------------------

                     irrep           alpha         beta
                     --------     --------     --------
                     a1                9.0          9.0
                     a2                1.0          1.0
                     b1                3.0          3.0
                     b2                4.0          4.0


                       DFT Final Molecular Orbital Analysis
                       ------------------------------------

 Vector    4  Occ=2.000000D+00  E=-1.002711D+01  Symmetry=b2
              MO Center= -6.0D-17, -4.0D-16,  2.0D+00, r^2= 4.7D-01
   Bfn.  Coefficient  Atom+Function         Bfn.  Coefficient  Atom+Function  
  ----- ------------  ---------------      ----- ------------  ---------------
     1      0.398755  1 C  s                 46     -0.398755  2 C  s          
     2      0.328891  1 C  s                 47     -0.328891  2 C  s          

 Vector    5  Occ=2.000000D+00  E=-1.252049D+00  Symmetry=a1
              MO Center=  1.3D-17,  7.4D-17, -1.7D+00, r^2= 6.5D-01
   Bfn.  Coefficient  Atom+Function         Bfn.  Coefficient  Atom+Function  
  ----- ------------  ---------------      ----- ------------  ---------------
   176      0.465166  7 F  s                221      0.459550  8 F  s          
   172      0.437611  7 F  s                217      0.433138  8 F  s          
   168     -0.157225  7 F  s                213     -0.155920  8 F  s          

 Vector    6  Occ=2.000000D+00  E=-1.029975D+00  Symmetry=a1
              MO Center= -1.4D-16,  4.3D-16, -1.7D+00, r^2= 9.7D-01
   Bfn.  Coefficient  Atom+Function         Bfn.  Coefficient  Atom+Function  
  ----- ------------  ---------------      ----- ------------  ---------------
   221     -0.542404  8 F  s                176      0.537216  7 F  s          
   172      0.498309  7 F  s                217     -0.500202  8 F  s          
   213      0.173637  8 F  s                168     -0.172588  7 F  s          

 Vector    7  Occ=2.000000D+00  E=-7.224900D-01  Symmetry=a1
              MO Center= -1.2D-15,  1.4D-14,  2.0D+00, r^2= 1.1D+00
   Bfn.  Coefficient  Atom+Function         Bfn.  Coefficient  Atom+Function  
  ----- ------------  ---------------      ----- ------------  ---------------
     6      0.361314  1 C  s                 51      0.361314  2 C  s          
    10      0.254982  1 C  s                 55      0.254982  2 C  s          

 Vector    8  Occ=2.000000D+00  E=-5.525313D-01  Symmetry=b2
              MO Center= -5.6D-17, -1.3D-14,  2.0D+00, r^2= 2.1D+00
   Bfn.  Coefficient  Atom+Function         Bfn.  Coefficient  Atom+Function  
  ----- ------------  ---------------      ----- ------------  ---------------
     6      0.291476  1 C  s                 51     -0.291476  2 C  s          

 Vector    9  Occ=2.000000D+00  E=-5.423477D-01  Symmetry=a1
              MO Center= -7.6D-16, -6.3D-16, -1.7D+00, r^2= 1.1D+00
   Bfn.  Coefficient  Atom+Function         Bfn.  Coefficient  Atom+Function  
  ----- ------------  ---------------      ----- ------------  ---------------
   175      0.311674  7 F  pz               220     -0.311536  8 F  pz         
   179      0.253264  7 F  pz               224     -0.231373  8 F  pz         
   171      0.221167  7 F  pz               216     -0.219513  8 F  pz         
   221      0.163596  8 F  s          

 Vector   10  Occ=2.000000D+00  E=-4.581401D-01  Symmetry=b1
              MO Center=  1.2D-15,  6.0D-16, -1.7D+00, r^2= 1.1D+00
   Bfn.  Coefficient  Atom+Function         Bfn.  Coefficient  Atom+Function  
  ----- ------------  ---------------      ----- ------------  ---------------
   173      0.318841  7 F  px               218      0.313331  8 F  px         
   177      0.260696  7 F  px               222      0.255173  8 F  px         
   169      0.220275  7 F  px               214      0.216214  8 F  px         

 Vector   11  Occ=2.000000D+00  E=-4.580718D-01  Symmetry=b2
              MO Center= -2.8D-16, -4.2D-16, -1.7D+00, r^2= 9.3D-01
   Bfn.  Coefficient  Atom+Function         Bfn.  Coefficient  Atom+Function  
  ----- ------------  ---------------      ----- ------------  ---------------
    14      0.434242  1 C  s                 59     -0.434242  2 C  s          
   174     -0.319542  7 F  py               219     -0.315075  8 F  py         
   178     -0.265263  7 F  py               223     -0.257088  8 F  py         
   170     -0.221377  7 F  py               215     -0.217538  8 F  py         

 Vector   12  Occ=2.000000D+00  E=-4.443558D-01  Symmetry=b1
              MO Center=  1.5D-15, -1.8D-17,  1.9D+00, r^2= 2.0D+00
   Bfn.  Coefficient  Atom+Function         Bfn.  Coefficient  Atom+Function  
  ----- ------------  ---------------      ----- ------------  ---------------
     7      0.192234  1 C  px                52      0.192234  2 C  px         
     3      0.152109  1 C  px                48      0.152109  2 C  px         

 Vector   13  Occ=2.000000D+00  E=-3.917665D-01  Symmetry=a1
              MO Center= -6.0D-16,  1.7D-16,  2.0D+00, r^2= 1.7D+00
   Bfn.  Coefficient  Atom+Function         Bfn.  Coefficient  Atom+Function  
  ----- ------------  ---------------      ----- ------------  ---------------
     8      0.238518  1 C  py                53     -0.238518  2 C  py         
     4      0.197078  1 C  py                49     -0.197078  2 C  py         

 Vector   14  Occ=2.000000D+00  E=-3.371023D-01  Symmetry=a2
              MO Center=  1.4D-15, -1.1D-15,  2.0D+00, r^2= 2.4D+00
   Bfn.  Coefficient  Atom+Function         Bfn.  Coefficient  Atom+Function  
  ----- ------------  ---------------      ----- ------------  ---------------
    92     -0.191348  3 H  s                111      0.191348  4 H  s          
   130      0.191348  5 H  s                149     -0.191348  6 H  s          
     7      0.179595  1 C  px                52     -0.179595  2 C  px         

 Vector   15  Occ=2.000000D+00  E=-3.344950D-01  Symmetry=b2
              MO Center= -7.2D-16, -4.9D-17, -1.7D+00, r^2= 9.8D-01
   Bfn.  Coefficient  Atom+Function         Bfn.  Coefficient  Atom+Function  
  ----- ------------  ---------------      ----- ------------  ---------------
   219     -0.354688  8 F  py               174      0.349684  7 F  py         
   178      0.305411  7 F  py               223     -0.306279  8 F  py         
    14     -0.277825  1 C  s                 59      0.277825  2 C  s          
   215     -0.244488  8 F  py               170      0.241733  7 F  py         

 Vector   16  Occ=2.000000D+00  E=-3.343718D-01  Symmetry=b1
              MO Center=  1.1D-16,  9.1D-16, -1.7D+00, r^2= 9.8D-01
   Bfn.  Coefficient  Atom+Function         Bfn.  Coefficient  Atom+Function  
  ----- ------------  ---------------      ----- ------------  ---------------
   218     -0.354392  8 F  px               173      0.350576  7 F  px         
   222     -0.306120  8 F  px               177      0.303343  7 F  px         
   214     -0.244329  8 F  px               169      0.241944  7 F  px         

 Vector   17  Occ=2.000000D+00  E=-2.615692D-01  Symmetry=a1
              MO Center=  2.2D-16, -2.8D-15,  1.8D+00, r^2= 1.9D+00
   Bfn.  Coefficient  Atom+Function         Bfn.  Coefficient  Atom+Function  
  ----- ------------  ---------------      ----- ------------  ---------------
     9      0.257696  1 C  pz                54      0.257696  2 C  pz         
    13      0.232113  1 C  pz                58      0.232113  2 C  pz         
     5      0.183414  1 C  pz                50      0.183414  2 C  pz         

 Vector   18  Occ=0.000000D+00  E=-1.828002D-01  Symmetry=a1
              MO Center=  2.4D-17, -8.9D-16, -1.6D+00, r^2= 1.5D+00
   Bfn.  Coefficient  Atom+Function         Bfn.  Coefficient  Atom+Function  
  ----- ------------  ---------------      ----- ------------  ---------------
   175      0.378073  7 F  pz               179      0.375716  7 F  pz         
   220      0.372706  8 F  pz               224      0.362777  8 F  pz         
   171      0.258931  7 F  pz               216      0.253746  8 F  pz         
   176     -0.220267  7 F  s                221      0.218465  8 F  s          
   217      0.166341  8 F  s                172     -0.155209  7 F  s          

 Vector   19  Occ=0.000000D+00  E=-4.130963D-02  Symmetry=b2
              MO Center=  3.9D-16,  2.6D-15,  2.0D+00, r^2= 3.0D+00
   Bfn.  Coefficient  Atom+Function         Bfn.  Coefficient  Atom+Function  
  ----- ------------  ---------------      ----- ------------  ---------------
    17      0.505966  1 C  pz                62     -0.505966  2 C  pz         
    13      0.371472  1 C  pz                58     -0.371472  2 C  pz         
     9      0.274868  1 C  pz                54     -0.274868  2 C  pz         
    14     -0.200884  1 C  s                 59      0.200884  2 C  s          
     5      0.186685  1 C  pz                50     -0.186685  2 C  pz         

 Vector   20  Occ=0.000000D+00  E=-1.647257D-02  Symmetry=a1
              MO Center= -1.7D-15,  5.2D-15,  2.1D+00, r^2= 1.4D+01
   Bfn.  Coefficient  Atom+Function         Bfn.  Coefficient  Atom+Function  
  ----- ------------  ---------------      ----- ------------  ---------------
    14      1.872377  1 C  s                 59      1.872377  2 C  s          
    94     -1.168592  3 H  s                113     -1.168592  4 H  s          
   132     -1.168592  5 H  s                151     -1.168592  6 H  s          
    16     -0.308859  1 C  py                61      0.308859  2 C  py         

 Vector   21  Occ=0.000000D+00  E= 1.150244D-03  Symmetry=b2
              MO Center=  1.1D-15, -2.2D-14,  2.0D+00, r^2= 1.6D+01
   Bfn.  Coefficient  Atom+Function         Bfn.  Coefficient  Atom+Function  
  ----- ------------  ---------------      ----- ------------  ---------------
    14      5.995677  1 C  s                 59     -5.995677  2 C  s          
    94     -1.799120  3 H  s                113     -1.799120  4 H  s          
   132      1.799120  5 H  s                151      1.799120  6 H  s          
    16      0.521172  1 C  py                61      0.521172  2 C  py         
    10     -0.264082  1 C  s                 55      0.264082  2 C  s          

 Vector   22  Occ=0.000000D+00  E= 3.960302D-03  Symmetry=b1
              MO Center=  9.2D-14,  1.1D-13,  1.9D+00, r^2= 1.5D+01
   Bfn.  Coefficient  Atom+Function         Bfn.  Coefficient  Atom+Function  
  ----- ------------  ---------------      ----- ------------  ---------------
    94      2.022912  3 H  s                113     -2.022912  4 H  s          
   132      2.022912  5 H  s                151     -2.022912  6 H  s          
    15      0.747629  1 C  px                60      0.747629  2 C  px         
    31      0.160778  1 C  dxy               76     -0.160778  2 C  dxy        

 Vector   23  Occ=0.000000D+00  E= 3.558022D-02  Symmetry=a2
              MO Center=  1.4D-13, -1.4D-13,  2.0D+00, r^2= 2.2D+01
   Bfn.  Coefficient  Atom+Function         Bfn.  Coefficient  Atom+Function  
  ----- ------------  ---------------      ----- ------------  ---------------
    94      6.930395  3 H  s                113     -6.930395  4 H  s          
   132     -6.930395  5 H  s                151      6.930395  6 H  s          
    15      6.458460  1 C  px                60     -6.458460  2 C  px         
    93      1.178628  3 H  s                112     -1.178628  4 H  s          
   131     -1.178628  5 H  s                150      1.178628  6 H  s          

 Vector   24  Occ=0.000000D+00  E= 4.347171D-02  Symmetry=a1
              MO Center=  5.5D-15, -2.3D-13,  1.7D+00, r^2= 1.2D+01
   Bfn.  Coefficient  Atom+Function         Bfn.  Coefficient  Atom+Function  
  ----- ------------  ---------------      ----- ------------  ---------------
   183     -0.869048  7 F  pz                14      0.825361  1 C  s          
    59      0.825361  2 C  s                 17     -0.803623  1 C  pz         
    62     -0.803623  2 C  pz               225     -0.506983  8 F  s          
    93     -0.441445  3 H  s                112     -0.441445  4 H  s          
   131     -0.441445  5 H  s                150     -0.441445  6 H  s          

 Vector   25  Occ=0.000000D+00  E= 5.963403D-02  Symmetry=a1
              MO Center= -1.4D-13,  7.4D-13,  2.0D+00, r^2= 1.1D+01
   Bfn.  Coefficient  Atom+Function         Bfn.  Coefficient  Atom+Function  
  ----- ------------  ---------------      ----- ------------  ---------------
    16     -1.930162  1 C  py                61      1.930162  2 C  py         
    14      1.912070  1 C  s                 59      1.912070  2 C  s          
    10      1.196855  1 C  s                 55      1.196855  2 C  s          
    93     -1.064981  3 H  s                112     -1.064981  4 H  s          
   131     -1.064981  5 H  s                150     -1.064981  6 H  s          

 Vector   26  Occ=0.000000D+00  E= 9.254936D-02  Symmetry=a1
              MO Center= -6.7D-13,  8.5D-12,  1.6D+00, r^2= 1.3D+01
   Bfn.  Coefficient  Atom+Function         Bfn.  Coefficient  Atom+Function  
  ----- ------------  ---------------      ----- ------------  ---------------
    14      6.282071  1 C  s                 59      6.282071  2 C  s          
    93     -2.319006  3 H  s                112     -2.319006  4 H  s          
   131     -2.319006  5 H  s                150     -2.319006  6 H  s          
    10      2.065154  1 C  s                 55      2.065154  2 C  s          
    94     -1.898021  3 H  s                113     -1.898021  4 H  s          

 Vector   27  Occ=0.000000D+00  E= 9.477006D-02  Symmetry=b2
              MO Center=  9.7D-15, -3.2D-12,  1.5D+00, r^2= 1.3D+01
   Bfn.  Coefficient  Atom+Function         Bfn.  Coefficient  Atom+Function  
  ----- ------------  ---------------      ----- ------------  ---------------
    14      8.569397  1 C  s                 59     -8.569397  2 C  s          
    17     -2.301862  1 C  pz                62      2.301862  2 C  pz         
    16      2.110478  1 C  py                61      2.110478  2 C  py         
    93     -0.494927  3 H  s                112     -0.494927  4 H  s          
   131      0.494927  5 H  s                150      0.494927  6 H  s          

 Vector   28  Occ=0.000000D+00  E= 1.099792D-01  Symmetry=b2
              MO Center=  1.5D-13,  2.4D-12,  2.0D+00, r^2= 1.6D+01
   Bfn.  Coefficient  Atom+Function         Bfn.  Coefficient  Atom+Function  
  ----- ------------  ---------------      ----- ------------  ---------------
    14     22.433668  1 C  s                 59    -22.433668  2 C  s          
    16     10.239551  1 C  py                61     10.239551  2 C  py         
    94      4.023828  3 H  s                113      4.023828  4 H  s          
   132     -4.023828  5 H  s                151     -4.023828  6 H  s          
    10     -1.242151  1 C  s                 55      1.242151  2 C  s          

 Vector   29  Occ=0.000000D+00  E= 1.154803D-01  Symmetry=a1
              MO Center=  2.2D-14,  3.8D-13,  1.1D+00, r^2= 1.5D+01
   Bfn.  Coefficient  Atom+Function         Bfn.  Coefficient  Atom+Function  
  ----- ------------  ---------------      ----- ------------  ---------------
    14      3.818931  1 C  s                 59      3.818931  2 C  s          
    94     -1.775033  3 H  s                113     -1.775033  4 H  s          
   132     -1.775033  5 H  s                151     -1.775033  6 H  s          
    10     -1.493608  1 C  s                 55     -1.493608  2 C  s          
    93      1.048364  3 H  s                112      1.048364  4 H  s          

 Vector   30  Occ=0.000000D+00  E= 1.222769D-01  Symmetry=b1
              MO Center=  6.7D-13,  1.1D-13,  2.1D+00, r^2= 1.5D+01
   Bfn.  Coefficient  Atom+Function         Bfn.  Coefficient  Atom+Function  
  ----- ------------  ---------------      ----- ------------  ---------------
    94      4.525136  3 H  s                113     -4.525136  4 H  s          
   132      4.525136  5 H  s                151     -4.525136  6 H  s          
    15      3.549920  1 C  px                60      3.549920  2 C  px         
    93      1.134264  3 H  s                112     -1.134264  4 H  s          
   131      1.134264  5 H  s                150     -1.134264  6 H  s          

 Vector   31  Occ=0.000000D+00  E= 1.278009D-01  Symmetry=b2
              MO Center=  1.0D-15, -7.4D-12,  2.1D+00, r^2= 1.5D+01
   Bfn.  Coefficient  Atom+Function         Bfn.  Coefficient  Atom+Function  
  ----- ------------  ---------------      ----- ------------  ---------------
    14     40.347668  1 C  s                 59    -40.347668  2 C  s          
    16      8.480508  1 C  py                61      8.480508  2 C  py         
    94     -2.012069  3 H  s                113     -2.012069  4 H  s          
   132      2.012069  5 H  s                151      2.012069  6 H  s          
    10     -1.725275  1 C  s                 55      1.725275  2 C  s          

 Vector   32  Occ=0.000000D+00  E= 1.357113D-01  Symmetry=b1
              MO Center=  8.9D-14,  1.0D-14,  1.8D+00, r^2= 8.0D+00
   Bfn.  Coefficient  Atom+Function         Bfn.  Coefficient  Atom+Function  
  ----- ------------  ---------------      ----- ------------  ---------------
    93      2.983034  3 H  s                112     -2.983034  4 H  s          
   131      2.983034  5 H  s                150     -2.983034  6 H  s          
    11      1.716264  1 C  px                56      1.716264  2 C  px         
    15      1.564220  1 C  px                60      1.564220  2 C  px         
    94      0.727379  3 H  s                113     -0.727379  4 H  s          

 Vector   33  Occ=0.000000D+00  E= 1.467922D-01  Symmetry=a2
              MO Center=  1.1D-12,  6.1D-14,  2.0D+00, r^2= 1.9D+01
   Bfn.  Coefficient  Atom+Function         Bfn.  Coefficient  Atom+Function  
  ----- ------------  ---------------      ----- ------------  ---------------
    15     16.641090  1 C  px                60    -16.641090  2 C  px         
    94     11.951123  3 H  s                113    -11.951123  4 H  s          
   132    -11.951123  5 H  s                151     11.951123  6 H  s          
    93      3.712215  3 H  s                112     -3.712215  4 H  s          
   131     -3.712215  5 H  s                150      3.712215  6 H  s          

 Vector   34  Occ=0.000000D+00  E= 1.519855D-01  Symmetry=a1
              MO Center= -1.7D-14,  3.2D-12, -1.8D+00, r^2= 1.1D+01
   Bfn.  Coefficient  Atom+Function         Bfn.  Coefficient  Atom+Function  
  ----- ------------  ---------------      ----- ------------  ---------------
   180      1.899241  7 F  s                 93      1.699198  3 H  s          
   112      1.699198  4 H  s                131      1.699198  5 H  s          
   150      1.699198  6 H  s                 10     -1.686316  1 C  s          
    55     -1.686316  2 C  s                228     -1.368636  8 F  pz         
    14     -0.961778  1 C  s                 59     -0.961778  2 C  s          

 Vector   35  Occ=0.000000D+00  E= 1.568945D-01  Symmetry=b2
              MO Center= -1.6D-12, -5.3D-12,  1.5D+00, r^2= 1.2D+01
   Bfn.  Coefficient  Atom+Function         Bfn.  Coefficient  Atom+Function  
  ----- ------------  ---------------      ----- ------------  ---------------
    14     25.909607  1 C  s                 59    -25.909607  2 C  s          
    16      4.471567  1 C  py                61      4.471567  2 C  py         
    93     -4.316681  3 H  s                112     -4.316681  4 H  s          
   131      4.316681  5 H  s                150      4.316681  6 H  s          
    12     -3.521110  1 C  py                57     -3.521110  2 C  py         

 Vector   36  Occ=0.000000D+00  E= 1.788192D-01  Symmetry=b1
              MO Center= -4.2D-14, -3.9D-15, -1.1D-01, r^2= 7.5D+00
   Bfn.  Coefficient  Atom+Function         Bfn.  Coefficient  Atom+Function  
  ----- ------------  ---------------      ----- ------------  ---------------
    93      0.851423  3 H  s                112     -0.851423  4 H  s          
   131      0.851423  5 H  s                150     -0.851423  6 H  s          
   181     -0.838359  7 F  px                15      0.590486  1 C  px         
    60      0.590486  2 C  px                11      0.429158  1 C  px         
    56      0.429158  2 C  px               226     -0.353309  8 F  px         

 Vector   37  Occ=0.000000D+00  E= 2.190484D-01  Symmetry=b1
              MO Center=  1.3D-14,  4.0D-15, -1.1D+00, r^2= 8.5D+00
   Bfn.  Coefficient  Atom+Function         Bfn.  Coefficient  Atom+Function  
  ----- ------------  ---------------      ----- ------------  ---------------
   226      1.262344  8 F  px               181     -0.591154  7 F  px         
    93      0.459430  3 H  s                112     -0.459430  4 H  s          
   131      0.459430  5 H  s                150     -0.459430  6 H  s          
   222     -0.371072  8 F  px                11      0.319821  1 C  px         
    56      0.319821  2 C  px                15      0.300419  1 C  px         

 Vector   38  Occ=0.000000D+00  E= 2.362306D-01  Symmetry=b2
              MO Center=  1.5D-13, -3.6D-13, -1.6D+00, r^2= 8.5D+00
   Bfn.  Coefficient  Atom+Function         Bfn.  Coefficient  Atom+Function  
  ----- ------------  ---------------      ----- ------------  ---------------
    14     20.165350  1 C  s                 59    -20.165350  2 C  s          
    16      4.602840  1 C  py                61      4.602840  2 C  py         
    93     -1.581138  3 H  s                112     -1.581138  4 H  s          
   131      1.581138  5 H  s                150      1.581138  6 H  s          
    12     -1.394179  1 C  py                57     -1.394179  2 C  py         

 Vector   39  Occ=0.000000D+00  E= 2.513393D-01  Symmetry=a1
              MO Center=  1.1D-14,  2.2D-13, -1.4D+00, r^2= 8.2D+00
   Bfn.  Coefficient  Atom+Function         Bfn.  Coefficient  Atom+Function  
  ----- ------------  ---------------      ----- ------------  ---------------
   225      3.848041  8 F  s                228      2.432629  8 F  pz         
   180     -2.370793  7 F  s                183      1.515727  7 F  pz         
    10      1.093059  1 C  s                 55      1.093059  2 C  s          
    35     -0.345562  1 C  dzz               80     -0.345562  2 C  dzz        
    16     -0.315612  1 C  py                61      0.315612  2 C  py         

 Vector   40  Occ=0.000000D+00  E= 2.997275D-01  Symmetry=a1
              MO Center= -3.9D-13, -6.4D-13,  1.1D+00, r^2= 8.8D+00
   Bfn.  Coefficient  Atom+Function         Bfn.  Coefficient  Atom+Function  
  ----- ------------  ---------------      ----- ------------  ---------------
    14      6.794104  1 C  s                 59      6.794104  2 C  s          
    93     -4.900304  3 H  s                112     -4.900304  4 H  s          
   131     -4.900304  5 H  s                150     -4.900304  6 H  s          
    10      4.411773  1 C  s                 55      4.411773  2 C  s          
   183     -1.835516  7 F  pz               225     -1.591703  8 F  s          

 Vector   41  Occ=0.000000D+00  E= 3.009323D-01  Symmetry=a2
              MO Center=  6.2D-12,  9.5D-15,  1.9D+00, r^2= 1.3D+01
   Bfn.  Coefficient  Atom+Function         Bfn.  Coefficient  Atom+Function  
  ----- ------------  ---------------      ----- ------------  ---------------
    15     18.486599  1 C  px                60    -18.486599  2 C  px         
    94     10.153796  3 H  s                113    -10.153796  4 H  s          
   132    -10.153796  5 H  s                151     10.153796  6 H  s          
    93      8.595229  3 H  s                112     -8.595229  4 H  s          
   131     -8.595229  5 H  s                150      8.595229  6 H  s          

 Vector   42  Occ=0.000000D+00  E= 3.109857D-01  Symmetry=a1
              MO Center= -2.5D-13,  2.1D-12,  1.6D+00, r^2= 7.9D+00
   Bfn.  Coefficient  Atom+Function         Bfn.  Coefficient  Atom+Function  
  ----- ------------  ---------------      ----- ------------  ---------------
    14      1.923225  1 C  s                 59      1.923225  2 C  s          
   183     -1.518936  7 F  pz                10     -1.496187  1 C  s          
    55     -1.496187  2 C  s                 16      1.192445  1 C  py         
    61     -1.192445  2 C  py               225     -0.943408  8 F  s          
    30     -0.846244  1 C  dxx               75     -0.846244  2 C  dxx        

 Vector   43  Occ=0.000000D+00  E= 3.152849D-01  Symmetry=b2
              MO Center= -3.4D-12,  2.1D-12,  1.7D+00, r^2= 6.8D+00
   Bfn.  Coefficient  Atom+Function         Bfn.  Coefficient  Atom+Function  
  ----- ------------  ---------------      ----- ------------  ---------------
    14     19.571373  1 C  s                 59    -19.571373  2 C  s          
    16      6.990012  1 C  py                61      6.990012  2 C  py         
    10     -1.516686  1 C  s                 55      1.516686  2 C  s          
    94      1.508180  3 H  s                113      1.508180  4 H  s          
   132     -1.508180  5 H  s                151     -1.508180  6 H  s          

 Vector   44  Occ=0.000000D+00  E= 3.293035D-01  Symmetry=b1
              MO Center=  6.9D-13,  1.5D-13,  1.9D+00, r^2= 8.9D+00
   Bfn.  Coefficient  Atom+Function         Bfn.  Coefficient  Atom+Function  
  ----- ------------  ---------------      ----- ------------  ---------------
    93      5.333264  3 H  s                112     -5.333264  4 H  s          
   131      5.333264  5 H  s                150     -5.333264  6 H  s          
    11      3.270388  1 C  px                56      3.270388  2 C  px         
    15      2.538897  1 C  px                60      2.538897  2 C  px         
    31     -1.756379  1 C  dxy               76      1.756379  2 C  dxy        

 Vector   45  Occ=0.000000D+00  E= 3.483754D-01  Symmetry=b1
              MO Center=  5.0D-14,  8.2D-15,  3.8D-01, r^2= 8.6D+00
   Bfn.  Coefficient  Atom+Function         Bfn.  Coefficient  Atom+Function  
  ----- ------------  ---------------      ----- ------------  ---------------
    93      1.572084  3 H  s                112     -1.572084  4 H  s          
   131      1.572084  5 H  s                150     -1.572084  6 H  s          
   181     -1.534312  7 F  px                15      1.211082  1 C  px         
    60      1.211082  2 C  px               226      0.973699  8 F  px         
    94      0.890414  3 H  s                113     -0.890414  4 H  s          

 Vector   46  Occ=0.000000D+00  E= 3.685847D-01  Symmetry=a2
              MO Center= -3.8D-15, -3.8D-15,  1.9D+00, r^2= 4.9D+00
   Bfn.  Coefficient  Atom+Function         Bfn.  Coefficient  Atom+Function  
  ----- ------------  ---------------      ----- ------------  ---------------
   103      0.709957  3 H  pz               122     -0.709957  4 H  pz         
   141     -0.709957  5 H  pz               160      0.709957  6 H  pz         
    15     -0.180879  1 C  px                60      0.180879  2 C  px         
    32      0.166640  1 C  dxz               77     -0.166640  2 C  dxz        

 Vector   47  Occ=0.000000D+00  E= 3.688868D-01  Symmetry=b2
              MO Center= -9.7D-13, -1.0D-11, -1.7D-01, r^2= 9.3D+00
   Bfn.  Coefficient  Atom+Function         Bfn.  Coefficient  Atom+Function  
  ----- ------------  ---------------      ----- ------------  ---------------
    14     31.696971  1 C  s                 59    -31.696971  2 C  s          
    16      4.799927  1 C  py                61      4.799927  2 C  py         
    93     -3.461805  3 H  s                112     -3.461805  4 H  s          
   131      3.461805  5 H  s                150      3.461805  6 H  s          
    12     -2.718251  1 C  py                57     -2.718251  2 C  py         

 Vector   48  Occ=0.000000D+00  E= 3.696278D-01  Symmetry=a1
              MO Center= -2.3D-14,  6.1D-12,  2.3D+00, r^2= 6.5D+00
   Bfn.  Coefficient  Atom+Function         Bfn.  Coefficient  Atom+Function  
  ----- ------------  ---------------      ----- ------------  ---------------
    10      2.641561  1 C  s                 55      2.641561  2 C  s          
   183      1.723110  7 F  pz               225      1.195566  8 F  s          
    93     -0.813002  3 H  s                112     -0.813002  4 H  s          
   131     -0.813002  5 H  s                150     -0.813002  6 H  s          
    35     -0.804354  1 C  dzz               80     -0.804354  2 C  dzz        

 Vector   49  Occ=0.000000D+00  E= 3.944351D-01  Symmetry=b2
              MO Center=  6.5D-13,  4.4D-13,  2.0D+00, r^2= 8.2D+00
   Bfn.  Coefficient  Atom+Function         Bfn.  Coefficient  Atom+Function  
  ----- ------------  ---------------      ----- ------------  ---------------
    14     26.218607  1 C  s                 59    -26.218607  2 C  s          
    93     -6.520996  3 H  s                112     -6.520996  4 H  s          
   131      6.520996  5 H  s                150      6.520996  6 H  s          
    12     -5.712844  1 C  py                57     -5.712844  2 C  py         
    16      4.521288  1 C  py                61      4.521288  2 C  py         

 Vector   50  Occ=0.000000D+00  E= 4.140425D-01  Symmetry=a1
              MO Center=  8.3D-15,  3.5D-13, -9.2D-02, r^2= 9.0D+00
   Bfn.  Coefficient  Atom+Function         Bfn.  Coefficient  Atom+Function  
  ----- ------------  ---------------      ----- ------------  ---------------
   225     -6.719677  8 F  s                180      6.660602  7 F  s          
   228     -3.049676  8 F  pz               183     -2.677706  7 F  pz         
    10      1.475462  1 C  s                 55      1.475462  2 C  s          
    14      1.402303  1 C  s                 59      1.402303  2 C  s          
    93     -0.840102  3 H  s                112     -0.840102  4 H  s          

 Vector   51  Occ=0.000000D+00  E= 4.600818D-01  Symmetry=a1
              MO Center=  1.2D-14, -2.4D-13,  1.3D+00, r^2= 7.8D+00
   Bfn.  Coefficient  Atom+Function         Bfn.  Coefficient  Atom+Function  
  ----- ------------  ---------------      ----- ------------  ---------------
   180      5.975575  7 F  s                225     -5.963420  8 F  s          
    10     -3.438775  1 C  s                 55     -3.438775  2 C  s          
   183     -3.441902  7 F  pz                93      2.825252  3 H  s          
   112      2.825252  4 H  s                131      2.825252  5 H  s          
   150      2.825252  6 H  s                228     -2.365429  8 F  pz         

 Vector   52  Occ=0.000000D+00  E= 4.648886D-01  Symmetry=a1
              MO Center=  3.2D-15,  9.7D-15,  1.8D+00, r^2= 8.8D+00
   Bfn.  Coefficient  Atom+Function         Bfn.  Coefficient  Atom+Function  
  ----- ------------  ---------------      ----- ------------  ---------------
   225      5.201055  8 F  s                180     -4.403343  7 F  s          
   183      3.069452  7 F  pz                14      2.420845  1 C  s          
    59      2.420845  2 C  s                 93      2.188469  3 H  s          
   112      2.188469  4 H  s                131      2.188469  5 H  s          
   150      2.188469  6 H  s                228      2.032344  8 F  pz         

 Vector   53  Occ=0.000000D+00  E= 4.842348D-01  Symmetry=b1
              MO Center= -4.8D-14,  1.2D-13,  2.0D+00, r^2= 7.7D+00
   Bfn.  Coefficient  Atom+Function         Bfn.  Coefficient  Atom+Function  
  ----- ------------  ---------------      ----- ------------  ---------------
    94      2.173489  3 H  s                113     -2.173489  4 H  s          
   132      2.173489  5 H  s                151     -2.173489  6 H  s          
    93     -1.605643  3 H  s                112      1.605643  4 H  s          
   131     -1.605643  5 H  s                150      1.605643  6 H  s          
    11     -1.583249  1 C  px                56     -1.583249  2 C  px         

 Vector   54  Occ=0.000000D+00  E= 4.845452D-01  Symmetry=b2
              MO Center= -4.6D-13,  2.6D-13,  1.8D+00, r^2= 9.0D+00
   Bfn.  Coefficient  Atom+Function         Bfn.  Coefficient  Atom+Function  
  ----- ------------  ---------------      ----- ------------  ---------------
    14      8.859659  1 C  s                 59     -8.859659  2 C  s          
    35     -2.433989  1 C  dzz               80      2.433989  2 C  dzz        
    30     -2.311210  1 C  dxx               75      2.311210  2 C  dxx        
    94     -1.784530  3 H  s                113     -1.784530  4 H  s          
   132      1.784530  5 H  s                151      1.784530  6 H  s          

 Vector   55  Occ=0.000000D+00  E= 5.121224D-01  Symmetry=b2
              MO Center= -1.2D-14, -2.2D-13,  1.8D+00, r^2= 6.1D+00
   Bfn.  Coefficient  Atom+Function         Bfn.  Coefficient  Atom+Function  
  ----- ------------  ---------------      ----- ------------  ---------------
    14      4.967663  1 C  s                 59     -4.967663  2 C  s          
    34     -1.793671  1 C  dyz               79     -1.793671  2 C  dyz        
    13     -1.522299  1 C  pz                58      1.522299  2 C  pz         
    17     -1.333656  1 C  pz                62      1.333656  2 C  pz         
    16      0.966181  1 C  py                61      0.966181  2 C  py         


 center of mass
 --------------
 x =  -0.00000000 y =   0.00000000 z =  -0.32094106

 moments of inertia (a.u.)
 ------------------
         912.300223245721           0.000000000000           0.000000000000
           0.000000000000         864.413416133286           0.000000000000
           0.000000000000           0.000000000000          72.532137570124

     Multipole analysis of the density
     ---------------------------------

     L   x y z        total         alpha         beta         nuclear
     -   - - -        -----         -----         ----         -------
     0   0 0 0     -0.000000    -17.000000    -17.000000     34.000000

     1   1 0 0      0.000000      0.000000      0.000000     -0.000000
     1   0 1 0     -0.000000     -0.000000     -0.000000      0.000000
     1   0 0 1      0.386434      0.193217      0.193217     -0.000000

     2   2 0 0    -16.501918    -14.364453    -14.364453     12.226989
     2   1 1 0     -0.000000      0.000000      0.000000     -0.000000
     2   1 0 1      0.000000      0.000000      0.000000     -0.000000
     2   0 2 0    -16.345869    -28.620436    -28.620436     40.895003
     2   0 1 1      0.000000      0.000000      0.000000     -0.000000
     2   0 0 2    -18.158367   -231.037046   -231.037046    443.915724


------------------------------------------------------------
EAF file 0: "./C2H4-F2.aoints.0" size=1274544128 bytes
------------------------------------------------------------
               write      read    awrite     aread      wait
               -----      ----    ------     -----      ----
     calls:     2431        11         0     26730     26730
   data(b): 1.27e+09  5.77e+06  0.00e+00  1.40e+10
   time(s): 0.00e+00  0.00e+00  0.00e+00  0.00e+00  0.00e+00
rate(mb/s): 0.00e+00  0.00e+00
------------------------------------------------------------


 Parallel integral file used    2431 records with       0 large values


 Task  times  cpu:      102.8s     wall:      114.7s


                                NWChem Input Module
                                -------------------


 Summary of allocated global arrays
-----------------------------------
  No active global arrays



                         GA Statistics for process    0
                         ------------------------------

       create   destroy   get      put      acc     scatter   gather  read&inc
calls:  325      325     9.38e+04 2.67e+04 3.53e+04    0        0     2760     
number of processes/call 1.00e+00 1.00e+00 1.00e+00 0.00e+00 0.00e+00
bytes total:             6.69e+08 1.80e+08 3.78e+08 0.00e+00 0.00e+00 2.21e+04
bytes remote:            0.00e+00 0.00e+00 0.00e+00 0.00e+00 0.00e+00 0.00e+00
Max memory consumed for GA by this process: 20447232 bytes

MA_summarize_allocated_blocks: starting scan ...
MA_summarize_allocated_blocks: scan completed: 0 heap blocks, 0 stack blocks
MA usage statistics:

	allocation statistics:
					      heap	     stack
					      ----	     -----
	current number of blocks	         0	         0
	maximum number of blocks	        23	        55
	current total bytes		         0	         0
	maximum total bytes		   3094464	  32071400
	maximum total K-bytes		      3095	     32072
	maximum total M-bytes		         4	        33


                                     CITATION
                                     --------
                Please cite the following reference when publishing
                           results obtained with NWChem:

                 M. Valiev, E.J. Bylaska, N. Govind, K. Kowalski,
              T.P. Straatsma, H.J.J. van Dam, D. Wang, J. Nieplocha,
                        E. Apra, T.L. Windus, W.A. de Jong
                 "NWChem: a comprehensive and scalable open-source
                  solution for large scale molecular simulations"
                      Comput. Phys. Commun. 181, 1477 (2010)
                           doi:10.1016/j.cpc.2010.04.018

                                      AUTHORS
                                      -------
          E. Apra, E. J. Bylaska, W. A. de Jong, N. Govind, K. Kowalski,
       T. P. Straatsma, M. Valiev, H. J. J. van Dam, D. Wang, T. L. Windus,
        J. Hammond, J. Autschbach, K. Bhaskaran-Nair, J. Brabec, K. Lopata,
       S. A. Fischer, S. Krishnamoorthy, W. Ma, M. Klemm, O. Villa, Y. Chen,
    V. Anisimov, F. Aquino, S. Hirata, M. T. Hackler, T. Risthaus, M. Malagoli,
       A. Marenich, A. Otero-de-la-Roza, J. Mullin, P. Nichols, R. Peverati,
     J. Pittner, Y. Zhao, P.-D. Fan, A. Fonari, M. Williamson, R. J. Harrison,
       J. R. Rehr, M. Dupuis, D. Silverstein, D. M. A. Smith, J. Nieplocha,
        V. Tipparaju, M. Krishnan, B. E. Van Kuiken, A. Vazquez-Mayagoitia,
        L. Jensen, M. Swart, Q. Wu, T. Van Voorhis, A. A. Auer, M. Nooijen,
      L. D. Crosby, E. Brown, G. Cisneros, G. I. Fann, H. Fruchtl, J. Garza,
        K. Hirao, R. A. Kendall, J. A. Nichols, K. Tsemekhman, K. Wolinski,
     J. Anchell, D. E. Bernholdt, P. Borowski, T. Clark, D. Clerc, H. Dachsel,
   M. J. O. Deegan, K. Dyall, D. Elwood, E. Glendening, M. Gutowski, A. C. Hess,
         J. Jaffe, B. G. Johnson, J. Ju, R. Kobayashi, R. Kutteh, Z. Lin,
   R. Littlefield, X. Long, B. Meng, T. Nakajima, S. Niu, L. Pollack, M. Rosing,
   K. Glaesemann, G. Sandrone, M. Stave, H. Taylor, G. Thomas, J. H. van Lenthe,
                               A. T. Wong, Z. Zhang.

 Total times  cpu:      102.9s     wall:      115.0s
