[1537885881.384303] [r8n3:30695:0]         sys.c:744  MXM  WARN  Conflicting CPU frequencies detected, using: 2499.99
[1537885881.390998] [r8n3:30695:0]         mxm.c:196  MXM  WARN  The 'ulimit -s' on the system is set to 'unlimited'. This may have negative performance implications. Please set the stack size to the default value (10240) 
[1537885881.393294] [r8n3:30695:0]         mxm.c:196  MXM  WARN  The 'ulimit -s' on the system is set to 'unlimited'. This may have negative performance implications. Please set the stack size to the default value (10240) 
 argument  1 = /storage/home/bikashp/nwchem_run/rabeet/hb6/nwrevtpss/C2H4-C2H4.nw
                                         
                                         


              Northwest Computational Chemistry Package (NWChem) 6.6
              ------------------------------------------------------


                    Environmental Molecular Sciences Laboratory
                       Pacific Northwest National Laboratory
                                Richland, WA 99352

                              Copyright (c) 1994-2015
                       Pacific Northwest National Laboratory
                            Battelle Memorial Institute

             NWChem is an open-source computational chemistry package
                        distributed under the terms of the
                      Educational Community License (ECL) 2.0
             A copy of the license is included with this distribution
                              in the LICENSE.TXT file

                                  ACKNOWLEDGMENT
                                  --------------

            This software and its documentation were developed at the
            EMSL at Pacific Northwest National Laboratory, a multiprogram
            national laboratory, operated for the U.S. Department of Energy
            by Battelle under Contract Number DE-AC05-76RL01830. Support
            for this work was provided by the Department of Energy Office
            of Biological and Environmental Research, Office of Basic
            Energy Sciences, and the Office of Advanced Scientific Computing.


           Job information
           ---------------

    hostname        = r8n3.niserhpc.org
    program         = /home/bikashp/Code/nwchem-6.6_revtpss/bin/LINUX64/nwchem
    date            = Tue Sep 25 20:01:21 2018

    compiled        = Tue_Sep_25_17:05:19_2018
    source          = /home/bikashp/Code/nwchem-6.6_revtpss
    nwchem branch   = 6.6
    nwchem revision = 27746
    ga revision     = 10594
    input           = /storage/home/bikashp/nwchem_run/rabeet/hb6/nwrevtpss/C2H4-C2H4.nw
    prefix          = C2H4-C2H4.
    data base       = ./C2H4-C2H4.db
    status          = startup
    nproc           =        1
    time left       =     -1s



           Memory information
           ------------------

    heap     =   13107196 doubles =    100.0 Mbytes
    stack    =   13107201 doubles =    100.0 Mbytes
    global   =   26214400 doubles =    200.0 Mbytes (distinct from heap & stack)
    total    =   52428797 doubles =    400.0 Mbytes
    verify   = yes
    hardfail = no 


           Directory information
           ---------------------

  0 permanent = .
  0 scratch   = .




                                NWChem Input Module
                                -------------------



 Scaling coordinates for geometry "geometry" by  1.889725989
 (inverse scale =  0.529177249)

 D2D symmetry detected

          ------
          auto-z
          ------
  autoz: The atoms group into disjoint clusters
 cluster   1:    1    2    3    4    5    6
 cluster   2:    7    8    9   10   11   12
 Connecting clusters   1   2 via atoms    3   10 r = 2.56
  autoz: regenerating connections with new bonds


                             Geometry "geometry" -> ""
                             -------------------------

 Output coordinates in angstroms (scale by  1.889725989 to convert to a.u.)

  No.       Tag          Charge          X              Y              Z
 ---- ---------------- ---------- -------------- -------------- --------------
    1 C                    6.0000     0.47261000     0.47261000    -1.85777000
    2 C                    6.0000    -0.47261000    -0.47261000    -1.85777000
    3 H                    1.0000     0.87437500     0.87437500    -0.93377000
    4 H                    1.0000     0.87163500     0.87163500    -2.78382000
    5 H                    1.0000    -0.87163500    -0.87163500    -2.78382000
    6 H                    1.0000    -0.87437500    -0.87437500    -0.93377000
    7 C                    6.0000    -0.47261000     0.47261000     1.85777000
    8 C                    6.0000     0.47261000    -0.47261000     1.85777000
    9 H                    1.0000    -0.87163500     0.87163500     2.78382000
   10 H                    1.0000    -0.87437500     0.87437500     0.93377000
   11 H                    1.0000     0.87437500    -0.87437500     0.93377000
   12 H                    1.0000     0.87163500    -0.87163500     2.78382000

      Atomic Mass 
      ----------- 

      C                 12.000000
      H                  1.007825


 Effective nuclear repulsion energy (a.u.)     102.0765998000

            Nuclear Dipole moment (a.u.) 
            ----------------------------
        X                 Y               Z
 ---------------- ---------------- ----------------
     0.0000000000    -0.0000000000    -0.0000000000

      Symmetry information
      --------------------

 Group name             D2d       
 Group number             32
 Group order               8
 No. of unique centers     3

      Symmetry unique atoms

     1    3    4



                                Z-matrix (autoz)
                                -------- 

 Units are Angstrom for bonds and degrees for angles

      Type          Name      I     J     K     L     M      Value
      ----------- --------  ----- ----- ----- ----- ----- ----------
    1 Stretch                  1     2                       1.33674
    2 Stretch                  1     3                       1.08471
    3 Stretch                  1     4                       1.08444
    4 Stretch                  2     5                       1.08444
    5 Stretch                  2     6                       1.08471
    6 Stretch                  3    10                       2.55848
    7 Stretch                  7     8                       1.33674
    8 Stretch                  7     9                       1.08444
    9 Stretch                  7    10                       1.08471
   10 Stretch                  8    11                       1.08471
   11 Stretch                  8    12                       1.08444
   12 Bend                     1     2     5               121.35685
   13 Bend                     1     2     6               121.58798
   14 Bend                     1     3    10               111.63092
   15 Bend                     2     1     3               121.58798
   16 Bend                     2     1     4               121.35685
   17 Bend                     3    10     7               111.63092
   18 Bend                     3     1     4               117.05516
   19 Bend                     5     2     6               117.05516
   20 Bend                     7     8    11               121.58798
   21 Bend                     7     8    12               121.35685
   22 Bend                     8     7     9               121.35685
   23 Bend                     8     7    10               121.58798
   24 Bend                     9     7    10               117.05516
   25 Bend                    11     8    12               117.05516
   26 Torsion                  1     3    10     7         133.03771
   27 Torsion                  2     1     3    10         -31.32753
   28 Torsion                  3    10     7     8         -31.32753
   29 Torsion                  3    10     7     9         148.67247
   30 Torsion                  3     1     2     5         180.00000
   31 Torsion                  3     1     2     6           0.00000
   32 Torsion                  4     1     2     5           0.00000
   33 Torsion                  4     1     2     6        -180.00000
   34 Torsion                  4     1     3    10         148.67247
   35 Torsion                  9     7     8    11        -180.00000
   36 Torsion                  9     7     8    12           0.00000
   37 Torsion                 10     7     8    11           0.00000
   38 Torsion                 10     7     8    12         180.00000


            XYZ format geometry
            -------------------
    12
 geometry
 C                     0.47261000     0.47261000    -1.85777000
 C                    -0.47261000    -0.47261000    -1.85777000
 H                     0.87437500     0.87437500    -0.93377000
 H                     0.87163500     0.87163500    -2.78382000
 H                    -0.87163500    -0.87163500    -2.78382000
 H                    -0.87437500    -0.87437500    -0.93377000
 C                    -0.47261000     0.47261000     1.85777000
 C                     0.47261000    -0.47261000     1.85777000
 H                    -0.87163500     0.87163500     2.78382000
 H                    -0.87437500     0.87437500     0.93377000
 H                     0.87437500    -0.87437500     0.93377000
 H                     0.87163500    -0.87163500     2.78382000

 ==============================================================================
                                internuclear distances
 ------------------------------------------------------------------------------
       center one      |      center two      | atomic units |  angstroms
 ------------------------------------------------------------------------------
    2 C                |   1 C                |     2.52608  |     1.33674
    3 H                |   1 C                |     2.04981  |     1.08471
    4 H                |   1 C                |     2.04929  |     1.08444
    5 H                |   2 C                |     2.04929  |     1.08444
    6 H                |   2 C                |     2.04981  |     1.08471
    8 C                |   7 C                |     2.52608  |     1.33674
    9 H                |   7 C                |     2.04929  |     1.08444
   10 H                |   7 C                |     2.04981  |     1.08471
   11 H                |   8 C                |     2.04981  |     1.08471
   12 H                |   8 C                |     2.04929  |     1.08444
 ------------------------------------------------------------------------------
                         number of included internuclear distances:         10
 ==============================================================================



 ==============================================================================
                                 internuclear angles
 ------------------------------------------------------------------------------
        center 1       |       center 2       |       center 3       |  degrees
 ------------------------------------------------------------------------------
    2 C                |   1 C                |   3 H                |   121.59
    2 C                |   1 C                |   4 H                |   121.36
    3 H                |   1 C                |   4 H                |   117.06
    1 C                |   2 C                |   5 H                |   121.36
    1 C                |   2 C                |   6 H                |   121.59
    5 H                |   2 C                |   6 H                |   117.06
    8 C                |   7 C                |   9 H                |   121.36
    8 C                |   7 C                |  10 H                |   121.59
    9 H                |   7 C                |  10 H                |   117.06
    7 C                |   8 C                |  11 H                |   121.59
    7 C                |   8 C                |  12 H                |   121.36
   11 H                |   8 C                |  12 H                |   117.06
 ------------------------------------------------------------------------------
                            number of included internuclear angles:         12
 ==============================================================================





 Summary of "ao basis" -> "" (cartesian)
 ------------------------------------------------------------------------------
       Tag                 Description            Shells   Functions and Types
 ---------------- ------------------------------  ------  ---------------------
 *                     6-311++G(3df,3pd)              on all atoms 



                                 NWChem DFT Module
                                 -----------------


                      Basis "ao basis" -> "ao basis" (cartesian)
                      -----
  C (Carbon)
  ----------
            Exponent  Coefficients 
       -------------- ---------------------------------------------------------
  1 S  4.56324000E+03  0.001967
  1 S  6.82024000E+02  0.015231
  1 S  1.54973000E+02  0.076127
  1 S  4.44553000E+01  0.260801
  1 S  1.30290000E+01  0.616462
  1 S  1.82773000E+00  0.221006

  2 S  2.09642000E+01  0.114660
  2 S  4.80331000E+00  0.919999
  2 S  1.45933000E+00 -0.003031

  3 P  2.09642000E+01  0.040249
  3 P  4.80331000E+00  0.237594
  3 P  1.45933000E+00  0.815854

  4 S  4.83456000E-01  1.000000

  5 P  4.83456000E-01  1.000000

  6 S  1.45585000E-01  1.000000

  7 P  1.45585000E-01  1.000000

  8 S  4.38000000E-02  1.000000

  9 P  4.38000000E-02  1.000000

 10 D  2.50400000E+00  1.000000

 11 D  6.26000000E-01  1.000000

 12 D  1.56500000E-01  1.000000

 13 F  8.00000000E-01  1.000000

  H (Hydrogen)
  ------------
            Exponent  Coefficients 
       -------------- ---------------------------------------------------------
  1 S  3.38650000E+01  0.025494
  1 S  5.09479000E+00  0.190373
  1 S  1.15879000E+00  0.852161

  2 S  3.25840000E-01  1.000000

  3 S  1.02741000E-01  1.000000

  4 S  3.60000000E-02  1.000000

  5 P  3.00000000E+00  1.000000

  6 P  7.50000000E-01  1.000000

  7 P  1.87500000E-01  1.000000

  8 D  1.00000000E+00  1.000000



 Summary of "ao basis" -> "ao basis" (cartesian)
 ------------------------------------------------------------------------------
       Tag                 Description            Shells   Functions and Types
 ---------------- ------------------------------  ------  ---------------------
 C                     6-311++G(3df,3pd)            13       45   5s4p3d1f
 H                     6-311++G(3df,3pd)             8       19   4s3p1d




 Summary of "ao basis" -> "ao basis" (cartesian)
 ------------------------------------------------------------------------------
       Tag                 Description            Shells   Functions and Types
 ---------------- ------------------------------  ------  ---------------------
 C                     6-311++G(3df,3pd)            13       45   5s4p3d1f
 H                     6-311++G(3df,3pd)             8       19   4s3p1d


      Symmetry analysis of basis
      --------------------------

        a1         59
        a2         24
        b1         24
        b2         59
        e         166

  Caching 1-el integrals 

            General Information
            -------------------
          SCF calculation type: DFT
          Wavefunction type:  closed shell.
          No. of atoms     :    12
          No. of electrons :    32
           Alpha electrons :    16
            Beta electrons :    16
          Charge           :     0
          Spin multiplicity:     1
          Use of symmetry is: on ; symmetry adaption is: on 
          Maximum number of iterations: ***
          AO basis - number of functions:   332
                     number of shells:   116
          Convergence on energy requested: 1.00D-06
          Convergence on density requested: 1.00D-05
          Convergence on gradient requested: 5.00D-04

              XC Information
              --------------
                  TPSS metaGGA Exchange Functional  1.000          
             TPSS03 metaGGA Correlation Functional  1.000          

             Grid Information
             ----------------
          Grid used for XC integration:  medium    
          Radial quadrature: Mura-Knowles        
          Angular quadrature: Lebedev. 
          Tag              B.-S. Rad. Rad. Pts. Rad. Cut. Ang. Pts.
          ---              ---------- --------- --------- ---------
          C                   0.70       49          16.0       434
          H                   0.35       45          17.0       434
          Grid pruning is: on 
          Number of quadrature shells:   139
          Spatial weights used:  Erf1

          Convergence Information
          -----------------------
          Convergence aids based upon iterative change in 
          total energy or number of iterations. 
          Levelshifting, if invoked, occurs when the 
          HOMO/LUMO gap drops below (HL_TOL): 1.00D-02
          DIIS, if invoked, will attempt to extrapolate 
          using up to (NFOCK): 10 stored Fock matrices.

                    Damping( 0%)  Levelshifting(0.5)       DIIS
                  --------------- ------------------- ---------------
          dE  on:    start            ASAP                start   
          dE off:    2 iters        *** iters           *** iters 


      Screening Tolerance Information
      -------------------------------
          Density screening/tol_rho: 1.00D-10
          AO Gaussian exp screening on grid/accAOfunc:  14
          CD Gaussian exp screening on grid/accCDfunc:  20
          XC Gaussian exp screening on grid/accXCfunc:  20
          Schwarz screening/accCoul: 1.00D-08


      Superposition of Atomic Density Guess
      -------------------------------------

 Sum of atomic energies:        -154.67501682

      Non-variational initial energy
      ------------------------------

 Total energy =    -156.927587
 1-e energy   =    -406.660378
 2-e energy   =     147.656191
 HOMO         =      -0.345957
 LUMO         =      -0.016694


      Symmetry analysis of molecular orbitals - initial
      -------------------------------------------------

  Numbering of irreducible representations: 

     1 a1          2 a2          3 b1          4 b2          5 e       

  Orbital symmetries:

     1 a1          2 b2          3 e           4 e           5 a1      
     6 b2          7 e           8 e           9 a1         10 b2      
    11 a1         12 b2         13 e          14 e          15 e       
    16 e          17 b1         18 a2         19 a1         20 b2      
    21 e          22 e          23 a1         24 e          25 e       
    26 b2      

   Time after variat. SCF:      5.4
   Time prior to 1st pass:      5.4

 Integral file          = ./C2H4-C2H4.aoints.0
 Record size in doubles =    65536    No. of integs per rec  =    32766
 Max. records in memory =        0    Max. records in file   = ********
 No. of bits per label  =       16    No. of bits per value  =       64


 #quartets = 2.783D+06 #integrals = 1.487D+08 #direct =  0.0% #cached =100.0%


 Grid_pts file          = ./C2H4-C2H4.gridpts.0
 Record size in doubles =  12289        No. of grid_pts per rec  =   3070
 Max. records in memory =     23        Max. recs in file   = 995238190


           Memory utilization after 1st SCF pass: 
           Heap Space remaining (MW):       12.76            12764236
          Stack Space remaining (MW):       13.11            13105244

   convergence    iter        energy       DeltaE   RMS-Dens  Diis-err    time
 ---------------- ----- ----------------- --------- --------- ---------  ------
 d= 0,ls=0.0,diis     1   -157.1761539809 -2.59D+02  1.92D-03  4.86D-01    39.8
 d= 0,ls=0.0,diis     2   -157.2132499298 -3.71D-02  6.05D-04  3.26D-02    50.0
 d= 0,ls=0.0,diis     3   -157.2147607452 -1.51D-03  2.40D-04  2.38D-02    60.2
 d= 0,ls=0.0,diis     4   -157.2174491042 -2.69D-03  4.76D-05  4.40D-04    70.3
 d= 0,ls=0.0,diis     5   -157.2175568028 -1.08D-04  6.98D-06  4.18D-06    80.3
  Resetting Diis
 d= 0,ls=0.0,diis     6   -157.2175551650  1.64D-06  1.05D-06  2.74D-08    90.1
 d= 0,ls=0.0,diis     7   -157.2175549431  2.22D-07  3.99D-07  1.00D-08   100.2


         Total DFT energy =     -157.217554943135
      One electron energy =     -411.179010019763
           Coulomb energy =      176.476749371182
          Exchange energy =      -23.560807542151
       Correlation energy =       -1.031086552360
 Nuclear repulsion energy =      102.076599799956

 Numeric. integr. density =       32.000014760406

     Total iterative time =     94.8s



                  Occupations of the irreducible representations
                  ----------------------------------------------

                     irrep           alpha         beta
                     --------     --------     --------
                     a1                4.0          4.0
                     a2                0.0          0.0
                     b1                0.0          0.0
                     b2                4.0          4.0
                     e                 8.0          8.0


                       DFT Final Molecular Orbital Analysis
                       ------------------------------------

 Vector    4  Occ=2.000000D+00  E=-1.001538D+01  Symmetry=e
              MO Center=  1.8D-16,  1.7D-17, -1.9D+00, r^2= 4.8D-01
   Bfn.  Coefficient  Atom+Function         Bfn.  Coefficient  Atom+Function  
  ----- ------------  ---------------      ----- ------------  ---------------
     1      0.398652   1 C  s                46     -0.398652   2 C  s         
     2      0.328804   1 C  s                47     -0.328804   2 C  s         

 Vector    5  Occ=2.000000D+00  E=-7.143111D-01  Symmetry=a1
              MO Center=  5.4D-18, -4.9D-17, -6.1D-16, r^2= 4.5D+00
   Bfn.  Coefficient  Atom+Function         Bfn.  Coefficient  Atom+Function  
  ----- ------------  ---------------      ----- ------------  ---------------
     6      0.253267   1 C  s                51      0.253267   2 C  s         
   172      0.253267   7 C  s               217      0.253267   8 C  s         
    10      0.179014   1 C  s                55      0.179014   2 C  s         
   176      0.179014   7 C  s               221      0.179014   8 C  s         

 Vector    6  Occ=2.000000D+00  E=-7.097060D-01  Symmetry=b2
              MO Center=  4.9D-16, -5.1D-17,  2.7D-15, r^2= 4.6D+00
   Bfn.  Coefficient  Atom+Function         Bfn.  Coefficient  Atom+Function  
  ----- ------------  ---------------      ----- ------------  ---------------
     6      0.255546   1 C  s                51      0.255546   2 C  s         
   172     -0.255546   7 C  s               217     -0.255546   8 C  s         
    10      0.164861   1 C  s                55      0.164861   2 C  s         
   176     -0.164861   7 C  s               221     -0.164861   8 C  s         

 Vector    7  Occ=2.000000D+00  E=-5.435345D-01  Symmetry=e
              MO Center= -3.2D-15, -4.9D-15, -5.5D-01, r^2= 5.2D+00
   Bfn.  Coefficient  Atom+Function         Bfn.  Coefficient  Atom+Function  
  ----- ------------  ---------------      ----- ------------  ---------------
     6      0.234162   1 C  s                51     -0.234162   2 C  s         
   172      0.172177   7 C  s               217     -0.172177   8 C  s         

 Vector    8  Occ=2.000000D+00  E=-5.435345D-01  Symmetry=e
              MO Center= -4.1D-16, -2.7D-15,  5.5D-01, r^2= 5.2D+00
   Bfn.  Coefficient  Atom+Function         Bfn.  Coefficient  Atom+Function  
  ----- ------------  ---------------      ----- ------------  ---------------
   172      0.234162   7 C  s               217     -0.234162   8 C  s         
     6     -0.172177   1 C  s                51      0.172177   2 C  s         

 Vector    9  Occ=2.000000D+00  E=-4.452759D-01  Symmetry=a1
              MO Center=  2.2D-17,  5.0D-16, -7.8D-16, r^2= 5.2D+00
   Bfn.  Coefficient  Atom+Function         Bfn.  Coefficient  Atom+Function  
  ----- ------------  ---------------      ----- ------------  ---------------
     9      0.129718   1 C  pz               54      0.129718   2 C  pz        
   175     -0.129718   7 C  pz              220     -0.129718   8 C  pz        

 Vector   10  Occ=2.000000D+00  E=-4.259608D-01  Symmetry=b2
              MO Center= -1.5D-15, -1.5D-15, -1.1D-15, r^2= 5.6D+00
   Bfn.  Coefficient  Atom+Function         Bfn.  Coefficient  Atom+Function  
  ----- ------------  ---------------      ----- ------------  ---------------
     9      0.137449   1 C  pz               54      0.137449   2 C  pz        
   175      0.137449   7 C  pz              220      0.137449   8 C  pz        

 Vector   11  Occ=2.000000D+00  E=-3.828572D-01  Symmetry=a1
              MO Center= -7.9D-16,  2.9D-15, -1.2D-12, r^2= 5.3D+00
   Bfn.  Coefficient  Atom+Function         Bfn.  Coefficient  Atom+Function  
  ----- ------------  ---------------      ----- ------------  ---------------
     7      0.118359   1 C  px                8      0.118359   1 C  py        
    52     -0.118359   2 C  px               53     -0.118359   2 C  py        
   173     -0.118359   7 C  px              174      0.118359   7 C  py        
   218      0.118359   8 C  px              219     -0.118359   8 C  py        

 Vector   12  Occ=2.000000D+00  E=-3.805910D-01  Symmetry=b2
              MO Center= -7.5D-16,  2.5D-15,  1.2D-12, r^2= 5.0D+00
   Bfn.  Coefficient  Atom+Function         Bfn.  Coefficient  Atom+Function  
  ----- ------------  ---------------      ----- ------------  ---------------
     7      0.118059   1 C  px                8      0.118059   1 C  py        
    52     -0.118059   2 C  px               53     -0.118059   2 C  py        
   173      0.118059   7 C  px              174     -0.118059   7 C  py        
   218     -0.118059   8 C  px              219      0.118059   8 C  py        

 Vector   13  Occ=2.000000D+00  E=-3.289799D-01  Symmetry=e
              MO Center=  1.4D-15, -1.1D-15,  1.8D+00, r^2= 2.4D+00
   Bfn.  Coefficient  Atom+Function         Bfn.  Coefficient  Atom+Function  
  ----- ------------  ---------------      ----- ------------  ---------------
   258      0.192699   9 H  s               315     -0.192699  12 H  s         
   277     -0.186888  10 H  s               296      0.186888  11 H  s         
   175      0.176886   7 C  pz              220     -0.176886   8 C  pz        

 Vector   14  Occ=2.000000D+00  E=-3.289799D-01  Symmetry=e
              MO Center=  1.0D-15,  1.2D-15, -1.8D+00, r^2= 2.4D+00
   Bfn.  Coefficient  Atom+Function         Bfn.  Coefficient  Atom+Function  
  ----- ------------  ---------------      ----- ------------  ---------------
   111     -0.192699   4 H  s               130      0.192699   5 H  s         
    92      0.186888   3 H  s               149     -0.186888   6 H  s         
     9      0.176886   1 C  pz               54     -0.176886   2 C  pz        

 Vector   15  Occ=2.000000D+00  E=-2.505175D-01  Symmetry=e
              MO Center=  3.4D-15, -4.4D-16,  1.4D+00, r^2= 3.1D+00
   Bfn.  Coefficient  Atom+Function         Bfn.  Coefficient  Atom+Function  
  ----- ------------  ---------------      ----- ------------  ---------------
   174      0.175466   7 C  py              219      0.175466   8 C  py        
   173      0.173644   7 C  px              218      0.173644   8 C  px        
   177      0.166224   7 C  px              222      0.166224   8 C  px        
    10     -0.156813   1 C  s                55      0.156813   2 C  s         

 Vector   16  Occ=2.000000D+00  E=-2.505175D-01  Symmetry=e
              MO Center= -8.6D-15, -1.2D-14, -1.4D+00, r^2= 3.1D+00
   Bfn.  Coefficient  Atom+Function         Bfn.  Coefficient  Atom+Function  
  ----- ------------  ---------------      ----- ------------  ---------------
     7      0.175466   1 C  px               52      0.175466   2 C  px        
     8     -0.173644   1 C  py               53     -0.173644   2 C  py        
    12     -0.166224   1 C  py               57     -0.166224   2 C  py        
   176      0.156813   7 C  s               221     -0.156813   8 C  s         

 Vector   17  Occ=0.000000D+00  E=-3.911778D-02  Symmetry=b1
              MO Center=  9.4D-16,  1.5D-14,  1.2D-16, r^2= 6.6D+00
   Bfn.  Coefficient  Atom+Function         Bfn.  Coefficient  Atom+Function  
  ----- ------------  ---------------      ----- ------------  ---------------
    15      0.260062   1 C  px               16     -0.260062   1 C  py        
    60     -0.260062   2 C  px               61      0.260062   2 C  py        
   181     -0.260062   7 C  px              182     -0.260062   7 C  py        
   226      0.260062   8 C  px              227      0.260062   8 C  py        
    11      0.167715   1 C  px               12     -0.167715   1 C  py        

 Vector   18  Occ=0.000000D+00  E=-2.791834D-02  Symmetry=a2
              MO Center=  1.3D-15,  7.5D-16,  4.9D-16, r^2= 6.5D+00
   Bfn.  Coefficient  Atom+Function         Bfn.  Coefficient  Atom+Function  
  ----- ------------  ---------------      ----- ------------  ---------------
    15      0.264602   1 C  px               16     -0.264602   1 C  py        
    60     -0.264602   2 C  px               61      0.264602   2 C  py        
   181      0.264602   7 C  px              182      0.264602   7 C  py        
   226     -0.264602   8 C  px              227     -0.264602   8 C  py        
    11      0.185693   1 C  px               12     -0.185693   1 C  py        

 Vector   19  Occ=0.000000D+00  E=-1.617053D-02  Symmetry=a1
              MO Center= -6.2D-13,  5.6D-13, -3.3D-13, r^2= 2.0D+01
   Bfn.  Coefficient  Atom+Function         Bfn.  Coefficient  Atom+Function  
  ----- ------------  ---------------      ----- ------------  ---------------
    14      1.467932   1 C  s                59      1.467932   2 C  s         
   180      1.467932   7 C  s               225      1.467932   8 C  s         
   113     -0.955422   4 H  s               132     -0.955422   5 H  s         
   260     -0.955422   9 H  s               317     -0.955422  12 H  s         
    94     -0.761738   3 H  s               151     -0.761738   6 H  s         

 Vector   20  Occ=0.000000D+00  E=-5.584089D-03  Symmetry=b2
              MO Center=  1.4D-15,  7.4D-15,  2.9D-13, r^2= 2.7D+01
   Bfn.  Coefficient  Atom+Function         Bfn.  Coefficient  Atom+Function  
  ----- ------------  ---------------      ----- ------------  ---------------
    14      2.195243   1 C  s                59      2.195243   2 C  s         
   180     -2.195243   7 C  s               225     -2.195243   8 C  s         
   113     -2.075908   4 H  s               132     -2.075908   5 H  s         
   260      2.075908   9 H  s               317      2.075908  12 H  s         
    94     -0.820495   3 H  s               151     -0.820495   6 H  s         

 Vector   21  Occ=0.000000D+00  E= 3.911665D-03  Symmetry=e
              MO Center= -3.8D-13,  1.2D-12,  1.6D+00, r^2= 1.8D+01
   Bfn.  Coefficient  Atom+Function         Bfn.  Coefficient  Atom+Function  
  ----- ------------  ---------------      ----- ------------  ---------------
   180      4.353752   7 C  s               225     -4.353752   8 C  s         
   279     -1.987294  10 H  s               298      1.987294  11 H  s         
   260     -1.807920   9 H  s               317      1.807920  12 H  s         
    14     -1.273515   1 C  s                59      1.273515   2 C  s         
    94      0.581303   3 H  s               151     -0.581303   6 H  s         

 Vector   22  Occ=0.000000D+00  E= 3.911665D-03  Symmetry=e
              MO Center= -9.4D-14, -1.6D-13, -1.6D+00, r^2= 1.8D+01
   Bfn.  Coefficient  Atom+Function         Bfn.  Coefficient  Atom+Function  
  ----- ------------  ---------------      ----- ------------  ---------------
    14      4.353752   1 C  s                59     -4.353752   2 C  s         
    94     -1.987294   3 H  s               151      1.987294   6 H  s         
   113     -1.807920   4 H  s               132      1.807920   5 H  s         
   180      1.273515   7 C  s               225     -1.273515   8 C  s         
   279     -0.581303  10 H  s               298      0.581303  11 H  s         

 Vector   23  Occ=0.000000D+00  E= 1.772177D-02  Symmetry=a1
              MO Center=  3.2D-13, -1.7D-13,  2.0D-14, r^2= 2.0D+01
   Bfn.  Coefficient  Atom+Function         Bfn.  Coefficient  Atom+Function  
  ----- ------------  ---------------      ----- ------------  ---------------
   113     -1.765310   4 H  s               132     -1.765310   5 H  s         
   260     -1.765310   9 H  s               317     -1.765310  12 H  s         
    94      1.723835   3 H  s               151      1.723835   6 H  s         
   279      1.723835  10 H  s               298      1.723835  11 H  s         
    17     -0.797170   1 C  pz               62     -0.797170   2 C  pz        

 Vector   24  Occ=0.000000D+00  E= 3.644911D-02  Symmetry=e
              MO Center=  3.0D-14,  8.0D-13,  6.9D-01, r^2= 2.5D+01
   Bfn.  Coefficient  Atom+Function         Bfn.  Coefficient  Atom+Function  
  ----- ------------  ---------------      ----- ------------  ---------------
   260     -5.897473   9 H  s               317      5.897473  12 H  s         
   183      5.505069   7 C  pz              228     -5.505069   8 C  pz        
   279      5.526517  10 H  s               298     -5.526517  11 H  s         
   113      3.606447   4 H  s               132     -3.606447   5 H  s         
    17      3.366483   1 C  pz               62     -3.366483   2 C  pz        

 Vector   25  Occ=0.000000D+00  E= 3.644911D-02  Symmetry=e
              MO Center=  9.0D-13,  3.1D-13, -6.9D-01, r^2= 2.5D+01
   Bfn.  Coefficient  Atom+Function         Bfn.  Coefficient  Atom+Function  
  ----- ------------  ---------------      ----- ------------  ---------------
   113      5.897473   4 H  s               132     -5.897473   5 H  s         
    17      5.505069   1 C  pz               62     -5.505069   2 C  pz        
    94     -5.526517   3 H  s               151      5.526517   6 H  s         
   260      3.606447   9 H  s               317     -3.606447  12 H  s         
   183     -3.366483   7 C  pz              228      3.366483   8 C  pz        

 Vector   26  Occ=0.000000D+00  E= 4.437393D-02  Symmetry=b2
              MO Center=  1.5D-12, -4.5D-12, -4.7D-13, r^2= 1.7D+01
   Bfn.  Coefficient  Atom+Function         Bfn.  Coefficient  Atom+Function  
  ----- ------------  ---------------      ----- ------------  ---------------
    94      5.300351   3 H  s               151      5.300351   6 H  s         
   279     -5.300351  10 H  s               298     -5.300351  11 H  s         
    14     -3.772520   1 C  s                59     -3.772520   2 C  s         
   180      3.772520   7 C  s               225      3.772520   8 C  s         
   112      1.010015   4 H  s               131      1.010015   5 H  s         

 Vector   27  Occ=0.000000D+00  E= 6.934490D-02  Symmetry=a1
              MO Center= -5.0D-13, -5.7D-13,  7.7D-13, r^2= 1.4D+01
   Bfn.  Coefficient  Atom+Function         Bfn.  Coefficient  Atom+Function  
  ----- ------------  ---------------      ----- ------------  ---------------
    93      0.969578   3 H  s               150      0.969578   6 H  s         
   278      0.969578  10 H  s               297      0.969578  11 H  s         
   113     -0.735810   4 H  s               132     -0.735810   5 H  s         
   260     -0.735810   9 H  s               317     -0.735810  12 H  s         
    10     -0.693467   1 C  s                55     -0.693467   2 C  s         

 Vector   28  Occ=0.000000D+00  E= 8.237120D-02  Symmetry=e
              MO Center=  1.9D-12,  2.6D-12,  1.2D+00, r^2= 1.7D+01
   Bfn.  Coefficient  Atom+Function         Bfn.  Coefficient  Atom+Function  
  ----- ------------  ---------------      ----- ------------  ---------------
    94      3.505254   3 H  s               151     -3.505254   6 H  s         
   113     -2.286721   4 H  s               132      2.286721   5 H  s         
    17     -0.878753   1 C  pz               62      0.878753   2 C  pz        
    14     -0.672776   1 C  s                59      0.672776   2 C  s         
   182     -0.618094   7 C  py              227     -0.618094   8 C  py        

 Vector   29  Occ=0.000000D+00  E= 8.237120D-02  Symmetry=e
              MO Center=  2.6D-14, -1.2D-14, -1.2D+00, r^2= 1.7D+01
   Bfn.  Coefficient  Atom+Function         Bfn.  Coefficient  Atom+Function  
  ----- ------------  ---------------      ----- ------------  ---------------
   279      3.505254  10 H  s               298     -3.505254  11 H  s         
   260     -2.286721   9 H  s               317      2.286721  12 H  s         
   183      0.878753   7 C  pz              228     -0.878753   8 C  pz        
   180     -0.672776   7 C  s               225      0.672776   8 C  s         
    15      0.618094   1 C  px               60      0.618094   2 C  px        

 Vector   30  Occ=0.000000D+00  E= 8.430827D-02  Symmetry=b2
              MO Center= -2.2D-12, -2.8D-12, -4.9D-13, r^2= 1.5D+01
   Bfn.  Coefficient  Atom+Function         Bfn.  Coefficient  Atom+Function  
  ----- ------------  ---------------      ----- ------------  ---------------
    14      4.014197   1 C  s                59      4.014197   2 C  s         
   180     -4.014197   7 C  s               225     -4.014197   8 C  s         
    93     -2.078811   3 H  s               150     -2.078811   6 H  s         
   278      2.078811  10 H  s               297      2.078811  11 H  s         
    10      1.713109   1 C  s                55      1.713109   2 C  s         

 Vector   31  Occ=0.000000D+00  E= 9.410924D-02  Symmetry=b1
              MO Center=  1.1D-14, -1.4D-14, -5.2D-16, r^2= 1.4D+01
   Bfn.  Coefficient  Atom+Function         Bfn.  Coefficient  Atom+Function  
  ----- ------------  ---------------      ----- ------------  ---------------
    15      0.937039   1 C  px               16     -0.937039   1 C  py        
    60     -0.937039   2 C  px               61      0.937039   2 C  py        
   181     -0.937039   7 C  px              182     -0.937039   7 C  py        
   226      0.937039   8 C  px              227      0.937039   8 C  py        
    11     -0.210472   1 C  px               12      0.210472   1 C  py        

 Vector   32  Occ=0.000000D+00  E= 1.096475D-01  Symmetry=b2
              MO Center=  3.8D-13,  8.4D-13, -3.7D-12, r^2= 2.7D+01
   Bfn.  Coefficient  Atom+Function         Bfn.  Coefficient  Atom+Function  
  ----- ------------  ---------------      ----- ------------  ---------------
    14      4.865464   1 C  s                59      4.865464   2 C  s         
   180     -4.865464   7 C  s               225     -4.865464   8 C  s         
   113     -4.516048   4 H  s               132     -4.516048   5 H  s         
   260      4.516048   9 H  s               317      4.516048  12 H  s         
    17     -2.815973   1 C  pz               62     -2.815973   2 C  pz        

 Vector   33  Occ=0.000000D+00  E= 1.118742D-01  Symmetry=a1
              MO Center=  1.2D-12,  8.2D-14, -2.4D-12, r^2= 1.6D+01
   Bfn.  Coefficient  Atom+Function         Bfn.  Coefficient  Atom+Function  
  ----- ------------  ---------------      ----- ------------  ---------------
    94     -2.693897   3 H  s               151     -2.693897   6 H  s         
   279     -2.693897  10 H  s               298     -2.693897  11 H  s         
    14      2.548003   1 C  s                59      2.548003   2 C  s         
   180      2.548003   7 C  s               225      2.548003   8 C  s         
    17      1.112254   1 C  pz               62      1.112254   2 C  pz        

 Vector   34  Occ=0.000000D+00  E= 1.223957D-01  Symmetry=a2
              MO Center= -2.0D-13,  4.6D-14, -3.5D-16, r^2= 1.8D+01
   Bfn.  Coefficient  Atom+Function         Bfn.  Coefficient  Atom+Function  
  ----- ------------  ---------------      ----- ------------  ---------------
    15      1.362209   1 C  px               16     -1.362209   1 C  py        
    60     -1.362209   2 C  px               61      1.362209   2 C  py        
   181      1.362209   7 C  px              182      1.362209   7 C  py        
   226     -1.362209   8 C  px              227     -1.362209   8 C  py        
    11     -0.205745   1 C  px               12      0.205745   1 C  py        

 Vector   35  Occ=0.000000D+00  E= 1.238915D-01  Symmetry=b2
              MO Center= -6.6D-14,  2.3D-14,  3.0D-12, r^2= 1.6D+01
   Bfn.  Coefficient  Atom+Function         Bfn.  Coefficient  Atom+Function  
  ----- ------------  ---------------      ----- ------------  ---------------
    94      6.389712   3 H  s               151      6.389712   6 H  s         
   279     -6.389712  10 H  s               298     -6.389712  11 H  s         
    14     -3.829537   1 C  s                59     -3.829537   2 C  s         
   180      3.829537   7 C  s               225      3.829537   8 C  s         
    15     -1.909063   1 C  px               16     -1.909063   1 C  py        

 Vector   36  Occ=0.000000D+00  E= 1.244664D-01  Symmetry=a1
              MO Center= -1.7D-13, -1.7D-14,  4.4D-12, r^2= 2.2D+01
   Bfn.  Coefficient  Atom+Function         Bfn.  Coefficient  Atom+Function  
  ----- ------------  ---------------      ----- ------------  ---------------
    14      3.868802   1 C  s                59      3.868802   2 C  s         
   180      3.868802   7 C  s               225      3.868802   8 C  s         
   113     -3.307975   4 H  s               132     -3.307975   5 H  s         
   260     -3.307975   9 H  s               317     -3.307975  12 H  s         
    17     -1.445538   1 C  pz               62     -1.445538   2 C  pz        

 Vector   37  Occ=0.000000D+00  E= 1.252339D-01  Symmetry=e
              MO Center=  1.9D-12,  5.5D-12, -1.1D+00, r^2= 1.7D+01
   Bfn.  Coefficient  Atom+Function         Bfn.  Coefficient  Atom+Function  
  ----- ------------  ---------------      ----- ------------  ---------------
    14     32.239373   1 C  s                59    -32.239373   2 C  s         
   180    -11.175344   7 C  s               225     11.175344   8 C  s         
    15     -8.780471   1 C  px               60     -8.780471   2 C  px        
    16     -8.596693   1 C  py               61     -8.596693   2 C  py        
   113      6.086677   4 H  s               132     -6.086677   5 H  s         

 Vector   38  Occ=0.000000D+00  E= 1.252339D-01  Symmetry=e
              MO Center=  6.4D-13, -2.6D-12,  1.1D+00, r^2= 1.7D+01
   Bfn.  Coefficient  Atom+Function         Bfn.  Coefficient  Atom+Function  
  ----- ------------  ---------------      ----- ------------  ---------------
   180     32.239373   7 C  s               225    -32.239373   8 C  s         
    14     11.175344   1 C  s                59    -11.175344   2 C  s         
   182     -8.780471   7 C  py              227     -8.780471   8 C  py        
   181      8.596693   7 C  px              226      8.596693   8 C  px        
   260      6.086677   9 H  s               317     -6.086677  12 H  s         

 Vector   39  Occ=0.000000D+00  E= 1.283063D-01  Symmetry=e
              MO Center=  1.4D-12, -1.6D-12,  1.5D+00, r^2= 1.6D+01
   Bfn.  Coefficient  Atom+Function         Bfn.  Coefficient  Atom+Function  
  ----- ------------  ---------------      ----- ------------  ---------------
   180     22.847511   7 C  s               225    -22.847511   8 C  s         
   279     -5.448406  10 H  s               298      5.448406  11 H  s         
   260     -2.073334   9 H  s               317      2.073334  12 H  s         
   181      1.679130   7 C  px              182     -1.679533   7 C  py        
   226      1.679130   8 C  px              227     -1.679533   8 C  py        

 Vector   40  Occ=0.000000D+00  E= 1.283063D-01  Symmetry=e
              MO Center=  2.8D-12,  2.8D-12, -1.5D+00, r^2= 1.6D+01
   Bfn.  Coefficient  Atom+Function         Bfn.  Coefficient  Atom+Function  
  ----- ------------  ---------------      ----- ------------  ---------------
    14     22.847511   1 C  s                59    -22.847511   2 C  s         
    94     -5.448406   3 H  s               151      5.448406   6 H  s         
   113     -2.073334   4 H  s               132      2.073334   5 H  s         
    15     -1.679533   1 C  px               16     -1.679130   1 C  py        
    60     -1.679533   2 C  px               61     -1.679130   2 C  py        

 Vector   41  Occ=0.000000D+00  E= 1.422592D-01  Symmetry=a1
              MO Center= -1.4D-11,  5.6D-12, -2.3D-12, r^2= 1.6D+01
   Bfn.  Coefficient  Atom+Function         Bfn.  Coefficient  Atom+Function  
  ----- ------------  ---------------      ----- ------------  ---------------
    14      6.054562   1 C  s                59      6.054562   2 C  s         
   180      6.054562   7 C  s               225      6.054562   8 C  s         
    94     -4.909663   3 H  s               151     -4.909663   6 H  s         
   279     -4.909663  10 H  s               298     -4.909663  11 H  s         
   112     -1.796091   4 H  s               131     -1.796091   5 H  s         

 Vector   42  Occ=0.000000D+00  E= 1.522320D-01  Symmetry=e
              MO Center=  1.3D-11,  1.1D-12, -5.4D-01, r^2= 2.2D+01
   Bfn.  Coefficient  Atom+Function         Bfn.  Coefficient  Atom+Function  
  ----- ------------  ---------------      ----- ------------  ---------------
    14     21.331093   1 C  s                59    -21.331093   2 C  s         
   180    -16.578421   7 C  s               225     16.578421   8 C  s         
    17    -11.997078   1 C  pz               62     11.997078   2 C  pz        
    94     10.698176   3 H  s               151    -10.698176   6 H  s         
   183     -9.324071   7 C  pz              228      9.324071   8 C  pz        

 Vector   43  Occ=0.000000D+00  E= 1.522320D-01  Symmetry=e
              MO Center= -8.6D-13, -1.5D-14,  5.4D-01, r^2= 2.2D+01
   Bfn.  Coefficient  Atom+Function         Bfn.  Coefficient  Atom+Function  
  ----- ------------  ---------------      ----- ------------  ---------------
   180     21.331093   7 C  s               225    -21.331093   8 C  s         
    14     16.578421   1 C  s                59    -16.578421   2 C  s         
   183     11.997078   7 C  pz              228    -11.997078   8 C  pz        
   279     10.698176  10 H  s               298    -10.698176  11 H  s         
    17     -9.324071   1 C  pz               62      9.324071   2 C  pz        

 Vector   44  Occ=0.000000D+00  E= 1.631230D-01  Symmetry=b2
              MO Center= -7.8D-11, -5.8D-12, -1.2D-13, r^2= 1.5D+01
   Bfn.  Coefficient  Atom+Function         Bfn.  Coefficient  Atom+Function  
  ----- ------------  ---------------      ----- ------------  ---------------
    94      9.645554   3 H  s               151      9.645554   6 H  s         
   279     -9.645554  10 H  s               298     -9.645554  11 H  s         
    14     -7.155064   1 C  s                59     -7.155064   2 C  s         
   180      7.155064   7 C  s               225      7.155064   8 C  s         
   112      2.492428   4 H  s               131      2.492428   5 H  s         

 Vector   45  Occ=0.000000D+00  E= 1.648362D-01  Symmetry=e
              MO Center=  4.6D-11,  2.8D-11, -1.6D+00, r^2= 1.2D+01
   Bfn.  Coefficient  Atom+Function         Bfn.  Coefficient  Atom+Function  
  ----- ------------  ---------------      ----- ------------  ---------------
    14     23.676145   1 C  s                59    -23.676145   2 C  s         
    94     -7.137429   3 H  s               151      7.137429   6 H  s         
    17      6.529031   1 C  pz               62     -6.529031   2 C  pz        
    93     -6.188740   3 H  s               150      6.188740   6 H  s         
   180      4.472696   7 C  s               225     -4.472696   8 C  s         

 Vector   46  Occ=0.000000D+00  E= 1.648362D-01  Symmetry=e
              MO Center=  2.3D-11, -3.3D-11,  1.6D+00, r^2= 1.2D+01
   Bfn.  Coefficient  Atom+Function         Bfn.  Coefficient  Atom+Function  
  ----- ------------  ---------------      ----- ------------  ---------------
   180     23.676145   7 C  s               225    -23.676145   8 C  s         
   279     -7.137429  10 H  s               298      7.137429  11 H  s         
   183     -6.529031   7 C  pz              228      6.529031   8 C  pz        
   278     -6.188740  10 H  s               297      6.188740  11 H  s         
    14     -4.472696   1 C  s                59      4.472696   2 C  s         

 Vector   47  Occ=0.000000D+00  E= 2.096543D-01  Symmetry=a1
              MO Center=  8.6D-13,  2.8D-13,  1.3D-12, r^2= 1.1D+01
   Bfn.  Coefficient  Atom+Function         Bfn.  Coefficient  Atom+Function  
  ----- ------------  ---------------      ----- ------------  ---------------
    93      3.870696   3 H  s               150      3.870696   6 H  s         
   278      3.870696  10 H  s               297      3.870696  11 H  s         
   113     -2.546900   4 H  s               132     -2.546900   5 H  s         
   260     -2.546900   9 H  s               317     -2.546900  12 H  s         
    17     -2.404108   1 C  pz               62     -2.404108   2 C  pz        

 Vector   48  Occ=0.000000D+00  E= 2.744390D-01  Symmetry=a1
              MO Center= -1.1D-12,  9.0D-13, -1.4D-11, r^2= 1.2D+01
   Bfn.  Coefficient  Atom+Function         Bfn.  Coefficient  Atom+Function  
  ----- ------------  ---------------      ----- ------------  ---------------
    14      4.091232   1 C  s                59      4.091232   2 C  s         
   180      4.091232   7 C  s               225      4.091232   8 C  s         
   112     -3.764137   4 H  s               131     -3.764137   5 H  s         
   259     -3.764137   9 H  s               316     -3.764137  12 H  s         
    10      3.403355   1 C  s                55      3.403355   2 C  s         

 Vector   49  Occ=0.000000D+00  E= 2.761724D-01  Symmetry=b2
              MO Center= -6.6D-13,  4.7D-13,  1.4D-11, r^2= 1.6D+01
   Bfn.  Coefficient  Atom+Function         Bfn.  Coefficient  Atom+Function  
  ----- ------------  ---------------      ----- ------------  ---------------
    14      5.787461   1 C  s                59      5.787461   2 C  s         
   180     -5.787461   7 C  s               225     -5.787461   8 C  s         
   112     -4.601463   4 H  s               131     -4.601463   5 H  s         
   259      4.601463   9 H  s               316      4.601463  12 H  s         
   113     -4.226499   4 H  s               132     -4.226499   5 H  s         

 Vector   50  Occ=0.000000D+00  E= 2.964810D-01  Symmetry=e
              MO Center=  1.1D-12, -2.1D-12,  1.3D+00, r^2= 1.4D+01
   Bfn.  Coefficient  Atom+Function         Bfn.  Coefficient  Atom+Function  
  ----- ------------  ---------------      ----- ------------  ---------------
   183     16.720755   7 C  pz              228    -16.720755   8 C  pz        
   260     -9.201372   9 H  s               317      9.201372  12 H  s         
   279      8.537693  10 H  s               298     -8.537693  11 H  s         
   259     -8.186834   9 H  s               316      8.186834  12 H  s         
   278      7.865353  10 H  s               297     -7.865353  11 H  s         

 Vector   51  Occ=0.000000D+00  E= 2.964810D-01  Symmetry=e
              MO Center=  3.2D-12,  1.6D-12, -1.3D+00, r^2= 1.4D+01
   Bfn.  Coefficient  Atom+Function         Bfn.  Coefficient  Atom+Function  
  ----- ------------  ---------------      ----- ------------  ---------------
    17     16.720755   1 C  pz               62    -16.720755   2 C  pz        
   113      9.201372   4 H  s               132     -9.201372   5 H  s         
    94     -8.537693   3 H  s               151      8.537693   6 H  s         
   112      8.186834   4 H  s               131     -8.186834   5 H  s         
    93     -7.865353   3 H  s               150      7.865353   6 H  s         

 Vector   52  Occ=0.000000D+00  E= 3.095003D-01  Symmetry=b2
              MO Center=  2.9D-11,  9.9D-12, -5.2D-12, r^2= 1.5D+01
   Bfn.  Coefficient  Atom+Function         Bfn.  Coefficient  Atom+Function  
  ----- ------------  ---------------      ----- ------------  ---------------
    14      6.058940   1 C  s                59      6.058940   2 C  s         
   180     -6.058940   7 C  s               225     -6.058940   8 C  s         
    93     -5.755088   3 H  s               150     -5.755088   6 H  s         
   278      5.755088  10 H  s               297      5.755088  11 H  s         
    10      5.166700   1 C  s                55      5.166700   2 C  s         

 Vector   53  Occ=0.000000D+00  E= 3.156707D-01  Symmetry=e
              MO Center= -5.8D-12,  6.2D-12,  8.0D-01, r^2= 9.9D+00
   Bfn.  Coefficient  Atom+Function         Bfn.  Coefficient  Atom+Function  
  ----- ------------  ---------------      ----- ------------  ---------------
   180     16.853161   7 C  s               225    -16.853161   8 C  s         
   181      6.005888   7 C  px              226      6.005888   8 C  px        
   182     -5.846177   7 C  py              227     -5.846177   8 C  py        
    14     -5.304498   1 C  s                59      5.304498   2 C  s         
   279      3.439953  10 H  s               298     -3.439953  11 H  s         

 Vector   54  Occ=0.000000D+00  E= 3.156707D-01  Symmetry=e
              MO Center= -2.6D-11, -1.3D-11, -8.0D-01, r^2= 9.9D+00
   Bfn.  Coefficient  Atom+Function         Bfn.  Coefficient  Atom+Function  
  ----- ------------  ---------------      ----- ------------  ---------------
    14     16.853161   1 C  s                59    -16.853161   2 C  s         
    16     -6.005888   1 C  py               61     -6.005888   2 C  py        
    15     -5.846177   1 C  px               60     -5.846177   2 C  px        
   180      5.304498   7 C  s               225     -5.304498   8 C  s         
    94      3.439953   3 H  s               151     -3.439953   6 H  s         

 Vector   55  Occ=0.000000D+00  E= 3.322146D-01  Symmetry=b1
              MO Center= -7.3D-14, -1.2D-14,  5.7D-15, r^2= 7.4D+00
   Bfn.  Coefficient  Atom+Function         Bfn.  Coefficient  Atom+Function  
  ----- ------------  ---------------      ----- ------------  ---------------
   101      0.373119   3 H  px              102     -0.373119   3 H  py        
   158     -0.373119   6 H  px              159      0.373119   6 H  py        
   286     -0.373119  10 H  px              287     -0.373119  10 H  py        
   305      0.373119  11 H  px              306      0.373119  11 H  py        
   120     -0.272524   4 H  px              121      0.272524   4 H  py        

 Vector   56  Occ=0.000000D+00  E= 3.347036D-01  Symmetry=b2
              MO Center= -1.6D-13, -1.4D-13,  1.4D-13, r^2= 1.3D+01
   Bfn.  Coefficient  Atom+Function         Bfn.  Coefficient  Atom+Function  
  ----- ------------  ---------------      ----- ------------  ---------------
   112      3.884672   4 H  s               131      3.884672   5 H  s         
   259     -3.884672   9 H  s               316     -3.884672  12 H  s         
    10     -3.108346   1 C  s                55     -3.108346   2 C  s         
   176      3.108346   7 C  s               221      3.108346   8 C  s         
    14     -2.589479   1 C  s                59     -2.589479   2 C  s         

 Vector   57  Occ=0.000000D+00  E= 3.400966D-01  Symmetry=e
              MO Center=  2.8D-14, -3.5D-14,  1.5D-01, r^2= 9.3D+00
   Bfn.  Coefficient  Atom+Function         Bfn.  Coefficient  Atom+Function  
  ----- ------------  ---------------      ----- ------------  ---------------
    14      2.119186   1 C  s                59     -2.119186   2 C  s         
    93     -1.748710   3 H  s               150      1.748710   6 H  s         
   112     -1.716282   4 H  s               131      1.716282   5 H  s         
    12      1.345560   1 C  py               17      1.346945   1 C  pz        
    57      1.345560   2 C  py               62     -1.346945   2 C  pz        

 Vector   58  Occ=0.000000D+00  E= 3.400966D-01  Symmetry=e
              MO Center=  4.0D-13, -3.5D-13, -1.5D-01, r^2= 9.3D+00
   Bfn.  Coefficient  Atom+Function         Bfn.  Coefficient  Atom+Function  
  ----- ------------  ---------------      ----- ------------  ---------------
   180      2.119186   7 C  s               225     -2.119186   8 C  s         
   278     -1.748710  10 H  s               297      1.748710  11 H  s         
   259     -1.716282   9 H  s               316      1.716282  12 H  s         
   177     -1.345560   7 C  px              183     -1.346945   7 C  pz        
   222     -1.345560   8 C  px              228      1.346945   8 C  pz        

 Vector   59  Occ=0.000000D+00  E= 3.498978D-01  Symmetry=a1
              MO Center= -4.8D-13,  9.2D-15,  2.3D-12, r^2= 1.4D+01
   Bfn.  Coefficient  Atom+Function         Bfn.  Coefficient  Atom+Function  
  ----- ------------  ---------------      ----- ------------  ---------------
   112      4.219098   4 H  s               131      4.219098   5 H  s         
   259      4.219098   9 H  s               316      4.219098  12 H  s         
    93     -3.031163   3 H  s               150     -3.031163   6 H  s         
   278     -3.031163  10 H  s               297     -3.031163  11 H  s         
    17      2.074187   1 C  pz               62      2.074187   2 C  pz        

 Vector   60  Occ=0.000000D+00  E= 3.919760D-01  Symmetry=a1
              MO Center= -3.3D-12, -7.2D-11,  1.1D-12, r^2= 1.0D+01
   Bfn.  Coefficient  Atom+Function         Bfn.  Coefficient  Atom+Function  
  ----- ------------  ---------------      ----- ------------  ---------------
    93     -5.792297   3 H  s               150     -5.792297   6 H  s         
   278     -5.792297  10 H  s               297     -5.792297  11 H  s         
    14      5.468426   1 C  s                59      5.468426   2 C  s         
   180      5.468426   7 C  s               225      5.468426   8 C  s         
    94     -3.900101   3 H  s               151     -3.900101   6 H  s         

 Vector   61  Occ=0.000000D+00  E= 3.942822D-01  Symmetry=e
              MO Center=  2.4D-11,  5.5D-11, -1.0D+00, r^2= 9.1D+00
   Bfn.  Coefficient  Atom+Function         Bfn.  Coefficient  Atom+Function  
  ----- ------------  ---------------      ----- ------------  ---------------
    14     15.229530   1 C  s                59    -15.229530   2 C  s         
    10      6.157828   1 C  s                55     -6.157828   2 C  s         
   180      6.116712   7 C  s               225     -6.116712   8 C  s         
   112     -5.571846   4 H  s               131      5.571846   5 H  s         
    93     -4.979314   3 H  s               150      4.979314   6 H  s         

 Vector   62  Occ=0.000000D+00  E= 3.942822D-01  Symmetry=e
              MO Center= -1.9D-11,  8.5D-12,  1.0D+00, r^2= 9.1D+00
   Bfn.  Coefficient  Atom+Function         Bfn.  Coefficient  Atom+Function  
  ----- ------------  ---------------      ----- ------------  ---------------
   180     15.229530   7 C  s               225    -15.229530   8 C  s         
   176      6.157828   7 C  s               221     -6.157828   8 C  s         
    14     -6.116712   1 C  s                59      6.116712   2 C  s         
   259     -5.571846   9 H  s               316      5.571846  12 H  s         
   278     -4.979314  10 H  s               297      4.979314  11 H  s         

 Vector   63  Occ=0.000000D+00  E= 4.076185D-01  Symmetry=e
              MO Center=  3.0D-12,  2.7D-12,  1.2D+00, r^2= 9.1D+00
   Bfn.  Coefficient  Atom+Function         Bfn.  Coefficient  Atom+Function  
  ----- ------------  ---------------      ----- ------------  ---------------
    14      8.110006   1 C  s                59     -8.110006   2 C  s         
    17      6.634996   1 C  pz               62     -6.634996   2 C  pz        
    94     -6.019203   3 H  s               151      6.019203   6 H  s         
    93     -4.852059   3 H  s               150      4.852059   6 H  s         
   113      3.616709   4 H  s               132     -3.616709   5 H  s         

 Vector   64  Occ=0.000000D+00  E= 4.076185D-01  Symmetry=e
              MO Center= -2.9D-12,  3.4D-12, -1.2D+00, r^2= 9.1D+00
   Bfn.  Coefficient  Atom+Function         Bfn.  Coefficient  Atom+Function  
  ----- ------------  ---------------      ----- ------------  ---------------
   180      8.110006   7 C  s               225     -8.110006   8 C  s         
   183     -6.634996   7 C  pz              228      6.634996   8 C  pz        
   279     -6.019203  10 H  s               298      6.019203  11 H  s         
   278     -4.852059  10 H  s               297      4.852059  11 H  s         
   260      3.616709   9 H  s               317     -3.616709  12 H  s         

 Vector   65  Occ=0.000000D+00  E= 4.339809D-01  Symmetry=a2
              MO Center= -9.8D-15,  5.7D-16, -8.4D-15, r^2= 1.1D+01
   Bfn.  Coefficient  Atom+Function         Bfn.  Coefficient  Atom+Function  
  ----- ------------  ---------------      ----- ------------  ---------------
   120      0.508896   4 H  px              121     -0.508896   4 H  py        
   139     -0.508896   5 H  px              140      0.508896   5 H  py        
   267      0.508896   9 H  px              268      0.508896   9 H  py        
   324     -0.508896  12 H  px              325     -0.508896  12 H  py        
    15     -0.292997   1 C  px               16      0.292997   1 C  py        

 Vector   66  Occ=0.000000D+00  E= 4.543182D-01  Symmetry=b2
              MO Center=  9.1D-13, -6.4D-12,  1.6D-12, r^2= 1.3D+01
   Bfn.  Coefficient  Atom+Function         Bfn.  Coefficient  Atom+Function  
  ----- ------------  ---------------      ----- ------------  ---------------
    94      7.823375   3 H  s               151      7.823375   6 H  s         
   279     -7.823375  10 H  s               298     -7.823375  11 H  s         
    14     -6.421092   1 C  s                59     -6.421092   2 C  s         
   180      6.421092   7 C  s               225      6.421092   8 C  s         
   112      5.766309   4 H  s               131      5.766309   5 H  s         

 Vector   67  Occ=0.000000D+00  E= 4.648884D-01  Symmetry=a1
              MO Center=  1.3D-13,  2.5D-13, -1.3D-12, r^2= 1.2D+01
   Bfn.  Coefficient  Atom+Function         Bfn.  Coefficient  Atom+Function  
  ----- ------------  ---------------      ----- ------------  ---------------
    93      3.862107   3 H  s               150      3.862107   6 H  s         
   278      3.862107  10 H  s               297      3.862107  11 H  s         
   112     -3.476374   4 H  s               131     -3.476374   5 H  s         
   259     -3.476374   9 H  s               316     -3.476374  12 H  s         
    14      2.994332   1 C  s                59      2.994332   2 C  s         

 Vector   68  Occ=0.000000D+00  E= 4.784299D-01  Symmetry=e
              MO Center= -5.8D-12,  1.0D-11,  5.5D-01, r^2= 1.1D+01
   Bfn.  Coefficient  Atom+Function         Bfn.  Coefficient  Atom+Function  
  ----- ------------  ---------------      ----- ------------  ---------------
   180     15.069195   7 C  s               225    -15.069195   8 C  s         
   176     11.355495   7 C  s               221    -11.355495   8 C  s         
    14     -9.984244   1 C  s                59      9.984244   2 C  s         
    10     -7.523695   1 C  s                55      7.523695   2 C  s         
   178     -4.748844   7 C  py              223     -4.748844   8 C  py        

 Vector   69  Occ=0.000000D+00  E= 4.784299D-01  Symmetry=e
              MO Center=  2.7D-13,  1.9D-12, -5.5D-01, r^2= 1.1D+01
   Bfn.  Coefficient  Atom+Function         Bfn.  Coefficient  Atom+Function  
  ----- ------------  ---------------      ----- ------------  ---------------
    14     15.069195   1 C  s                59    -15.069195   2 C  s         
    10     11.355495   1 C  s                55    -11.355495   2 C  s         
   180      9.984244   7 C  s               225     -9.984244   8 C  s         
   176      7.523695   7 C  s               221     -7.523695   8 C  s         
    11     -4.748844   1 C  px               56     -4.748844   2 C  px        

 Vector   70  Occ=0.000000D+00  E= 4.934981D-01  Symmetry=b2
              MO Center=  2.7D-12, -2.8D-12,  2.4D-12, r^2= 9.9D+00
   Bfn.  Coefficient  Atom+Function         Bfn.  Coefficient  Atom+Function  
  ----- ------------  ---------------      ----- ------------  ---------------
    10      3.358945   1 C  s                55      3.358945   2 C  s         
   176     -3.358945   7 C  s               221     -3.358945   8 C  s         
    93     -2.147547   3 H  s               150     -2.147547   6 H  s         
   278      2.147547  10 H  s               297      2.147547  11 H  s         
    94      1.558583   3 H  s               151      1.558583   6 H  s         

 Vector   71  Occ=0.000000D+00  E= 4.938443D-01  Symmetry=b1
              MO Center=  1.6D-13, -2.6D-13, -8.1D-14, r^2= 9.8D+00
   Bfn.  Coefficient  Atom+Function         Bfn.  Coefficient  Atom+Function  
  ----- ------------  ---------------      ----- ------------  ---------------
    11      0.643075   1 C  px               12     -0.643075   1 C  py        
    56     -0.643075   2 C  px               57      0.643075   2 C  py        
   177     -0.643075   7 C  px              178     -0.643075   7 C  py        
   222      0.643075   8 C  px              223      0.643075   8 C  py        
    15      0.493936   1 C  px               16     -0.493936   1 C  py        

 Vector   72  Occ=0.000000D+00  E= 4.988953D-01  Symmetry=a1
              MO Center=  2.7D-12, -1.3D-12, -1.5D-12, r^2= 1.4D+01
   Bfn.  Coefficient  Atom+Function         Bfn.  Coefficient  Atom+Function  
  ----- ------------  ---------------      ----- ------------  ---------------
   112      2.950397   4 H  s               131      2.950397   5 H  s         
   259      2.950397   9 H  s               316      2.950397  12 H  s         
    14      1.686251   1 C  s                59      1.686251   2 C  s         
   180      1.686251   7 C  s               225      1.686251   8 C  s         
    35     -1.291364   1 C  dzz              80     -1.291364   2 C  dzz       

 Vector   73  Occ=0.000000D+00  E= 5.232029D-01  Symmetry=a2
              MO Center=  1.9D-13,  6.2D-15,  7.4D-14, r^2= 9.0D+00
   Bfn.  Coefficient  Atom+Function         Bfn.  Coefficient  Atom+Function  
  ----- ------------  ---------------      ----- ------------  ---------------
    30     -1.040444   1 C  dxx              33      1.040444   1 C  dyy       
    75     -1.040444   2 C  dxx              78      1.040444   2 C  dyy       
   196      1.040444   7 C  dxx             199     -1.040444   7 C  dyy       
   241      1.040444   8 C  dxx             244     -1.040444   8 C  dyy       
    11      1.032937   1 C  px               12     -1.032937   1 C  py        


 center of mass
 --------------
 x =   0.00000000 y =   0.00000000 z =   0.00000000

 moments of inertia (a.u.)
 ------------------
         775.939220235158           0.000000000000           0.000000000000
           0.000000000000         775.939220235158           0.000000000000
           0.000000000000           0.000000000000         120.459976824240

     Multipole analysis of the density
     ---------------------------------

     L   x y z        total         alpha         beta         nuclear
     -   - - -        -----         -----         ----         -------
     0   0 0 0      0.000000    -16.000000    -16.000000     32.000000

     1   1 0 0     -0.000000     -0.000000     -0.000000      0.000000
     1   0 1 0      0.000000      0.000000      0.000000     -0.000000
     1   0 0 1      0.000000      0.000000      0.000000     -0.000000

     2   2 0 0    -20.905911    -30.911158    -30.911158     40.916405
     2   1 1 0     -0.000000     -0.000000     -0.000000      0.000000
     2   1 0 1     -0.000000     -0.000000     -0.000000      0.000000
     2   0 2 0    -20.905911    -30.911158    -30.911158     40.916405
     2   0 1 1     -0.000000     -0.000000     -0.000000      0.000000
     2   0 0 2    -18.604065   -218.776640   -218.776640    418.949215


------------------------------------------------------------
EAF file 0: "./C2H4-C2H4.aoints.0" size=2380267520 bytes
------------------------------------------------------------
               write      read    awrite     aread      wait
               -----      ----    ------     -----      ----
     calls:     4540         6         0     27234     27234
   data(b): 2.38e+09  3.15e+06  0.00e+00  1.43e+10
   time(s): 0.00e+00  0.00e+00  0.00e+00  0.00e+00  0.00e+00
rate(mb/s): 0.00e+00  0.00e+00
------------------------------------------------------------


 Parallel integral file used    4540 records with       0 large values


 Task  times  cpu:      102.5s     wall:      116.7s


                                NWChem Input Module
                                -------------------


 Summary of allocated global arrays
-----------------------------------
  No active global arrays



                         GA Statistics for process    0
                         ------------------------------

       create   destroy   get      put      acc     scatter   gather  read&inc
calls:  227      227     1.02e+05 3.41e+04 4.89e+04    0        0     3612     
number of processes/call 1.00e+00 1.00e+00 1.00e+00 0.00e+00 0.00e+00
bytes total:             7.49e+08 1.98e+08 5.00e+08 0.00e+00 0.00e+00 2.89e+04
bytes remote:            0.00e+00 0.00e+00 0.00e+00 0.00e+00 0.00e+00 0.00e+00
Max memory consumed for GA by this process: 34389888 bytes

MA_summarize_allocated_blocks: starting scan ...
MA_summarize_allocated_blocks: scan completed: 0 heap blocks, 0 stack blocks
MA usage statistics:

	allocation statistics:
					      heap	     stack
					      ----	     -----
	current number of blocks	         0	         0
	maximum number of blocks	        23	        55
	current total bytes		         0	         0
	maximum total bytes		   2742432	  34562280
	maximum total K-bytes		      2743	     34563
	maximum total M-bytes		         3	        35


                                     CITATION
                                     --------
                Please cite the following reference when publishing
                           results obtained with NWChem:

                 M. Valiev, E.J. Bylaska, N. Govind, K. Kowalski,
              T.P. Straatsma, H.J.J. van Dam, D. Wang, J. Nieplocha,
                        E. Apra, T.L. Windus, W.A. de Jong
                 "NWChem: a comprehensive and scalable open-source
                  solution for large scale molecular simulations"
                      Comput. Phys. Commun. 181, 1477 (2010)
                           doi:10.1016/j.cpc.2010.04.018

                                      AUTHORS
                                      -------
          E. Apra, E. J. Bylaska, W. A. de Jong, N. Govind, K. Kowalski,
       T. P. Straatsma, M. Valiev, H. J. J. van Dam, D. Wang, T. L. Windus,
        J. Hammond, J. Autschbach, K. Bhaskaran-Nair, J. Brabec, K. Lopata,
       S. A. Fischer, S. Krishnamoorthy, W. Ma, M. Klemm, O. Villa, Y. Chen,
    V. Anisimov, F. Aquino, S. Hirata, M. T. Hackler, T. Risthaus, M. Malagoli,
       A. Marenich, A. Otero-de-la-Roza, J. Mullin, P. Nichols, R. Peverati,
     J. Pittner, Y. Zhao, P.-D. Fan, A. Fonari, M. Williamson, R. J. Harrison,
       J. R. Rehr, M. Dupuis, D. Silverstein, D. M. A. Smith, J. Nieplocha,
        V. Tipparaju, M. Krishnan, B. E. Van Kuiken, A. Vazquez-Mayagoitia,
        L. Jensen, M. Swart, Q. Wu, T. Van Voorhis, A. A. Auer, M. Nooijen,
      L. D. Crosby, E. Brown, G. Cisneros, G. I. Fann, H. Fruchtl, J. Garza,
        K. Hirao, R. A. Kendall, J. A. Nichols, K. Tsemekhman, K. Wolinski,
     J. Anchell, D. E. Bernholdt, P. Borowski, T. Clark, D. Clerc, H. Dachsel,
   M. J. O. Deegan, K. Dyall, D. Elwood, E. Glendening, M. Gutowski, A. C. Hess,
         J. Jaffe, B. G. Johnson, J. Ju, R. Kobayashi, R. Kutteh, Z. Lin,
   R. Littlefield, X. Long, B. Meng, T. Nakajima, S. Niu, L. Pollack, M. Rosing,
   K. Glaesemann, G. Sandrone, M. Stave, H. Taylor, G. Thomas, J. H. van Lenthe,
                               A. T. Wong, Z. Zhang.

 Total times  cpu:      102.6s     wall:      117.0s
