[1537885863.522706] [r8n3:30671:0]         sys.c:744  MXM  WARN  Conflicting CPU frequencies detected, using: 2499.99
[1537885863.529902] [r8n3:30671:0]         mxm.c:196  MXM  WARN  The 'ulimit -s' on the system is set to 'unlimited'. This may have negative performance implications. Please set the stack size to the default value (10240) 
[1537885863.532568] [r8n3:30671:0]         mxm.c:196  MXM  WARN  The 'ulimit -s' on the system is set to 'unlimited'. This may have negative performance implications. Please set the stack size to the default value (10240) 
 argument  1 = /storage/home/bikashp/nwchem_run/rabeet/hb6/nwrevtpss/C2H4.nw
                                         
                                         


              Northwest Computational Chemistry Package (NWChem) 6.6
              ------------------------------------------------------


                    Environmental Molecular Sciences Laboratory
                       Pacific Northwest National Laboratory
                                Richland, WA 99352

                              Copyright (c) 1994-2015
                       Pacific Northwest National Laboratory
                            Battelle Memorial Institute

             NWChem is an open-source computational chemistry package
                        distributed under the terms of the
                      Educational Community License (ECL) 2.0
             A copy of the license is included with this distribution
                              in the LICENSE.TXT file

                                  ACKNOWLEDGMENT
                                  --------------

            This software and its documentation were developed at the
            EMSL at Pacific Northwest National Laboratory, a multiprogram
            national laboratory, operated for the U.S. Department of Energy
            by Battelle under Contract Number DE-AC05-76RL01830. Support
            for this work was provided by the Department of Energy Office
            of Biological and Environmental Research, Office of Basic
            Energy Sciences, and the Office of Advanced Scientific Computing.


           Job information
           ---------------

    hostname        = r8n3.niserhpc.org
    program         = /home/bikashp/Code/nwchem-6.6_revtpss/bin/LINUX64/nwchem
    date            = Tue Sep 25 20:01:03 2018

    compiled        = Tue_Sep_25_17:05:19_2018
    source          = /home/bikashp/Code/nwchem-6.6_revtpss
    nwchem branch   = 6.6
    nwchem revision = 27746
    ga revision     = 10594
    input           = /storage/home/bikashp/nwchem_run/rabeet/hb6/nwrevtpss/C2H4.nw
    prefix          = C2H4.
    data base       = ./C2H4.db
    status          = startup
    nproc           =        1
    time left       =     -1s



           Memory information
           ------------------

    heap     =   13107196 doubles =    100.0 Mbytes
    stack    =   13107201 doubles =    100.0 Mbytes
    global   =   26214400 doubles =    200.0 Mbytes (distinct from heap & stack)
    total    =   52428797 doubles =    400.0 Mbytes
    verify   = yes
    hardfail = no 


           Directory information
           ---------------------

  0 permanent = .
  0 scratch   = .




                                NWChem Input Module
                                -------------------



 Scaling coordinates for geometry "geometry" by  1.889725989
 (inverse scale =  0.529177249)

 D2H symmetry detected

          ------
          auto-z
          ------


                             Geometry "geometry" -> ""
                             -------------------------

 Output coordinates in angstroms (scale by  1.889725989 to convert to a.u.)

  No.       Tag          Charge          X              Y              Z
 ---- ---------------- ---------- -------------- -------------- --------------
    1 C                    6.0000     0.00000000     0.66808000     0.00000000
    2 C                    6.0000     0.00000000    -0.66808000     0.00000000
    3 H                    1.0000     0.92453000     1.23492000     0.00000000
    4 H                    1.0000    -0.92453000     1.23492000     0.00000000
    5 H                    1.0000     0.92453000    -1.23492000     0.00000000
    6 H                    1.0000    -0.92453000    -1.23492000     0.00000000

      Atomic Mass 
      ----------- 

      C                 12.000000
      H                  1.007825


 Effective nuclear repulsion energy (a.u.)      33.3154346570

            Nuclear Dipole moment (a.u.) 
            ----------------------------
        X                 Y               Z
 ---------------- ---------------- ----------------
     0.0000000000     0.0000000000     0.0000000000

      Symmetry information
      --------------------

 Group name             D2h       
 Group number             26
 Group order               8
 No. of unique centers     2

      Symmetry unique atoms

     1    3



                                Z-matrix (autoz)
                                -------- 

 Units are Angstrom for bonds and degrees for angles

      Type          Name      I     J     K     L     M      Value
      ----------- --------  ----- ----- ----- ----- ----- ----------
    1 Stretch                  1     2                       1.33616
    2 Stretch                  1     3                       1.08446
    3 Stretch                  1     4                       1.08446
    4 Stretch                  2     5                       1.08446
    5 Stretch                  2     6                       1.08446
    6 Bend                     1     2     5               121.51294
    7 Bend                     1     2     6               121.51294
    8 Bend                     2     1     3               121.51294
    9 Bend                     2     1     4               121.51294
   10 Bend                     3     1     4               116.97412
   11 Bend                     5     2     6               116.97412
   12 Torsion                  3     1     2     5           0.00000
   13 Torsion                  3     1     2     6         180.00000
   14 Torsion                  4     1     2     5         180.00000
   15 Torsion                  4     1     2     6          -0.00000


            XYZ format geometry
            -------------------
     6
 geometry
 C                     0.00000000     0.66808000     0.00000000
 C                     0.00000000    -0.66808000     0.00000000
 H                     0.92453000     1.23492000     0.00000000
 H                    -0.92453000     1.23492000     0.00000000
 H                     0.92453000    -1.23492000     0.00000000
 H                    -0.92453000    -1.23492000     0.00000000

 ==============================================================================
                                internuclear distances
 ------------------------------------------------------------------------------
       center one      |      center two      | atomic units |  angstroms
 ------------------------------------------------------------------------------
    2 C                |   1 C                |     2.52498  |     1.33616
    3 H                |   1 C                |     2.04934  |     1.08446
    4 H                |   1 C                |     2.04934  |     1.08446
    5 H                |   2 C                |     2.04934  |     1.08446
    6 H                |   2 C                |     2.04934  |     1.08446
 ------------------------------------------------------------------------------
                         number of included internuclear distances:          5
 ==============================================================================



 ==============================================================================
                                 internuclear angles
 ------------------------------------------------------------------------------
        center 1       |       center 2       |       center 3       |  degrees
 ------------------------------------------------------------------------------
    2 C                |   1 C                |   3 H                |   121.51
    2 C                |   1 C                |   4 H                |   121.51
    3 H                |   1 C                |   4 H                |   116.97
    1 C                |   2 C                |   5 H                |   121.51
    1 C                |   2 C                |   6 H                |   121.51
    5 H                |   2 C                |   6 H                |   116.97
 ------------------------------------------------------------------------------
                            number of included internuclear angles:          6
 ==============================================================================





 Summary of "ao basis" -> "" (cartesian)
 ------------------------------------------------------------------------------
       Tag                 Description            Shells   Functions and Types
 ---------------- ------------------------------  ------  ---------------------
 *                     6-311++G(3df,3pd)              on all atoms 



                                 NWChem DFT Module
                                 -----------------


                      Basis "ao basis" -> "ao basis" (cartesian)
                      -----
  C (Carbon)
  ----------
            Exponent  Coefficients 
       -------------- ---------------------------------------------------------
  1 S  4.56324000E+03  0.001967
  1 S  6.82024000E+02  0.015231
  1 S  1.54973000E+02  0.076127
  1 S  4.44553000E+01  0.260801
  1 S  1.30290000E+01  0.616462
  1 S  1.82773000E+00  0.221006

  2 S  2.09642000E+01  0.114660
  2 S  4.80331000E+00  0.919999
  2 S  1.45933000E+00 -0.003031

  3 P  2.09642000E+01  0.040249
  3 P  4.80331000E+00  0.237594
  3 P  1.45933000E+00  0.815854

  4 S  4.83456000E-01  1.000000

  5 P  4.83456000E-01  1.000000

  6 S  1.45585000E-01  1.000000

  7 P  1.45585000E-01  1.000000

  8 S  4.38000000E-02  1.000000

  9 P  4.38000000E-02  1.000000

 10 D  2.50400000E+00  1.000000

 11 D  6.26000000E-01  1.000000

 12 D  1.56500000E-01  1.000000

 13 F  8.00000000E-01  1.000000

  H (Hydrogen)
  ------------
            Exponent  Coefficients 
       -------------- ---------------------------------------------------------
  1 S  3.38650000E+01  0.025494
  1 S  5.09479000E+00  0.190373
  1 S  1.15879000E+00  0.852161

  2 S  3.25840000E-01  1.000000

  3 S  1.02741000E-01  1.000000

  4 S  3.60000000E-02  1.000000

  5 P  3.00000000E+00  1.000000

  6 P  7.50000000E-01  1.000000

  7 P  1.87500000E-01  1.000000

  8 D  1.00000000E+00  1.000000



 Summary of "ao basis" -> "ao basis" (cartesian)
 ------------------------------------------------------------------------------
       Tag                 Description            Shells   Functions and Types
 ---------------- ------------------------------  ------  ---------------------
 C                     6-311++G(3df,3pd)            13       45   5s4p3d1f
 H                     6-311++G(3df,3pd)             8       19   4s3p1d




 Summary of "ao basis" -> "ao basis" (cartesian)
 ------------------------------------------------------------------------------
       Tag                 Description            Shells   Functions and Types
 ---------------- ------------------------------  ------  ---------------------
 C                     6-311++G(3df,3pd)            13       45   5s4p3d1f
 H                     6-311++G(3df,3pd)             8       19   4s3p1d


      Symmetry analysis of basis
      --------------------------

        ag         35
        au          9
        b1g        24
        b1u        15
        b2g         9
        b2u        35
        b3g        15
        b3u        24

  Caching 1-el integrals 

            General Information
            -------------------
          SCF calculation type: DFT
          Wavefunction type:  closed shell.
          No. of atoms     :     6
          No. of electrons :    16
           Alpha electrons :     8
            Beta electrons :     8
          Charge           :     0
          Spin multiplicity:     1
          Use of symmetry is: on ; symmetry adaption is: on 
          Maximum number of iterations: ***
          AO basis - number of functions:   166
                     number of shells:    58
          Convergence on energy requested: 1.00D-06
          Convergence on density requested: 1.00D-05
          Convergence on gradient requested: 5.00D-04

              XC Information
              --------------
                  TPSS metaGGA Exchange Functional  1.000          
             TPSS03 metaGGA Correlation Functional  1.000          

             Grid Information
             ----------------
          Grid used for XC integration:  medium    
          Radial quadrature: Mura-Knowles        
          Angular quadrature: Lebedev. 
          Tag              B.-S. Rad. Rad. Pts. Rad. Cut. Ang. Pts.
          ---              ---------- --------- --------- ---------
          C                   0.70       49          12.0       434
          H                   0.35       45          13.0       434
          Grid pruning is: on 
          Number of quadrature shells:    94
          Spatial weights used:  Erf1

          Convergence Information
          -----------------------
          Convergence aids based upon iterative change in 
          total energy or number of iterations. 
          Levelshifting, if invoked, occurs when the 
          HOMO/LUMO gap drops below (HL_TOL): 1.00D-02
          DIIS, if invoked, will attempt to extrapolate 
          using up to (NFOCK): 10 stored Fock matrices.

                    Damping( 0%)  Levelshifting(0.5)       DIIS
                  --------------- ------------------- ---------------
          dE  on:    start            ASAP                start   
          dE off:    2 iters        *** iters           *** iters 


      Screening Tolerance Information
      -------------------------------
          Density screening/tol_rho: 1.00D-10
          AO Gaussian exp screening on grid/accAOfunc:  14
          CD Gaussian exp screening on grid/accCDfunc:  20
          XC Gaussian exp screening on grid/accXCfunc:  20
          Schwarz screening/accCoul: 1.00D-08


      Superposition of Atomic Density Guess
      -------------------------------------

 Sum of atomic energies:         -77.33750841

      Non-variational initial energy
      ------------------------------

 Total energy =     -78.449926
 1-e energy   =    -167.883438
 2-e energy   =      56.118077
 HOMO         =      -0.347037
 LUMO         =      -0.010758


      Symmetry analysis of molecular orbitals - initial
      -------------------------------------------------

  Numbering of irreducible representations: 

     1 ag          2 au          3 b1g         4 b1u         5 b2g     
     6 b2u         7 b3g         8 b3u     

  Orbital symmetries:

     1 ag          2 b2u         3 ag          4 b2u         5 b3u     
     6 ag          7 b1g         8 b1u         9 b3g        10 ag      
    11 b2u        12 b3u        13 b1g        14 b1u        15 ag      
    16 ag         17 b3g        18 b2u     

   Time after variat. SCF:      1.2
   Time prior to 1st pass:      1.2

 Integral file          = ./C2H4.aoints.0
 Record size in doubles =    65536    No. of integs per rec  =    43688
 Max. records in memory =        0    Max. records in file   = ********
 No. of bits per label  =        8    No. of bits per value  =       64


 #quartets = 4.480D+05 #integrals = 1.411D+07 #direct =  0.0% #cached =100.0%


 Grid_pts file          = ./C2H4.gridpts.0
 Record size in doubles =  12289        No. of grid_pts per rec  =   3070
 Max. records in memory =     16        Max. recs in file   = 995267128


           Memory utilization after 1st SCF pass: 
           Heap Space remaining (MW):       12.85            12853164
          Stack Space remaining (MW):       13.11            13106196

   convergence    iter        energy       DeltaE   RMS-Dens  Diis-err    time
 ---------------- ----- ----------------- --------- --------- ---------  ------
 d= 0,ls=0.0,diis     1    -78.5879678098 -1.12D+02  2.65D-03  2.43D-01     6.3
 d= 0,ls=0.0,diis     2    -78.6064067751 -1.84D-02  8.05D-04  1.79D-02     7.7
 d= 0,ls=0.0,diis     3    -78.6072250648 -8.18D-04  3.20D-04  1.32D-02     9.2
 d= 0,ls=0.0,diis     4    -78.6087233583 -1.50D-03  6.07D-05  2.19D-04    10.7
 d= 0,ls=0.0,diis     5    -78.6087796739 -5.63D-05  7.12D-06  1.94D-06    12.2
  Resetting Diis
 d= 0,ls=0.0,diis     6    -78.6087786638  1.01D-06  8.36D-07  3.61D-09    13.7
 d= 0,ls=0.0,diis     7    -78.6087785847  7.91D-08  8.88D-08  5.86D-11    15.2


         Total DFT energy =      -78.608778584657
      One electron energy =     -170.159495687252
           Coulomb energy =       70.529210404976
          Exchange energy =      -11.779625352649
       Correlation energy =       -0.514302606691
 Nuclear repulsion energy =       33.315434656960

 Numeric. integr. density =       15.999998741381

     Total iterative time =     14.0s



                  Occupations of the irreducible representations
                  ----------------------------------------------

                     irrep           alpha         beta
                     --------     --------     --------
                     ag                3.0          3.0
                     au                0.0          0.0
                     b1g               1.0          1.0
                     b1u               1.0          1.0
                     b2g               0.0          0.0
                     b2u               2.0          2.0
                     b3g               0.0          0.0
                     b3u               1.0          1.0


                       DFT Final Molecular Orbital Analysis
                       ------------------------------------

 Vector    1  Occ=2.000000D+00  E=-1.001534D+01  Symmetry=ag
              MO Center= -3.1D-17,  6.6D-12, -4.3D-30, r^2= 4.7D-01
   Bfn.  Coefficient  Atom+Function         Bfn.  Coefficient  Atom+Function  
  ----- ------------  ---------------      ----- ------------  ---------------
     1      0.398691  1 C  s                 46      0.398691  2 C  s          
     2      0.328797  1 C  s                 47      0.328797  2 C  s          

 Vector    2  Occ=2.000000D+00  E=-1.001468D+01  Symmetry=b2u
              MO Center= -8.2D-18, -6.6D-12, -8.4D-19, r^2= 4.7D-01
   Bfn.  Coefficient  Atom+Function         Bfn.  Coefficient  Atom+Function  
  ----- ------------  ---------------      ----- ------------  ---------------
     1      0.398758  1 C  s                 46     -0.398758  2 C  s          
     2      0.328888  1 C  s                 47     -0.328888  2 C  s          

 Vector    3  Occ=2.000000D+00  E=-7.108758D-01  Symmetry=ag
              MO Center= -7.6D-18, -1.2D-16, -5.4D-33, r^2= 1.1D+00
   Bfn.  Coefficient  Atom+Function         Bfn.  Coefficient  Atom+Function  
  ----- ------------  ---------------      ----- ------------  ---------------
     6      0.361186  1 C  s                 51      0.361186  2 C  s          
    10      0.251766  1 C  s                 55      0.251766  2 C  s          

 Vector    4  Occ=2.000000D+00  E=-5.427674D-01  Symmetry=b2u
              MO Center=  7.6D-16,  1.5D-14,  4.4D-17, r^2= 2.1D+00
   Bfn.  Coefficient  Atom+Function         Bfn.  Coefficient  Atom+Function  
  ----- ------------  ---------------      ----- ------------  ---------------
     6      0.290593  1 C  s                 51     -0.290593  2 C  s          

 Vector    5  Occ=2.000000D+00  E=-4.343132D-01  Symmetry=b3u
              MO Center=  6.7D-15,  4.8D-15, -1.9D-17, r^2= 1.9D+00
   Bfn.  Coefficient  Atom+Function         Bfn.  Coefficient  Atom+Function  
  ----- ------------  ---------------      ----- ------------  ---------------
     7      0.192014  1 C  px                52      0.192014  2 C  px         
     3      0.152234  1 C  px                48      0.152234  2 C  px         

 Vector    6  Occ=2.000000D+00  E=-3.814332D-01  Symmetry=ag
              MO Center= -5.6D-15, -1.5D-14, -7.6D-31, r^2= 1.7D+00
   Bfn.  Coefficient  Atom+Function         Bfn.  Coefficient  Atom+Function  
  ----- ------------  ---------------      ----- ------------  ---------------
     8      0.237933  1 C  py                53     -0.237933  2 C  py         
     4      0.196759  1 C  py                49     -0.196759  2 C  py         

 Vector    7  Occ=2.000000D+00  E=-3.275549D-01  Symmetry=b1g
              MO Center= -8.8D-16, -5.3D-15, -2.8D-31, r^2= 2.4D+00
   Bfn.  Coefficient  Atom+Function         Bfn.  Coefficient  Atom+Function  
  ----- ------------  ---------------      ----- ------------  ---------------
    92      0.191677  3 H  s                111     -0.191677  4 H  s          
   130     -0.191677  5 H  s                149      0.191677  6 H  s          
     7      0.178021  1 C  px                52     -0.178021  2 C  px         

 Vector    8  Occ=2.000000D+00  E=-2.495176D-01  Symmetry=b1u
              MO Center= -1.3D-16,  1.0D-16, -6.8D-16, r^2= 1.5D+00
   Bfn.  Coefficient  Atom+Function         Bfn.  Coefficient  Atom+Function  
  ----- ------------  ---------------      ----- ------------  ---------------
     9      0.265867  1 C  pz                54      0.265867  2 C  pz         
    13      0.221636  1 C  pz                58      0.221636  2 C  pz         
     5      0.184892  1 C  pz                50      0.184892  2 C  pz         

 Vector    9  Occ=0.000000D+00  E=-3.232425D-02  Symmetry=b3g
              MO Center=  5.6D-16,  4.4D-15,  6.7D-15, r^2= 3.1D+00
   Bfn.  Coefficient  Atom+Function         Bfn.  Coefficient  Atom+Function  
  ----- ------------  ---------------      ----- ------------  ---------------
    17      0.531464  1 C  pz                62     -0.531464  2 C  pz         
    13      0.346447  1 C  pz                58     -0.346447  2 C  pz         
     9      0.271552  1 C  pz                54     -0.271552  2 C  pz         
     5      0.183356  1 C  pz                50     -0.183356  2 C  pz         

 Vector   10  Occ=0.000000D+00  E=-1.364483D-02  Symmetry=ag
              MO Center= -1.6D-16, -1.6D-15,  1.5D-16, r^2= 1.4D+01
   Bfn.  Coefficient  Atom+Function         Bfn.  Coefficient  Atom+Function  
  ----- ------------  ---------------      ----- ------------  ---------------
    14      1.686122  1 C  s                 59      1.686122  2 C  s          
    94     -1.123217  3 H  s                113     -1.123217  4 H  s          
   132     -1.123217  5 H  s                151     -1.123217  6 H  s          
    16      0.302105  1 C  py                61     -0.302105  2 C  py         
    93      0.202242  3 H  s                112      0.202242  4 H  s          

 Vector   11  Occ=0.000000D+00  E= 4.463323D-03  Symmetry=b2u
              MO Center= -4.5D-13, -6.4D-14, -6.4D-15, r^2= 1.6D+01
   Bfn.  Coefficient  Atom+Function         Bfn.  Coefficient  Atom+Function  
  ----- ------------  ---------------      ----- ------------  ---------------
    14      5.331420  1 C  s                 59     -5.331420  2 C  s          
    94     -1.804482  3 H  s                113     -1.804482  4 H  s          
   132      1.804482  5 H  s                151      1.804482  6 H  s          
    10      0.520707  1 C  s                 55     -0.520707  2 C  s          
    16     -0.363907  1 C  py                61     -0.363907  2 C  py         

 Vector   12  Occ=0.000000D+00  E= 7.328337D-03  Symmetry=b3u
              MO Center= -4.9D-15,  1.4D-15, -5.3D-27, r^2= 1.5D+01
   Bfn.  Coefficient  Atom+Function         Bfn.  Coefficient  Atom+Function  
  ----- ------------  ---------------      ----- ------------  ---------------
    94      2.043744  3 H  s                113     -2.043744  4 H  s          
   132      2.043744  5 H  s                151     -2.043744  6 H  s          
    15     -0.752419  1 C  px                60     -0.752419  2 C  px         
    31      0.163895  1 C  dxy               76     -0.163895  2 C  dxy        
    93     -0.160792  3 H  s                112      0.160792  4 H  s          

 Vector   13  Occ=0.000000D+00  E= 3.841866D-02  Symmetry=b1g
              MO Center=  5.6D-13,  4.4D-14, -7.3D-28, r^2= 2.2D+01
   Bfn.  Coefficient  Atom+Function         Bfn.  Coefficient  Atom+Function  
  ----- ------------  ---------------      ----- ------------  ---------------
    94     -6.957444  3 H  s                113      6.957444  4 H  s          
   132      6.957444  5 H  s                151     -6.957444  6 H  s          
    15      6.492824  1 C  px                60     -6.492824  2 C  px         
    93     -1.182437  3 H  s                112      1.182437  4 H  s          
   131      1.182437  5 H  s                150     -1.182437  6 H  s          

 Vector   14  Occ=0.000000D+00  E= 5.281220D-02  Symmetry=b1u
              MO Center= -2.5D-18, -5.0D-15,  2.8D-28, r^2= 9.9D+00
   Bfn.  Coefficient  Atom+Function         Bfn.  Coefficient  Atom+Function  
  ----- ------------  ---------------      ----- ------------  ---------------
    17      0.635077  1 C  pz                62      0.635077  2 C  pz         
    13     -0.294793  1 C  pz                58     -0.294793  2 C  pz         

 Vector   15  Occ=0.000000D+00  E= 6.422479D-02  Symmetry=ag
              MO Center= -2.2D-14, -1.2D-12, -8.9D-16, r^2= 1.2D+01
   Bfn.  Coefficient  Atom+Function         Bfn.  Coefficient  Atom+Function  
  ----- ------------  ---------------      ----- ------------  ---------------
    14      2.056129  1 C  s                 59      2.056129  2 C  s          
    16      1.950182  1 C  py                61     -1.950182  2 C  py         
    10      1.191357  1 C  s                 55      1.191357  2 C  s          
    93     -1.116382  3 H  s                112     -1.116382  4 H  s          
   131     -1.116382  5 H  s                150     -1.116382  6 H  s          

 Vector   16  Occ=0.000000D+00  E= 9.045170D-02  Symmetry=ag
              MO Center=  2.8D-14,  8.2D-15,  1.9D-16, r^2= 1.1D+01
   Bfn.  Coefficient  Atom+Function         Bfn.  Coefficient  Atom+Function  
  ----- ------------  ---------------      ----- ------------  ---------------
    14      5.803964  1 C  s                 59      5.803964  2 C  s          
    10      2.049657  1 C  s                 55      2.049657  2 C  s          
    93     -2.040662  3 H  s                112     -2.040662  4 H  s          
   131     -2.040662  5 H  s                150     -2.040662  6 H  s          
    94     -1.823362  3 H  s                113     -1.823362  4 H  s          

 Vector   17  Occ=0.000000D+00  E= 1.045400D-01  Symmetry=b3g
              MO Center=  1.7D-18,  3.4D-17, -7.6D-16, r^2= 1.2D+01
   Bfn.  Coefficient  Atom+Function         Bfn.  Coefficient  Atom+Function  
  ----- ------------  ---------------      ----- ------------  ---------------
    17      2.181586  1 C  pz                62     -2.181586  2 C  pz         
    13     -0.419308  1 C  pz                58      0.419308  2 C  pz         

 Vector   18  Occ=0.000000D+00  E= 1.134469D-01  Symmetry=b2u
              MO Center= -1.6D-13,  5.5D-13,  3.1D-18, r^2= 1.6D+01
   Bfn.  Coefficient  Atom+Function         Bfn.  Coefficient  Atom+Function  
  ----- ------------  ---------------      ----- ------------  ---------------
    14     21.225532  1 C  s                 59    -21.225532  2 C  s          
    16    -10.043809  1 C  py                61    -10.043809  2 C  py         
    94      4.098812  3 H  s                113      4.098812  4 H  s          
   132     -4.098812  5 H  s                151     -4.098812  6 H  s          
    10     -1.167321  1 C  s                 55      1.167321  2 C  s          

 Vector   19  Occ=0.000000D+00  E= 1.264884D-01  Symmetry=ag
              MO Center= -1.5D-15,  5.3D-15,  9.1D-17, r^2= 1.2D+01
   Bfn.  Coefficient  Atom+Function         Bfn.  Coefficient  Atom+Function  
  ----- ------------  ---------------      ----- ------------  ---------------
    14      2.607321  1 C  s                 59      2.607321  2 C  s          
    10     -2.339580  1 C  s                 55     -2.339580  2 C  s          
    93      1.959177  3 H  s                112      1.959177  4 H  s          
   131      1.959177  5 H  s                150      1.959177  6 H  s          
    94     -1.565658  3 H  s                113     -1.565658  4 H  s          

 Vector   20  Occ=0.000000D+00  E= 1.274188D-01  Symmetry=b3u
              MO Center=  1.2D-13, -1.1D-14,  2.8D-29, r^2= 1.5D+01
   Bfn.  Coefficient  Atom+Function         Bfn.  Coefficient  Atom+Function  
  ----- ------------  ---------------      ----- ------------  ---------------
    94      4.410506  3 H  s                113     -4.410506  4 H  s          
   132      4.410506  5 H  s                151     -4.410506  6 H  s          
    15     -3.424633  1 C  px                60     -3.424633  2 C  px         
    93      1.032748  3 H  s                112     -1.032748  4 H  s          
   131      1.032748  5 H  s                150     -1.032748  6 H  s          

 Vector   21  Occ=0.000000D+00  E= 1.335383D-01  Symmetry=b2u
              MO Center= -1.7D-14,  1.1D-12,  5.7D-16, r^2= 1.5D+01
   Bfn.  Coefficient  Atom+Function         Bfn.  Coefficient  Atom+Function  
  ----- ------------  ---------------      ----- ------------  ---------------
    14     37.804762  1 C  s                 59    -37.804762  2 C  s          
    16     -8.132038  1 C  py                61     -8.132038  2 C  py         
    94     -1.818264  3 H  s                113     -1.818264  4 H  s          
   132      1.818264  5 H  s                151      1.818264  6 H  s          
    35     -0.611510  1 C  dzz               80      0.611510  2 C  dzz        

 Vector   22  Occ=0.000000D+00  E= 1.427044D-01  Symmetry=b3u
              MO Center= -1.3D-13, -8.5D-13, -1.6D-16, r^2= 7.5D+00
   Bfn.  Coefficient  Atom+Function         Bfn.  Coefficient  Atom+Function  
  ----- ------------  ---------------      ----- ------------  ---------------
    93      3.014469  3 H  s                112     -3.014469  4 H  s          
   131      3.014469  5 H  s                150     -3.014469  6 H  s          
    11     -1.745863  1 C  px                56     -1.745863  2 C  px         
    15     -1.494859  1 C  px                60     -1.494859  2 C  px         
    31     -0.617625  1 C  dxy               76      0.617625  2 C  dxy        

 Vector   23  Occ=0.000000D+00  E= 1.522351D-01  Symmetry=b1g
              MO Center=  5.5D-12,  6.7D-13,  4.5D-17, r^2= 1.9D+01
   Bfn.  Coefficient  Atom+Function         Bfn.  Coefficient  Atom+Function  
  ----- ------------  ---------------      ----- ------------  ---------------
    15     16.466783  1 C  px                60    -16.466783  2 C  px         
    94    -11.840662  3 H  s                113     11.840662  4 H  s          
   132     11.840662  5 H  s                151    -11.840662  6 H  s          
    93     -3.610544  3 H  s                112      3.610544  4 H  s          
   131      3.610544  5 H  s                150     -3.610544  6 H  s          

 Vector   24  Occ=0.000000D+00  E= 1.682267D-01  Symmetry=b2u
              MO Center= -5.2D-12, -8.9D-13, -1.9D-16, r^2= 1.0D+01
   Bfn.  Coefficient  Atom+Function         Bfn.  Coefficient  Atom+Function  
  ----- ------------  ---------------      ----- ------------  ---------------
    14     31.168888  1 C  s                 59    -31.168888  2 C  s          
    16     -5.719248  1 C  py                61     -5.719248  2 C  py         
    93     -4.748023  3 H  s                112     -4.748023  4 H  s          
   131      4.748023  5 H  s                150      4.748023  6 H  s          
    12      3.074168  1 C  py                57      3.074168  2 C  py         

 Vector   25  Occ=0.000000D+00  E= 2.488437D-01  Symmetry=b2g
              MO Center=  1.2D-16, -4.7D-17,  7.3D-18, r^2= 3.8D+00
   Bfn.  Coefficient  Atom+Function         Bfn.  Coefficient  Atom+Function  
  ----- ------------  ---------------      ----- ------------  ---------------
    32      0.546285  1 C  dxz               77      0.546285  2 C  dxz        
   103      0.255655  3 H  pz               122     -0.255655  4 H  pz         
   141      0.255655  5 H  pz               160     -0.255655  6 H  pz         

 Vector   26  Occ=0.000000D+00  E= 3.061156D-01  Symmetry=ag
              MO Center= -8.9D-14, -3.5D-12, -1.1D-15, r^2= 8.0D+00
   Bfn.  Coefficient  Atom+Function         Bfn.  Coefficient  Atom+Function  
  ----- ------------  ---------------      ----- ------------  ---------------
    10      4.799534  1 C  s                 55      4.799534  2 C  s          
    93     -3.826573  3 H  s                112     -3.826573  4 H  s          
   131     -3.826573  5 H  s                150     -3.826573  6 H  s          
    14      3.253031  1 C  s                 59      3.253031  2 C  s          
    12      1.609481  1 C  py                57     -1.609481  2 C  py         

 Vector   27  Occ=0.000000D+00  E= 3.082028D-01  Symmetry=b1g
              MO Center= -1.0D-12, -8.3D-14,  1.1D-27, r^2= 1.3D+01
   Bfn.  Coefficient  Atom+Function         Bfn.  Coefficient  Atom+Function  
  ----- ------------  ---------------      ----- ------------  ---------------
    15     18.634784  1 C  px                60    -18.634784  2 C  px         
    94    -10.250315  3 H  s                113     10.250315  4 H  s          
   132     10.250315  5 H  s                151    -10.250315  6 H  s          
    93     -8.631051  3 H  s                112      8.631051  4 H  s          
   131      8.631051  5 H  s                150     -8.631051  6 H  s          

 Vector   28  Occ=0.000000D+00  E= 3.270139D-01  Symmetry=b2u
              MO Center= -1.5D-13,  4.1D-12, -1.6D-17, r^2= 6.1D+00
   Bfn.  Coefficient  Atom+Function         Bfn.  Coefficient  Atom+Function  
  ----- ------------  ---------------      ----- ------------  ---------------
    14      9.922628  1 C  s                 59     -9.922628  2 C  s          
    16     -5.407501  1 C  py                61     -5.407501  2 C  py         
    93      1.985638  3 H  s                112      1.985638  4 H  s          
   131     -1.985638  5 H  s                150     -1.985638  6 H  s          
    94      1.973065  3 H  s                113      1.973065  4 H  s          

 Vector   29  Occ=0.000000D+00  E= 3.283227D-01  Symmetry=b3u
              MO Center=  6.0D-13,  1.4D-13, -2.7D-17, r^2= 8.0D+00
   Bfn.  Coefficient  Atom+Function         Bfn.  Coefficient  Atom+Function  
  ----- ------------  ---------------      ----- ------------  ---------------
    93      5.289205  3 H  s                112     -5.289205  4 H  s          
   131      5.289205  5 H  s                150     -5.289205  6 H  s          
    11     -3.292158  1 C  px                56     -3.292158  2 C  px         
    15     -2.493280  1 C  px                60     -2.493280  2 C  px         
    31     -1.757027  1 C  dxy               76      1.757027  2 C  dxy        

 Vector   30  Occ=0.000000D+00  E= 3.480836D-01  Symmetry=ag
              MO Center= -6.7D-13, -4.1D-13,  1.3D-16, r^2= 6.5D+00
   Bfn.  Coefficient  Atom+Function         Bfn.  Coefficient  Atom+Function  
  ----- ------------  ---------------      ----- ------------  ---------------
    14      3.397088  1 C  s                 59      3.397088  2 C  s          
    10      3.106763  1 C  s                 55      3.106763  2 C  s          
    93     -1.891072  3 H  s                112     -1.891072  4 H  s          
   131     -1.891072  5 H  s                150     -1.891072  6 H  s          
    35     -1.121860  1 C  dzz               80     -1.121860  2 C  dzz        

 Vector   31  Occ=0.000000D+00  E= 3.751073D-01  Symmetry=au
              MO Center= -4.4D-16, -1.8D-16, -1.6D-16, r^2= 4.9D+00
   Bfn.  Coefficient  Atom+Function         Bfn.  Coefficient  Atom+Function  
  ----- ------------  ---------------      ----- ------------  ---------------
   103      0.723388  3 H  pz               122     -0.723388  4 H  pz         
   141     -0.723388  5 H  pz               160      0.723388  6 H  pz         
    32     -0.203809  1 C  dxz               77      0.203809  2 C  dxz        

 Vector   32  Occ=0.000000D+00  E= 3.848315D-01  Symmetry=b1u
              MO Center= -9.1D-18,  6.3D-16,  1.5D-15, r^2= 5.0D+00
   Bfn.  Coefficient  Atom+Function         Bfn.  Coefficient  Atom+Function  
  ----- ------------  ---------------      ----- ------------  ---------------
    34      0.834413  1 C  dyz               79     -0.834413  2 C  dyz        
   103      0.353619  3 H  pz               122      0.353619  4 H  pz         
   141      0.353619  5 H  pz               160      0.353619  6 H  pz         
    17     -0.288625  1 C  pz                62     -0.288625  2 C  pz         
     9     -0.164288  1 C  pz                54     -0.164288  2 C  pz         

 Vector   33  Occ=0.000000D+00  E= 3.939239D-01  Symmetry=b2u
              MO Center= -4.4D-13, -1.7D-12, -5.3D-17, r^2= 7.4D+00
   Bfn.  Coefficient  Atom+Function         Bfn.  Coefficient  Atom+Function  
  ----- ------------  ---------------      ----- ------------  ---------------
    14     21.106728  1 C  s                 59    -21.106728  2 C  s          
    10      7.214410  1 C  s                 55     -7.214410  2 C  s          
    93     -6.021736  3 H  s                112     -6.021736  4 H  s          
   131      6.021736  5 H  s                150      6.021736  6 H  s          
    16     -3.582928  1 C  py                61     -3.582928  2 C  py         

 Vector   34  Occ=0.000000D+00  E= 4.619818D-01  Symmetry=ag
              MO Center=  5.3D-13, -1.4D-12, -2.3D-15, r^2= 7.9D+00
   Bfn.  Coefficient  Atom+Function         Bfn.  Coefficient  Atom+Function  
  ----- ------------  ---------------      ----- ------------  ---------------
    10      3.264643  1 C  s                 55      3.264643  2 C  s          
    14     -2.764700  1 C  s                 59     -2.764700  2 C  s          
    93     -2.698798  3 H  s                112     -2.698798  4 H  s          
   131     -2.698798  5 H  s                150     -2.698798  6 H  s          
    30      1.520150  1 C  dxx               75      1.520150  2 C  dxx        

 Vector   35  Occ=0.000000D+00  E= 4.795212D-01  Symmetry=b3u
              MO Center= -3.2D-13,  6.0D-14, -3.3D-17, r^2= 7.1D+00
   Bfn.  Coefficient  Atom+Function         Bfn.  Coefficient  Atom+Function  
  ----- ------------  ---------------      ----- ------------  ---------------
    93      1.896879  3 H  s                112     -1.896879  4 H  s          
   131      1.896879  5 H  s                150     -1.896879  6 H  s          
    94     -1.711322  3 H  s                113      1.711322  4 H  s          
   132     -1.711322  5 H  s                151      1.711322  6 H  s          
    11     -1.414931  1 C  px                56     -1.414931  2 C  px         

 Vector   36  Occ=0.000000D+00  E= 4.848447D-01  Symmetry=b2u
              MO Center=  3.2D-13,  2.3D-12,  2.2D-17, r^2= 8.8D+00
   Bfn.  Coefficient  Atom+Function         Bfn.  Coefficient  Atom+Function  
  ----- ------------  ---------------      ----- ------------  ---------------
    14     18.247902  1 C  s                 59    -18.247902  2 C  s          
    10     13.725120  1 C  s                 55    -13.725120  2 C  s          
    12     -7.992370  1 C  py                57     -7.992370  2 C  py         
    35     -2.456433  1 C  dzz               80      2.456433  2 C  dzz        
    30     -2.423481  1 C  dxx               75      2.423481  2 C  dxx        

 Vector   37  Occ=0.000000D+00  E= 5.102071D-01  Symmetry=b3g
              MO Center=  4.3D-16,  1.3D-14,  8.7D-17, r^2= 5.6D+00
   Bfn.  Coefficient  Atom+Function         Bfn.  Coefficient  Atom+Function  
  ----- ------------  ---------------      ----- ------------  ---------------
    34     -1.804164  1 C  dyz               79     -1.804164  2 C  dyz        
    13      1.692821  1 C  pz                58     -1.692821  2 C  pz         
    17      1.173364  1 C  pz                62     -1.173364  2 C  pz         
   103     -0.571914  3 H  pz               122     -0.571914  4 H  pz         
   141      0.571914  5 H  pz               160      0.571914  6 H  pz         


 center of mass
 --------------
 x =   0.00000000 y =   0.00000000 z =   0.00000000

 moments of inertia (a.u.)
 ------------------
          60.207373866826           0.000000000000           0.000000000000
           0.000000000000          12.305090334698           0.000000000000
           0.000000000000           0.000000000000          72.512464201524

     Multipole analysis of the density
     ---------------------------------

     L   x y z        total         alpha         beta         nuclear
     -   - - -        -----         -----         ----         -------
     0   0 0 0     -0.000000     -8.000000     -8.000000     16.000000

     1   1 0 0     -0.000000     -0.000000     -0.000000      0.000000
     1   0 1 0      0.000000      0.000000      0.000000      0.000000
     1   0 0 1      0.000000      0.000000      0.000000      0.000000

     2   2 0 0     -9.318261    -10.763906    -10.763906     12.209551
     2   1 1 0     -0.000000     -0.000000     -0.000000      0.000000
     2   1 0 1      0.000000      0.000000      0.000000      0.000000
     2   0 2 0     -9.251094    -25.080747    -25.080747     40.910399
     2   0 1 1      0.000000      0.000000      0.000000      0.000000
     2   0 0 2    -11.705650     -5.852825     -5.852825      0.000000


------------------------------------------------------------
EAF file 0: "./C2H4.aoints.0" size=169345024 bytes
------------------------------------------------------------
               write      read    awrite     aread      wait
               -----      ----    ------     -----      ----
     calls:      323         6         0      1932      1932
   data(b): 1.69e+08  3.15e+06  0.00e+00  1.01e+09
   time(s): 0.00e+00  0.00e+00  0.00e+00  0.00e+00  0.00e+00
rate(mb/s): 0.00e+00  0.00e+00
------------------------------------------------------------


 Parallel integral file used     323 records with       0 large values


 Task  times  cpu:       15.4s     wall:       17.0s


                                NWChem Input Module
                                -------------------


 Summary of allocated global arrays
-----------------------------------
  No active global arrays



                         GA Statistics for process    0
                         ------------------------------

       create   destroy   get      put      acc     scatter   gather  read&inc
calls:  227      227     4.81e+04 1.78e+04 1.14e+04    0        0     1182     
number of processes/call 1.00e+00 1.00e+00 1.00e+00 0.00e+00 0.00e+00
bytes total:             1.82e+08 5.49e+07 1.02e+08 0.00e+00 0.00e+00 9.46e+03
bytes remote:            0.00e+00 0.00e+00 0.00e+00 0.00e+00 0.00e+00 0.00e+00
Max memory consumed for GA by this process: 8597472 bytes

MA_summarize_allocated_blocks: starting scan ...
MA_summarize_allocated_blocks: scan completed: 0 heap blocks, 0 stack blocks
MA usage statistics:

	allocation statistics:
					      heap	     stack
					      ----	     -----
	current number of blocks	         0	         0
	maximum number of blocks	        23	        55
	current total bytes		         0	         0
	maximum total bytes		   2031768	  22516904
	maximum total K-bytes		      2032	     22517
	maximum total M-bytes		         3	        23


                                     CITATION
                                     --------
                Please cite the following reference when publishing
                           results obtained with NWChem:

                 M. Valiev, E.J. Bylaska, N. Govind, K. Kowalski,
              T.P. Straatsma, H.J.J. van Dam, D. Wang, J. Nieplocha,
                        E. Apra, T.L. Windus, W.A. de Jong
                 "NWChem: a comprehensive and scalable open-source
                  solution for large scale molecular simulations"
                      Comput. Phys. Commun. 181, 1477 (2010)
                           doi:10.1016/j.cpc.2010.04.018

                                      AUTHORS
                                      -------
          E. Apra, E. J. Bylaska, W. A. de Jong, N. Govind, K. Kowalski,
       T. P. Straatsma, M. Valiev, H. J. J. van Dam, D. Wang, T. L. Windus,
        J. Hammond, J. Autschbach, K. Bhaskaran-Nair, J. Brabec, K. Lopata,
       S. A. Fischer, S. Krishnamoorthy, W. Ma, M. Klemm, O. Villa, Y. Chen,
    V. Anisimov, F. Aquino, S. Hirata, M. T. Hackler, T. Risthaus, M. Malagoli,
       A. Marenich, A. Otero-de-la-Roza, J. Mullin, P. Nichols, R. Peverati,
     J. Pittner, Y. Zhao, P.-D. Fan, A. Fonari, M. Williamson, R. J. Harrison,
       J. R. Rehr, M. Dupuis, D. Silverstein, D. M. A. Smith, J. Nieplocha,
        V. Tipparaju, M. Krishnan, B. E. Van Kuiken, A. Vazquez-Mayagoitia,
        L. Jensen, M. Swart, Q. Wu, T. Van Voorhis, A. A. Auer, M. Nooijen,
      L. D. Crosby, E. Brown, G. Cisneros, G. I. Fann, H. Fruchtl, J. Garza,
        K. Hirao, R. A. Kendall, J. A. Nichols, K. Tsemekhman, K. Wolinski,
     J. Anchell, D. E. Bernholdt, P. Borowski, T. Clark, D. Clerc, H. Dachsel,
   M. J. O. Deegan, K. Dyall, D. Elwood, E. Glendening, M. Gutowski, A. C. Hess,
         J. Jaffe, B. G. Johnson, J. Ju, R. Kobayashi, R. Kutteh, Z. Lin,
   R. Littlefield, X. Long, B. Meng, T. Nakajima, S. Niu, L. Pollack, M. Rosing,
   K. Glaesemann, G. Sandrone, M. Stave, H. Taylor, G. Thomas, J. H. van Lenthe,
                               A. T. Wong, Z. Zhang.

 Total times  cpu:       15.5s     wall:       17.2s
