[1537886182.340962] [r8n3:31149:0]         sys.c:744  MXM  WARN  Conflicting CPU frequencies detected, using: 2499.99
[1537886182.347272] [r8n3:31149:0]         mxm.c:196  MXM  WARN  The 'ulimit -s' on the system is set to 'unlimited'. This may have negative performance implications. Please set the stack size to the default value (10240) 
[1537886182.349283] [r8n3:31149:0]         mxm.c:196  MXM  WARN  The 'ulimit -s' on the system is set to 'unlimited'. This may have negative performance implications. Please set the stack size to the default value (10240) 
 argument  1 = /storage/home/bikashp/nwchem_run/rabeet/hb6/nwrevtpss/CH4-CH4.nw
                                         
                                         


              Northwest Computational Chemistry Package (NWChem) 6.6
              ------------------------------------------------------


                    Environmental Molecular Sciences Laboratory
                       Pacific Northwest National Laboratory
                                Richland, WA 99352

                              Copyright (c) 1994-2015
                       Pacific Northwest National Laboratory
                            Battelle Memorial Institute

             NWChem is an open-source computational chemistry package
                        distributed under the terms of the
                      Educational Community License (ECL) 2.0
             A copy of the license is included with this distribution
                              in the LICENSE.TXT file

                                  ACKNOWLEDGMENT
                                  --------------

            This software and its documentation were developed at the
            EMSL at Pacific Northwest National Laboratory, a multiprogram
            national laboratory, operated for the U.S. Department of Energy
            by Battelle under Contract Number DE-AC05-76RL01830. Support
            for this work was provided by the Department of Energy Office
            of Biological and Environmental Research, Office of Basic
            Energy Sciences, and the Office of Advanced Scientific Computing.


           Job information
           ---------------

    hostname        = r8n3.niserhpc.org
    program         = /home/bikashp/Code/nwchem-6.6_revtpss/bin/LINUX64/nwchem
    date            = Tue Sep 25 20:06:22 2018

    compiled        = Tue_Sep_25_17:05:19_2018
    source          = /home/bikashp/Code/nwchem-6.6_revtpss
    nwchem branch   = 6.6
    nwchem revision = 27746
    ga revision     = 10594
    input           = /storage/home/bikashp/nwchem_run/rabeet/hb6/nwrevtpss/CH4-CH4.nw
    prefix          = CH4-CH4.
    data base       = ./CH4-CH4.db
    status          = startup
    nproc           =        1
    time left       =     -1s



           Memory information
           ------------------

    heap     =   13107196 doubles =    100.0 Mbytes
    stack    =   13107201 doubles =    100.0 Mbytes
    global   =   26214400 doubles =    200.0 Mbytes (distinct from heap & stack)
    total    =   52428797 doubles =    400.0 Mbytes
    verify   = yes
    hardfail = no 


           Directory information
           ---------------------

  0 permanent = .
  0 scratch   = .




                                NWChem Input Module
                                -------------------



 Scaling coordinates for geometry "geometry" by  1.889725989
 (inverse scale =  0.529177249)

 D3D symmetry detected

          ------
          auto-z
          ------
  autoz: The atoms group into disjoint clusters
 cluster   1:    1    2    3    4    5
 cluster   2:    6    7    8    9   10
 Clusters   1   2 closest atoms are    2    7 r = 3.06 ... close but too far?
     1 autoz failed with cvr_scaling = 1.2 changing to 1.3
  autoz: The atoms group into disjoint clusters
 cluster   1:    1    2    3    4    5
 cluster   2:    6    7    8    9   10
 Connecting clusters   1   2 via atoms    2    7 r = 3.06
  autoz: regenerating connections with new bonds


                             Geometry "geometry" -> ""
                             -------------------------

 Output coordinates in angstroms (scale by  1.889725989 to convert to a.u.)

  No.       Tag          Charge          X              Y              Z
 ---- ---------------- ---------- -------------- -------------- --------------
    1 C                    6.0000     0.00000000     0.00000000     1.80728000
    2 H                    1.0000    -0.72594561     0.72594561     1.44240000
    3 H                    1.0000    -0.26571453    -0.99166014     1.44240000
    4 H                    1.0000     0.00000000     0.00000000     2.89684000
    5 H                    1.0000     0.99166014     0.26571453     1.44240000
    6 C                    6.0000     0.00000000     0.00000000    -1.80728000
    7 H                    1.0000     0.26571453     0.99166014    -1.44240000
    8 H                    1.0000     0.00000000     0.00000000    -2.89684000
    9 H                    1.0000    -0.99166014    -0.26571453    -1.44240000
   10 H                    1.0000     0.72594561    -0.72594561    -1.44240000

      Atomic Mass 
      ----------- 

      C                 12.000000
      H                  1.007825


 Effective nuclear repulsion energy (a.u.)      41.3806344479

            Nuclear Dipole moment (a.u.) 
            ----------------------------
        X                 Y               Z
 ---------------- ---------------- ----------------
    -0.0000000000     0.0000000000     0.0000000000

      Symmetry information
      --------------------

 Group name             D3d       
 Group number             33
 Group order              12
 No. of unique centers     3

      Symmetry unique atoms

     1    2    4



                                Z-matrix (autoz)
                                -------- 

 Units are Angstrom for bonds and degrees for angles

      Type          Name      I     J     K     L     M      Value
      ----------- --------  ----- ----- ----- ----- ----- ----------
    1 Stretch                  1     2                       1.08956
    2 Stretch                  1     3                       1.08956
    3 Stretch                  1     4                       1.08956
    4 Stretch                  1     5                       1.08956
    5 Stretch                  2     7                       3.06204
    6 Stretch                  6     7                       1.08956
    7 Stretch                  6     8                       1.08956
    8 Stretch                  6     9                       1.08956
    9 Stretch                  6    10                       1.08956
   10 Bend                     1     2     7                99.06439
   11 Bend                     2     7     6                99.06439
   12 Bend                     2     1     3               109.37650
   13 Bend                     2     1     4               109.56578
   14 Bend                     2     1     5               109.37650
   15 Bend                     3     1     4               109.56578
   16 Bend                     3     1     5               109.37650
   17 Bend                     4     1     5               109.56578
   18 Bend                     7     6     8               109.56578
   19 Bend                     7     6     9               109.37650
   20 Bend                     7     6    10               109.37650
   21 Bend                     8     6     9               109.56578
   22 Bend                     8     6    10               109.56578
   23 Bend                     9     6    10               109.37650
   24 Torsion                  1     2     7     6          68.55115
   25 Torsion                  2     7     6     8         162.90040
   26 Torsion                  2     7     6     9          42.78476
   27 Torsion                  2     7     6    10         -76.98396
   28 Torsion                  3     1     2     7         -76.98396
   29 Torsion                  4     1     2     7         162.90040
   30 Torsion                  5     1     2     7          42.78476


            XYZ format geometry
            -------------------
    10
 geometry
 C                     0.00000000     0.00000000     1.80728000
 H                    -0.72594561     0.72594561     1.44240000
 H                    -0.26571453    -0.99166014     1.44240000
 H                     0.00000000     0.00000000     2.89684000
 H                     0.99166014     0.26571453     1.44240000
 C                     0.00000000     0.00000000    -1.80728000
 H                     0.26571453     0.99166014    -1.44240000
 H                     0.00000000     0.00000000    -2.89684000
 H                    -0.99166014    -0.26571453    -1.44240000
 H                     0.72594561    -0.72594561    -1.44240000

 ==============================================================================
                                internuclear distances
 ------------------------------------------------------------------------------
       center one      |      center two      | atomic units |  angstroms
 ------------------------------------------------------------------------------
    2 H                |   1 C                |     2.05896  |     1.08956
    3 H                |   1 C                |     2.05896  |     1.08956
    4 H                |   1 C                |     2.05897  |     1.08956
    5 H                |   1 C                |     2.05896  |     1.08956
    7 H                |   6 C                |     2.05896  |     1.08956
    8 H                |   6 C                |     2.05897  |     1.08956
    9 H                |   6 C                |     2.05896  |     1.08956
   10 H                |   6 C                |     2.05896  |     1.08956
 ------------------------------------------------------------------------------
                         number of included internuclear distances:          8
 ==============================================================================



 ==============================================================================
                                 internuclear angles
 ------------------------------------------------------------------------------
        center 1       |       center 2       |       center 3       |  degrees
 ------------------------------------------------------------------------------
    2 H                |   1 C                |   3 H                |   109.38
    2 H                |   1 C                |   4 H                |   109.57
    2 H                |   1 C                |   5 H                |   109.38
    3 H                |   1 C                |   4 H                |   109.57
    3 H                |   1 C                |   5 H                |   109.38
    4 H                |   1 C                |   5 H                |   109.57
    7 H                |   6 C                |   8 H                |   109.57
    7 H                |   6 C                |   9 H                |   109.38
    7 H                |   6 C                |  10 H                |   109.38
    8 H                |   6 C                |   9 H                |   109.57
    8 H                |   6 C                |  10 H                |   109.57
    9 H                |   6 C                |  10 H                |   109.38
 ------------------------------------------------------------------------------
                            number of included internuclear angles:         12
 ==============================================================================





 Summary of "ao basis" -> "" (cartesian)
 ------------------------------------------------------------------------------
       Tag                 Description            Shells   Functions and Types
 ---------------- ------------------------------  ------  ---------------------
 *                     6-311++G(3df,3pd)              on all atoms 



                                 NWChem DFT Module
                                 -----------------


                      Basis "ao basis" -> "ao basis" (cartesian)
                      -----
  C (Carbon)
  ----------
            Exponent  Coefficients 
       -------------- ---------------------------------------------------------
  1 S  4.56324000E+03  0.001967
  1 S  6.82024000E+02  0.015231
  1 S  1.54973000E+02  0.076127
  1 S  4.44553000E+01  0.260801
  1 S  1.30290000E+01  0.616462
  1 S  1.82773000E+00  0.221006

  2 S  2.09642000E+01  0.114660
  2 S  4.80331000E+00  0.919999
  2 S  1.45933000E+00 -0.003031

  3 P  2.09642000E+01  0.040249
  3 P  4.80331000E+00  0.237594
  3 P  1.45933000E+00  0.815854

  4 S  4.83456000E-01  1.000000

  5 P  4.83456000E-01  1.000000

  6 S  1.45585000E-01  1.000000

  7 P  1.45585000E-01  1.000000

  8 S  4.38000000E-02  1.000000

  9 P  4.38000000E-02  1.000000

 10 D  2.50400000E+00  1.000000

 11 D  6.26000000E-01  1.000000

 12 D  1.56500000E-01  1.000000

 13 F  8.00000000E-01  1.000000

  H (Hydrogen)
  ------------
            Exponent  Coefficients 
       -------------- ---------------------------------------------------------
  1 S  3.38650000E+01  0.025494
  1 S  5.09479000E+00  0.190373
  1 S  1.15879000E+00  0.852161

  2 S  3.25840000E-01  1.000000

  3 S  1.02741000E-01  1.000000

  4 S  3.60000000E-02  1.000000

  5 P  3.00000000E+00  1.000000

  6 P  7.50000000E-01  1.000000

  7 P  1.87500000E-01  1.000000

  8 D  1.00000000E+00  1.000000



 Summary of "ao basis" -> "ao basis" (cartesian)
 ------------------------------------------------------------------------------
       Tag                 Description            Shells   Functions and Types
 ---------------- ------------------------------  ------  ---------------------
 C                     6-311++G(3df,3pd)            13       45   5s4p3d1f
 H                     6-311++G(3df,3pd)             8       19   4s3p1d




 Summary of "ao basis" -> "ao basis" (cartesian)
 ------------------------------------------------------------------------------
       Tag                 Description            Shells   Functions and Types
 ---------------- ------------------------------  ------  ---------------------
 C                     6-311++G(3df,3pd)            13       45   5s4p3d1f
 H                     6-311++G(3df,3pd)             8       19   4s3p1d


      Symmetry analysis of basis
      --------------------------

        a1g        41
        a1u         6
        a2g         6
        a2u        41
        eg         74
        eu         74

  Caching 1-el integrals 
  Rotation of axis 

            General Information
            -------------------
          SCF calculation type: DFT
          Wavefunction type:  closed shell.
          No. of atoms     :    10
          No. of electrons :    20
           Alpha electrons :    10
            Beta electrons :    10
          Charge           :     0
          Spin multiplicity:     1
          Use of symmetry is: on ; symmetry adaption is: on 
          Maximum number of iterations: ***
          AO basis - number of functions:   242
                     number of shells:    90
          Convergence on energy requested: 1.00D-06
          Convergence on density requested: 1.00D-05
          Convergence on gradient requested: 5.00D-04

              XC Information
              --------------
                  TPSS metaGGA Exchange Functional  1.000          
             TPSS03 metaGGA Correlation Functional  1.000          

             Grid Information
             ----------------
          Grid used for XC integration:  medium    
          Radial quadrature: Mura-Knowles        
          Angular quadrature: Lebedev. 
          Tag              B.-S. Rad. Rad. Pts. Rad. Cut. Ang. Pts.
          ---              ---------- --------- --------- ---------
          C                   0.70       49          15.0       434
          H                   0.35       45          17.0       434
          Grid pruning is: on 
          Number of quadrature shells:   139
          Spatial weights used:  Erf1

          Convergence Information
          -----------------------
          Convergence aids based upon iterative change in 
          total energy or number of iterations. 
          Levelshifting, if invoked, occurs when the 
          HOMO/LUMO gap drops below (HL_TOL): 1.00D-02
          DIIS, if invoked, will attempt to extrapolate 
          using up to (NFOCK): 10 stored Fock matrices.

                    Damping( 0%)  Levelshifting(0.5)       DIIS
                  --------------- ------------------- ---------------
          dE  on:    start            ASAP                start   
          dE off:    2 iters        *** iters           *** iters 


      Screening Tolerance Information
      -------------------------------
          Density screening/tol_rho: 1.00D-10
          AO Gaussian exp screening on grid/accAOfunc:  14
          CD Gaussian exp screening on grid/accCDfunc:  20
          XC Gaussian exp screening on grid/accXCfunc:  20
          Schwarz screening/accCoul: 1.00D-08


      Superposition of Atomic Density Guess
      -------------------------------------

 Sum of atomic energies:         -79.33678107

      Non-variational initial energy
      ------------------------------

 Total energy =     -80.504852
 1-e energy   =    -185.486347
 2-e energy   =      63.600861
 HOMO         =      -0.510105
 LUMO         =       0.015850


      Symmetry analysis of molecular orbitals - initial
      -------------------------------------------------

  Numbering of irreducible representations: 

     1 a1g         2 a1u         3 a2g         4 a2u         5 eg      
     6 eu      

  Orbital symmetries:

     1 a1g         2 a2u         3 a1g         4 a2u         5 a1g     
     6 eu          7 eu          8 eg          9 eg         10 a2u     
    11 a1g        12 a2u        13 eu         14 eu         15 a1g     
    16 eg         17 eg         18 a2u        19 eg         20 eg      

   Time after variat. SCF:      2.5
   Time prior to 1st pass:      2.5

 Integral file          = ./CH4-CH4.aoints.0
 Record size in doubles =    65536    No. of integs per rec  =    43688
 Max. records in memory =        0    Max. records in file   = ********
 No. of bits per label  =        8    No. of bits per value  =       64


 #quartets = 1.000D+06 #integrals = 3.628D+07 #direct =  0.0% #cached =100.0%


 Grid_pts file          = ./CH4-CH4.gridpts.0
 Record size in doubles =  12289        No. of grid_pts per rec  =   3070
 Max. records in memory =     23        Max. recs in file   = 995254260


           Memory utilization after 1st SCF pass: 
           Heap Space remaining (MW):       12.77            12765724
          Stack Space remaining (MW):       13.11            13105732

   convergence    iter        energy       DeltaE   RMS-Dens  Diis-err    time
 ---------------- ----- ----------------- --------- --------- ---------  ------
 d= 0,ls=0.0,diis     1    -81.0277006992 -1.22D+02  1.72D-03  2.98D-01    13.7
 d= 0,ls=0.0,diis     2    -81.0484003273 -2.07D-02  7.29D-04  5.62D-02    17.7
 d= 0,ls=0.0,diis     3    -81.0513085568 -2.91D-03  2.84D-04  3.65D-02    21.8
 d= 0,ls=0.0,diis     4    -81.0555009676 -4.19D-03  1.10D-05  5.97D-06    26.0
 d= 0,ls=0.0,diis     5    -81.0555106727 -9.71D-06  1.46D-06  3.17D-07    30.2
 d= 0,ls=0.0,diis     6    -81.0555098728  8.00D-07  3.76D-07  2.57D-08    34.4


         Total DFT energy =      -81.055509872775
      One electron energy =     -188.626662442688
           Coulomb energy =       80.006110547951
          Exchange energy =      -13.190468372729
       Correlation energy =       -0.625124053217
 Nuclear repulsion energy =       41.380634447907

 Numeric. integr. density =       19.999990389714

     Total iterative time =     31.9s



                  Occupations of the irreducible representations
                  ----------------------------------------------

                     irrep           alpha         beta
                     --------     --------     --------
                     a1g               3.0          3.0
                     a1u               0.0          0.0
                     a2g               0.0          0.0
                     a2u               3.0          3.0
                     eg                2.0          2.0
                     eu                2.0          2.0


                       DFT Final Molecular Orbital Analysis
                       ------------------------------------

 Vector    1  Occ=2.000000D+00  E=-9.997426D+00  Symmetry=a1g
              MO Center=  2.7D-21,  4.8D-21, -4.2D-16, r^2= 3.3D+00
   Bfn.  Coefficient  Atom+Function         Bfn.  Coefficient  Atom+Function  
  ----- ------------  ---------------      ----- ------------  ---------------
     1      0.398757   1 C  s               122      0.398757   6 C  s         
     2      0.328875   1 C  s               123      0.328875   6 C  s         

 Vector    2  Occ=2.000000D+00  E=-9.997426D+00  Symmetry=a2u
              MO Center=  1.6D-21,  4.8D-21, -1.1D-15, r^2= 3.3D+00
   Bfn.  Coefficient  Atom+Function         Bfn.  Coefficient  Atom+Function  
  ----- ------------  ---------------      ----- ------------  ---------------
     1      0.398757   1 C  s               122     -0.398757   6 C  s         
     2      0.328870   1 C  s               123     -0.328870   6 C  s         

 Vector    3  Occ=2.000000D+00  E=-6.504721D-01  Symmetry=a1g
              MO Center= -1.9D-17,  2.2D-17, -3.7D-16, r^2= 4.2D+00
   Bfn.  Coefficient  Atom+Function         Bfn.  Coefficient  Atom+Function  
  ----- ------------  ---------------      ----- ------------  ---------------
     6      0.316269   1 C  s               127      0.316269   6 C  s         
    10      0.214690   1 C  s               131      0.214690   6 C  s         

 Vector    4  Occ=2.000000D+00  E=-6.458644D-01  Symmetry=a2u
              MO Center= -6.5D-16, -1.5D-16, -3.3D-15, r^2= 4.3D+00
   Bfn.  Coefficient  Atom+Function         Bfn.  Coefficient  Atom+Function  
  ----- ------------  ---------------      ----- ------------  ---------------
     6      0.320749   1 C  s               127     -0.320749   6 C  s         
    10      0.222409   1 C  s               131     -0.222409   6 C  s         

 Vector    5  Occ=2.000000D+00  E=-3.637901D-01  Symmetry=a1g
              MO Center= -4.0D-14, -4.0D-14,  1.2D-14, r^2= 5.8D+00
   Bfn.  Coefficient  Atom+Function         Bfn.  Coefficient  Atom+Function  
  ----- ------------  ---------------      ----- ------------  ---------------
    85      0.188151   4 H  s               187      0.188151   8 H  s         
     9      0.184475   1 C  pz              130     -0.184475   6 C  pz        

 Vector    6  Occ=2.000000D+00  E=-3.604231D-01  Symmetry=eu
              MO Center= -6.4D-15,  4.1D-14,  7.9D-14, r^2= 4.0D+00
   Bfn.  Coefficient  Atom+Function         Bfn.  Coefficient  Atom+Function  
  ----- ------------  ---------------      ----- ------------  ---------------
    47      0.179282   2 H  s               225     -0.179282  10 H  s         
     8      0.153109   1 C  py              129      0.153109   6 C  py        

 Vector    7  Occ=2.000000D+00  E=-3.604231D-01  Symmetry=eu
              MO Center=  4.6D-14,  3.1D-14, -1.6D-16, r^2= 4.0D+00
   Bfn.  Coefficient  Atom+Function         Bfn.  Coefficient  Atom+Function  
  ----- ------------  ---------------      ----- ------------  ---------------
   104      0.172663   5 H  s               206     -0.172663   9 H  s         
     7      0.153109   1 C  px              128      0.153109   6 C  px        

 Vector    8  Occ=2.000000D+00  E=-3.546317D-01  Symmetry=eg
              MO Center=  6.2D-15, -1.2D-15, -4.3D-14, r^2= 4.0D+00
   Bfn.  Coefficient  Atom+Function         Bfn.  Coefficient  Atom+Function  
  ----- ------------  ---------------      ----- ------------  ---------------
     8      0.172804   1 C  py              129     -0.172804   6 C  py        
    47      0.169139   2 H  s               225      0.169139  10 H  s         

 Vector    9  Occ=2.000000D+00  E=-3.546317D-01  Symmetry=eg
              MO Center= -6.9D-15, -2.9D-14, -3.6D-14, r^2= 4.0D+00
   Bfn.  Coefficient  Atom+Function         Bfn.  Coefficient  Atom+Function  
  ----- ------------  ---------------      ----- ------------  ---------------
   104      0.178795   5 H  s               206      0.178795   9 H  s         
     7      0.172804   1 C  px              128     -0.172804   6 C  px        

 Vector   10  Occ=2.000000D+00  E=-3.516684D-01  Symmetry=a2u
              MO Center=  4.9D-16, -4.8D-17, -9.6D-15, r^2= 5.9D+00
   Bfn.  Coefficient  Atom+Function         Bfn.  Coefficient  Atom+Function  
  ----- ------------  ---------------      ----- ------------  ---------------
    85      0.205756   4 H  s               187     -0.205756   8 H  s         
     9      0.185899   1 C  pz              130      0.185899   6 C  pz        

 Vector   11  Occ=0.000000D+00  E=-2.454712D-02  Symmetry=a1g
              MO Center= -6.6D-16,  9.1D-17,  3.3D-15, r^2= 1.5D+01
   Bfn.  Coefficient  Atom+Function         Bfn.  Coefficient  Atom+Function  
  ----- ------------  ---------------      ----- ------------  ---------------
    14      3.215078   1 C  s               135      3.215078   6 C  s         
    49     -0.831588   2 H  s                68     -0.831588   3 H  s         
   106     -0.831588   5 H  s               170     -0.831588   7 H  s         
   208     -0.831588   9 H  s               227     -0.831588  10 H  s         
    10      0.746476   1 C  s               131      0.746476   6 C  s         

 Vector   12  Occ=0.000000D+00  E=-1.587579D-03  Symmetry=a2u
              MO Center=  3.9D-16,  9.8D-16,  2.7D-14, r^2= 2.3D+01
   Bfn.  Coefficient  Atom+Function         Bfn.  Coefficient  Atom+Function  
  ----- ------------  ---------------      ----- ------------  ---------------
    14      3.409069   1 C  s               135     -3.409069   6 C  s         
    87     -2.266690   4 H  s               189      2.266690   8 H  s         
    17      0.859893   1 C  pz              138      0.859893   6 C  pz        
    49     -0.729543   2 H  s                68     -0.729543   3 H  s         
   106     -0.729543   5 H  s               170      0.729543   7 H  s         

 Vector   13  Occ=0.000000D+00  E= 1.467451D-02  Symmetry=eu
              MO Center=  6.5D-15, -8.0D-15, -8.4D-16, r^2= 1.5D+01
   Bfn.  Coefficient  Atom+Function         Bfn.  Coefficient  Atom+Function  
  ----- ------------  ---------------      ----- ------------  ---------------
    49      2.123748   2 H  s               227     -2.123748  10 H  s         
    68     -1.110644   3 H  s               170      1.110644   7 H  s         
   106     -1.013104   5 H  s               208      1.013104   9 H  s         
    48     -0.843837   2 H  s               226      0.843837  10 H  s         
    67      0.441296   3 H  s               169     -0.441296   7 H  s         

 Vector   14  Occ=0.000000D+00  E= 1.467451D-02  Symmetry=eu
              MO Center=  9.3D-14,  7.3D-14,  7.4D-14, r^2= 1.5D+01
   Bfn.  Coefficient  Atom+Function         Bfn.  Coefficient  Atom+Function  
  ----- ------------  ---------------      ----- ------------  ---------------
   106     -1.867377   5 H  s               208      1.867377   9 H  s         
    68      1.811063   3 H  s               170     -1.811063   7 H  s         
   105      0.741972   5 H  s               207     -0.741972   9 H  s         
    67     -0.719597   3 H  s               169      0.719597   7 H  s         
    11     -0.308558   1 C  px              132     -0.308558   6 C  px        

 Vector   15  Occ=0.000000D+00  E= 2.750031D-02  Symmetry=a1g
              MO Center=  5.4D-14,  4.8D-14, -3.2D-13, r^2= 2.5D+01
   Bfn.  Coefficient  Atom+Function         Bfn.  Coefficient  Atom+Function  
  ----- ------------  ---------------      ----- ------------  ---------------
    87      3.294713   4 H  s               189      3.294713   8 H  s         
    17     -0.963750   1 C  pz              138      0.963750   6 C  pz        
    49     -0.903775   2 H  s                68     -0.903775   3 H  s         
   106     -0.903775   5 H  s               170     -0.903775   7 H  s         
   208     -0.903775   9 H  s               227     -0.903775  10 H  s         

 Vector   16  Occ=0.000000D+00  E= 4.300367D-02  Symmetry=eg
              MO Center= -3.6D-14,  8.5D-15, -4.2D-14, r^2= 1.9D+01
   Bfn.  Coefficient  Atom+Function         Bfn.  Coefficient  Atom+Function  
  ----- ------------  ---------------      ----- ------------  ---------------
   106      4.044085   5 H  s               208      4.044085   9 H  s         
    49     -2.413941   2 H  s               227     -2.413941  10 H  s         
    68     -1.630143   3 H  s               170     -1.630143   7 H  s         
   105     -0.882223   5 H  s               207     -0.882223   9 H  s         
    15     -0.839407   1 C  px              136      0.839407   6 C  px        

 Vector   17  Occ=0.000000D+00  E= 4.300367D-02  Symmetry=eg
              MO Center= -1.1D-14, -3.6D-15,  2.4D-14, r^2= 1.9D+01
   Bfn.  Coefficient  Atom+Function         Bfn.  Coefficient  Atom+Function  
  ----- ------------  ---------------      ----- ------------  ---------------
    68      3.728543   3 H  s               170      3.728543   7 H  s         
    49     -3.276017   2 H  s               227     -3.276017  10 H  s         
    16      0.839407   1 C  py              137     -0.839407   6 C  py        
    67     -0.813388   3 H  s               169     -0.813388   7 H  s         
    48      0.714668   2 H  s               226      0.714668  10 H  s         

 Vector   18  Occ=0.000000D+00  E= 5.661409D-02  Symmetry=a2u
              MO Center= -1.2D-13, -2.3D-13,  6.7D-13, r^2= 2.4D+01
   Bfn.  Coefficient  Atom+Function         Bfn.  Coefficient  Atom+Function  
  ----- ------------  ---------------      ----- ------------  ---------------
    87      5.142648   4 H  s               189     -5.142648   8 H  s         
    14      3.444254   1 C  s               135     -3.444254   6 C  s         
    17     -2.882719   1 C  pz               49     -2.896061   2 H  s         
    68     -2.896061   3 H  s               106     -2.896061   5 H  s         
   138     -2.882719   6 C  pz              170      2.896061   7 H  s         

 Vector   19  Occ=0.000000D+00  E= 6.123811D-02  Symmetry=eg
              MO Center=  5.7D-14,  1.7D-13, -2.7D-14, r^2= 1.3D+01
   Bfn.  Coefficient  Atom+Function         Bfn.  Coefficient  Atom+Function  
  ----- ------------  ---------------      ----- ------------  ---------------
    68      2.388143   3 H  s               170      2.388143   7 H  s         
    16      2.092411   1 C  py              137     -2.092411   6 C  py        
    67      1.695164   3 H  s               169      1.695164   7 H  s         
    49     -1.274428   2 H  s               227     -1.274428  10 H  s         
   106     -1.113716   5 H  s               208     -1.113716   9 H  s         

 Vector   20  Occ=0.000000D+00  E= 6.123811D-02  Symmetry=eg
              MO Center=  6.4D-14, -1.8D-14,  2.2D-14, r^2= 1.3D+01
   Bfn.  Coefficient  Atom+Function         Bfn.  Coefficient  Atom+Function  
  ----- ------------  ---------------      ----- ------------  ---------------
   106     -2.114586   5 H  s               208     -2.114586   9 H  s         
    15      2.092411   1 C  px              136     -2.092411   6 C  px        
    49      2.021799   2 H  s               227      2.021799  10 H  s         
   105     -1.500986   5 H  s               207     -1.500986   9 H  s         
    48      1.435124   2 H  s               226      1.435124  10 H  s         

 Vector   21  Occ=0.000000D+00  E= 8.625644D-02  Symmetry=a1g
              MO Center=  8.5D-13, -4.7D-13, -4.5D-13, r^2= 1.5D+01
   Bfn.  Coefficient  Atom+Function         Bfn.  Coefficient  Atom+Function  
  ----- ------------  ---------------      ----- ------------  ---------------
    14      9.694020   1 C  s               135      9.694020   6 C  s         
    49     -2.169658   2 H  s                68     -2.169658   3 H  s         
   106     -2.169658   5 H  s               170     -2.169658   7 H  s         
   208     -2.169658   9 H  s               227     -2.169658  10 H  s         
    48     -1.828570   2 H  s                67     -1.828570   3 H  s         

 Vector   22  Occ=0.000000D+00  E= 9.314567D-02  Symmetry=eu
              MO Center= -2.8D-13,  2.2D-13,  3.9D-16, r^2= 1.5D+01
   Bfn.  Coefficient  Atom+Function         Bfn.  Coefficient  Atom+Function  
  ----- ------------  ---------------      ----- ------------  ---------------
    49      3.491763   2 H  s               227     -3.491763  10 H  s         
    48      2.287347   2 H  s               226     -2.287347  10 H  s         
    15      2.257509   1 C  px              136      2.257509   6 C  px        
   106     -2.052519   5 H  s               208      2.052519   9 H  s         
    16     -1.841825   1 C  py              137     -1.841825   6 C  py        

 Vector   23  Occ=0.000000D+00  E= 9.314567D-02  Symmetry=eu
              MO Center= -2.6D-13, -3.2D-13, -5.6D-15, r^2= 1.5D+01
   Bfn.  Coefficient  Atom+Function         Bfn.  Coefficient  Atom+Function  
  ----- ------------  ---------------      ----- ------------  ---------------
    68      3.200993   3 H  s               170     -3.200993   7 H  s         
   106     -2.846918   5 H  s               208      2.846918   9 H  s         
    16      2.257509   1 C  py              137      2.257509   6 C  py        
    67      2.096872   3 H  s               169     -2.096872   7 H  s         
   105     -1.864928   5 H  s               207      1.864928   9 H  s         

 Vector   24  Occ=0.000000D+00  E= 1.205285D-01  Symmetry=a2u
              MO Center= -6.8D-13,  7.1D-13, -1.2D-11, r^2= 2.3D+01
   Bfn.  Coefficient  Atom+Function         Bfn.  Coefficient  Atom+Function  
  ----- ------------  ---------------      ----- ------------  ---------------
    14     13.072530   1 C  s               135    -13.072530   6 C  s         
    49     -3.148730   2 H  s                68     -3.148730   3 H  s         
   106     -3.148730   5 H  s               170      3.148730   7 H  s         
   208      3.148730   9 H  s               227      3.148730  10 H  s         
    87     -3.080808   4 H  s               189      3.080808   8 H  s         

 Vector   25  Occ=0.000000D+00  E= 1.267342D-01  Symmetry=a1g
              MO Center=  9.0D-14, -7.1D-13,  1.3D-11, r^2= 1.5D+01
   Bfn.  Coefficient  Atom+Function         Bfn.  Coefficient  Atom+Function  
  ----- ------------  ---------------      ----- ------------  ---------------
    14      8.658495   1 C  s               135      8.658495   6 C  s         
    87     -3.754297   4 H  s               189     -3.754297   8 H  s         
    86     -3.057912   4 H  s               188     -3.057912   8 H  s         
    10      2.144305   1 C  s               131      2.144305   6 C  s         
    17      2.106278   1 C  pz              138     -2.106278   6 C  pz        

 Vector   26  Occ=0.000000D+00  E= 1.594683D-01  Symmetry=eu
              MO Center= -7.2D-13,  3.9D-13,  3.1D-15, r^2= 1.2D+01
   Bfn.  Coefficient  Atom+Function         Bfn.  Coefficient  Atom+Function  
  ----- ------------  ---------------      ----- ------------  ---------------
    49      3.390595   2 H  s               227     -3.390595  10 H  s         
   106     -2.575205   5 H  s               208      2.575205   9 H  s         
    48     -2.266148   2 H  s               226      2.266148  10 H  s         
   105      1.721172   5 H  s               207     -1.721172   9 H  s         
    11     -1.502176   1 C  px              132     -1.502176   6 C  px        

 Vector   27  Occ=0.000000D+00  E= 1.594683D-01  Symmetry=eu
              MO Center=  3.1D-13,  5.0D-13,  8.5D-14, r^2= 1.2D+01
   Bfn.  Coefficient  Atom+Function         Bfn.  Coefficient  Atom+Function  
  ----- ------------  ---------------      ----- ------------  ---------------
    68      3.444356   3 H  s               170     -3.444356   7 H  s         
   106     -2.428326   5 H  s               208      2.428326   9 H  s         
    67     -2.302080   3 H  s               169      2.302080   7 H  s         
   105      1.623003   5 H  s               207     -1.623003   9 H  s         
    12     -1.502176   1 C  py              133     -1.502176   6 C  py        

 Vector   28  Occ=0.000000D+00  E= 1.599255D-01  Symmetry=a2u
              MO Center=  6.0D-14,  2.0D-13,  3.5D-12, r^2= 1.9D+01
   Bfn.  Coefficient  Atom+Function         Bfn.  Coefficient  Atom+Function  
  ----- ------------  ---------------      ----- ------------  ---------------
    14     12.324989   1 C  s               135    -12.324989   6 C  s         
    17     -8.252796   1 C  pz              138     -8.252796   6 C  pz        
    87      7.929671   4 H  s               189     -7.929671   8 H  s         
    49     -4.514572   2 H  s                68     -4.514572   3 H  s         
   106     -4.514572   5 H  s               170      4.514572   7 H  s         

 Vector   29  Occ=0.000000D+00  E= 1.693310D-01  Symmetry=a1g
              MO Center= -3.8D-14, -6.3D-14, -5.3D-12, r^2= 1.7D+01
   Bfn.  Coefficient  Atom+Function         Bfn.  Coefficient  Atom+Function  
  ----- ------------  ---------------      ----- ------------  ---------------
    87      3.922665   4 H  s               189      3.922665   8 H  s         
    86     -2.167869   4 H  s               188     -2.167869   8 H  s         
    17     -1.975058   1 C  pz              138      1.975058   6 C  pz        
    49     -1.391824   2 H  s                68     -1.391824   3 H  s         
   106     -1.391824   5 H  s               170     -1.391824   7 H  s         

 Vector   30  Occ=0.000000D+00  E= 1.903092D-01  Symmetry=eg
              MO Center=  5.3D-13, -6.2D-13,  1.3D-14, r^2= 1.1D+01
   Bfn.  Coefficient  Atom+Function         Bfn.  Coefficient  Atom+Function  
  ----- ------------  ---------------      ----- ------------  ---------------
    49      4.049380   2 H  s               227      4.049380  10 H  s         
    48     -2.748156   2 H  s               226     -2.748156  10 H  s         
    68     -2.304865   3 H  s               170     -2.304865   7 H  s         
   106     -1.744515   5 H  s               208     -1.744515   9 H  s         
    67      1.564222   3 H  s               169      1.564222   7 H  s         

 Vector   31  Occ=0.000000D+00  E= 1.903092D-01  Symmetry=eg
              MO Center= -1.6D-14,  5.8D-14, -6.0D-14, r^2= 1.1D+01
   Bfn.  Coefficient  Atom+Function         Bfn.  Coefficient  Atom+Function  
  ----- ------------  ---------------      ----- ------------  ---------------
   106     -3.668625   5 H  s               208     -3.668625   9 H  s         
    68      3.345107   3 H  s               170      3.345107   7 H  s         
   105      2.489753   5 H  s               207      2.489753   9 H  s         
    67     -2.270193   3 H  s               169     -2.270193   7 H  s         
    11     -1.294245   1 C  px              132      1.294245   6 C  px        

 Vector   32  Occ=0.000000D+00  E= 2.178987D-01  Symmetry=a2u
              MO Center= -1.0D-14,  1.2D-13,  2.9D-13, r^2= 1.2D+01
   Bfn.  Coefficient  Atom+Function         Bfn.  Coefficient  Atom+Function  
  ----- ------------  ---------------      ----- ------------  ---------------
    14     16.466818   1 C  s               135    -16.466818   6 C  s         
    10      8.010897   1 C  s               131     -8.010897   6 C  s         
    48     -6.298304   2 H  s                67     -6.298304   3 H  s         
   105     -6.298304   5 H  s               169      6.298304   7 H  s         
   207      6.298304   9 H  s               226      6.298304  10 H  s         

 Vector   33  Occ=0.000000D+00  E= 2.434666D-01  Symmetry=a2u
              MO Center= -1.9D-14, -9.5D-14,  4.0D-12, r^2= 1.7D+01
   Bfn.  Coefficient  Atom+Function         Bfn.  Coefficient  Atom+Function  
  ----- ------------  ---------------      ----- ------------  ---------------
    17      8.823084   1 C  pz              138      8.823084   6 C  pz        
    86     -7.770287   4 H  s               188      7.770287   8 H  s         
    87     -6.752300   4 H  s               189      6.752300   8 H  s         
    14      3.912944   1 C  s               135     -3.912944   6 C  s         
    10      2.799296   1 C  s               131     -2.799296   6 C  s         

 Vector   34  Occ=0.000000D+00  E= 2.465411D-01  Symmetry=eu
              MO Center= -5.6D-15,  6.7D-15,  3.3D-16, r^2= 6.2D+00
   Bfn.  Coefficient  Atom+Function         Bfn.  Coefficient  Atom+Function  
  ----- ------------  ---------------      ----- ------------  ---------------
    49      0.507913   2 H  s               227     -0.507913  10 H  s         
    58     -0.423580   2 H  pz              236     -0.423580  10 H  pz        
   114      0.388257   5 H  py              216      0.388257   9 H  py        
    68     -0.345272   3 H  s               170      0.345272   7 H  s         
    34      0.341140   1 C  dyz             155     -0.341140   6 C  dyz       

 Vector   35  Occ=0.000000D+00  E= 2.465411D-01  Symmetry=eu
              MO Center= -1.9D-15,  4.3D-15, -1.3D-14, r^2= 6.2D+00
   Bfn.  Coefficient  Atom+Function         Bfn.  Coefficient  Atom+Function  
  ----- ------------  ---------------      ----- ------------  ---------------
   106      0.492587   5 H  s               208     -0.492587   9 H  s         
   115     -0.410798   5 H  pz              217     -0.410798   9 H  pz        
    68     -0.387144   3 H  s               170      0.387144   7 H  s         
    32      0.341140   1 C  dxz             153     -0.341140   6 C  dxz       
    77      0.322863   3 H  pz              179      0.322863   7 H  pz        

 Vector   36  Occ=0.000000D+00  E= 2.688049D-01  Symmetry=a1g
              MO Center= -4.8D-13, -8.2D-13, -5.1D-12, r^2= 1.4D+01
   Bfn.  Coefficient  Atom+Function         Bfn.  Coefficient  Atom+Function  
  ----- ------------  ---------------      ----- ------------  ---------------
    14     16.778032   1 C  s               135     16.778032   6 C  s         
    10      8.893308   1 C  s               131      8.893308   6 C  s         
    86     -5.766511   4 H  s               188     -5.766511   8 H  s         
    48     -5.494335   2 H  s                67     -5.494335   3 H  s         
   105     -5.494335   5 H  s               169     -5.494335   7 H  s         

 Vector   37  Occ=0.000000D+00  E= 2.793418D-01  Symmetry=a1g
              MO Center=  1.5D-14,  1.3D-14, -8.8D-14, r^2= 1.2D+01
   Bfn.  Coefficient  Atom+Function         Bfn.  Coefficient  Atom+Function  
  ----- ------------  ---------------      ----- ------------  ---------------
    14      7.366850   1 C  s               135      7.366850   6 C  s         
    48     -4.830035   2 H  s                67     -4.830035   3 H  s         
   105     -4.830035   5 H  s               169     -4.830035   7 H  s         
   207     -4.830035   9 H  s               226     -4.830035  10 H  s         
    86      4.244546   4 H  s               188      4.244546   8 H  s         

 Vector   38  Occ=0.000000D+00  E= 2.898850D-01  Symmetry=eg
              MO Center=  3.2D-14, -6.7D-14,  1.2D-13, r^2= 1.2D+01
   Bfn.  Coefficient  Atom+Function         Bfn.  Coefficient  Atom+Function  
  ----- ------------  ---------------      ----- ------------  ---------------
    48      4.074944   2 H  s               226      4.074944  10 H  s         
    67     -3.953550   3 H  s               169     -3.953550   7 H  s         
    12     -2.645484   1 C  py              133      2.645484   6 C  py        
    31      0.940176   1 C  dxy             152      0.940176   6 C  dxy       
    16     -0.900736   1 C  py              137      0.900736   6 C  py        

 Vector   39  Occ=0.000000D+00  E= 2.898850D-01  Symmetry=eg
              MO Center=  4.0D-13,  1.1D-13, -1.1D-12, r^2= 1.2D+01
   Bfn.  Coefficient  Atom+Function         Bfn.  Coefficient  Atom+Function  
  ----- ------------  ---------------      ----- ------------  ---------------
   105      4.635253   5 H  s               207      4.635253   9 H  s         
    11     -2.645484   1 C  px              132      2.645484   6 C  px        
    67     -2.422757   3 H  s               169     -2.422757   7 H  s         
    48     -2.212497   2 H  s               226     -2.212497  10 H  s         
    15     -0.900736   1 C  px              136      0.900736   6 C  px        

 Vector   40  Occ=0.000000D+00  E= 3.029660D-01  Symmetry=eu
              MO Center= -6.9D-14,  1.2D-13, -4.8D-13, r^2= 1.1D+01
   Bfn.  Coefficient  Atom+Function         Bfn.  Coefficient  Atom+Function  
  ----- ------------  ---------------      ----- ------------  ---------------
    48      4.912194   2 H  s               226     -4.912194  10 H  s         
   105     -3.193390   5 H  s               207      3.193390   9 H  s         
    11      2.439091   1 C  px              132      2.439091   6 C  px        
    12     -1.718519   1 C  py               67     -1.718805   3 H  s         
   133     -1.718519   6 C  py              169      1.718805   7 H  s         

 Vector   41  Occ=0.000000D+00  E= 3.029660D-01  Symmetry=eu
              MO Center=  6.8D-13,  1.0D-12,  1.4D-12, r^2= 1.1D+01
   Bfn.  Coefficient  Atom+Function         Bfn.  Coefficient  Atom+Function  
  ----- ------------  ---------------      ----- ------------  ---------------
    67      4.679761   3 H  s               169     -4.679761   7 H  s         
   105     -3.828409   5 H  s               207      3.828409   9 H  s         
    12      2.439091   1 C  py              133      2.439091   6 C  py        
    11      1.718519   1 C  px              132      1.718519   6 C  px        
    16      1.665289   1 C  py              137      1.665289   6 C  py        

 Vector   42  Occ=0.000000D+00  E= 3.281855D-01  Symmetry=eg
              MO Center=  1.0D-14,  2.6D-14,  5.4D-16, r^2= 7.4D+00
   Bfn.  Coefficient  Atom+Function         Bfn.  Coefficient  Atom+Function  
  ----- ------------  ---------------      ----- ------------  ---------------
   105     -1.779355   5 H  s               207     -1.779355   9 H  s         
    67      1.770421   3 H  s               169      1.770421   7 H  s         
    11      0.922153   1 C  px              132     -0.922153   6 C  px        
    12      0.914148   1 C  py              133     -0.914148   6 C  py        
   106     -0.567667   5 H  s               208     -0.567667   9 H  s         

 Vector   43  Occ=0.000000D+00  E= 3.281855D-01  Symmetry=eg
              MO Center=  3.0D-14, -5.5D-14,  6.7D-14, r^2= 7.4D+00
   Bfn.  Coefficient  Atom+Function         Bfn.  Coefficient  Atom+Function  
  ----- ------------  ---------------      ----- ------------  ---------------
    48      2.049464   2 H  s               226      2.049464  10 H  s         
    67     -1.032469   3 H  s               169     -1.032469   7 H  s         
   105     -1.016995   5 H  s               207     -1.016995   9 H  s         
    12     -0.922153   1 C  py              133      0.922153   6 C  py        
    11      0.914148   1 C  px              132     -0.914148   6 C  px        

 Vector   44  Occ=0.000000D+00  E= 4.298475D-01  Symmetry=a2u
              MO Center= -2.3D-14,  1.7D-13,  9.1D-13, r^2= 1.4D+01
   Bfn.  Coefficient  Atom+Function         Bfn.  Coefficient  Atom+Function  
  ----- ------------  ---------------      ----- ------------  ---------------
    86     10.178269   4 H  s               188    -10.178269   8 H  s         
    14     -6.796182   1 C  s               135      6.796182   6 C  s         
    17     -6.015411   1 C  pz              138     -6.015411   6 C  pz        
    13     -4.387033   1 C  pz              134     -4.387033   6 C  pz        
    87      3.511354   4 H  s               189     -3.511354   8 H  s         

 Vector   45  Occ=0.000000D+00  E= 4.757587D-01  Symmetry=a1g
              MO Center=  6.1D-16,  6.6D-15, -1.2D-12, r^2= 9.4D+00
   Bfn.  Coefficient  Atom+Function         Bfn.  Coefficient  Atom+Function  
  ----- ------------  ---------------      ----- ------------  ---------------
    86      3.566918   4 H  s               188      3.566918   8 H  s         
    14     -3.060964   1 C  s               135     -3.060964   6 C  s         
    48     -2.272791   2 H  s                67     -2.272791   3 H  s         
   105     -2.272791   5 H  s               169     -2.272791   7 H  s         
   207     -2.272791   9 H  s               226     -2.272791  10 H  s         

 Vector   46  Occ=0.000000D+00  E= 4.773237D-01  Symmetry=a1u
              MO Center= -8.6D-15, -1.2D-14,  2.7D-14, r^2= 6.0D+00
   Bfn.  Coefficient  Atom+Function         Bfn.  Coefficient  Atom+Function  
  ----- ------------  ---------------      ----- ------------  ---------------
    75      0.749559   3 H  px              114      0.749559   5 H  py        
   177      0.749559   7 H  px              216      0.749559   9 H  py        
    56     -0.548715   2 H  px               57     -0.548715   2 H  py        
   234     -0.548715  10 H  px              235     -0.548715  10 H  py        
    76     -0.200844   3 H  py              113     -0.200844   5 H  px        

 Vector   47  Occ=0.000000D+00  E= 4.897551D-01  Symmetry=a2u
              MO Center=  5.0D-13, -1.8D-12,  5.9D-12, r^2= 1.0D+01
   Bfn.  Coefficient  Atom+Function         Bfn.  Coefficient  Atom+Function  
  ----- ------------  ---------------      ----- ------------  ---------------
    10      8.814109   1 C  s               131     -8.814109   6 C  s         
    48     -4.619528   2 H  s                67     -4.619528   3 H  s         
   105     -4.619528   5 H  s               169      4.619528   7 H  s         
   207      4.619528   9 H  s               226      4.619528  10 H  s         
    86     -4.431520   4 H  s               188      4.431520   8 H  s         

 Vector   48  Occ=0.000000D+00  E= 4.925824D-01  Symmetry=eu
              MO Center=  3.9D-13, -4.7D-13, -1.4D-12, r^2= 9.3D+00
   Bfn.  Coefficient  Atom+Function         Bfn.  Coefficient  Atom+Function  
  ----- ------------  ---------------      ----- ------------  ---------------
    31      1.071131   1 C  dxy             152     -1.071131   6 C  dxy       
    49     -0.957610   2 H  s               227      0.957610  10 H  s         
    94      0.873990   4 H  px              196      0.873990   8 H  px        
    48      0.850899   2 H  s               226     -0.850899  10 H  s         
    95     -0.737412   4 H  py              197     -0.737412   8 H  py        

 Vector   49  Occ=0.000000D+00  E= 4.925824D-01  Symmetry=eu
              MO Center= -4.6D-13,  6.9D-13, -1.9D-12, r^2= 9.3D+00
   Bfn.  Coefficient  Atom+Function         Bfn.  Coefficient  Atom+Function  
  ----- ------------  ---------------      ----- ------------  ---------------
    68      0.869897   3 H  s                95     -0.873990   4 H  py        
   170     -0.869897   7 H  s               197     -0.873990   8 H  py        
   106     -0.788733   5 H  s               208      0.788733   9 H  s         
    67     -0.772960   3 H  s               169      0.772960   7 H  s         
    94     -0.737412   4 H  px              196     -0.737412   8 H  px        

 Vector   50  Occ=0.000000D+00  E= 4.931721D-01  Symmetry=eg
              MO Center= -5.2D-13,  7.9D-13,  1.4D-12, r^2= 7.2D+00
   Bfn.  Coefficient  Atom+Function         Bfn.  Coefficient  Atom+Function  
  ----- ------------  ---------------      ----- ------------  ---------------
    31      1.453508   1 C  dxy             152      1.453508   6 C  dxy       
    32     -1.382934   1 C  dxz             153     -1.382934   6 C  dxz       
    11     -0.943539   1 C  px              132      0.943539   6 C  px        
    58     -0.875680   2 H  pz              236      0.875680  10 H  pz        
   115      0.855037   5 H  pz              217     -0.855037   9 H  pz        

 Vector   51  Occ=0.000000D+00  E= 4.931721D-01  Symmetry=eg
              MO Center=  3.4D-14, -2.9D-13,  1.9D-12, r^2= 7.2D+00
   Bfn.  Coefficient  Atom+Function         Bfn.  Coefficient  Atom+Function  
  ----- ------------  ---------------      ----- ------------  ---------------
    34      1.382934   1 C  dyz             155      1.382934   6 C  dyz       
    77      0.999230   3 H  pz              179     -0.999230   7 H  pz        
    12      0.943539   1 C  py              133     -0.943539   6 C  py        
    31      0.799618   1 C  dxy             152      0.799618   6 C  dxy       
    30     -0.726754   1 C  dxx              33      0.726754   1 C  dyy       

 Vector   52  Occ=0.000000D+00  E= 5.119221D-01  Symmetry=a1g
              MO Center= -9.9D-15,  1.0D-13, -3.5D-12, r^2= 1.4D+01
   Bfn.  Coefficient  Atom+Function         Bfn.  Coefficient  Atom+Function  
  ----- ------------  ---------------      ----- ------------  ---------------
    86      6.832878   4 H  s               188      6.832878   8 H  s         
    10     -5.557911   1 C  s               131     -5.557911   6 C  s         
    14     -4.843275   1 C  s               135     -4.843275   6 C  s         
    48      2.471052   2 H  s                67      2.471052   3 H  s         
   105      2.471052   5 H  s               169      2.471052   7 H  s         


 center of mass
 --------------
 x =  -0.00000000 y =  -0.00000000 z =  -0.00000000

 moments of inertia (a.u.)
 ------------------
         396.646931115797           0.000000000000           0.000000000000
           0.000000000000         396.646931115797          -0.000000000000
           0.000000000000          -0.000000000000          22.759997444335

     Multipole analysis of the density
     ---------------------------------

     L   x y z        total         alpha         beta         nuclear
     -   - - -        -----         -----         ----         -------
     0   0 0 0     -0.000000    -10.000000    -10.000000     20.000000

     1   1 0 0      0.000000      0.000000      0.000000     -0.000000
     1   0 1 0      0.000000      0.000000      0.000000      0.000000
     1   0 0 1      0.000000      0.000000      0.000000      0.000000

     2   2 0 0    -12.638190    -11.964916    -11.964916     11.291642
     2   1 1 0      0.000000      0.000000      0.000000     -0.000000
     2   1 0 1     -0.000000     -0.000000     -0.000000     -0.000000
     2   0 2 0    -12.638190    -11.964916    -11.964916     11.291642
     2   0 1 1     -0.000000     -0.000000     -0.000000      0.000000
     2   0 0 2    -12.739550   -128.610168   -128.610168    244.480785


------------------------------------------------------------
EAF file 0: "./CH4-CH4.aoints.0" size=435683328 bytes
------------------------------------------------------------
               write      read    awrite     aread      wait
               -----      ----    ------     -----      ----
     calls:      831         5         0      4150      4150
   data(b): 4.36e+08  2.62e+06  0.00e+00  2.18e+09
   time(s): 0.00e+00  0.00e+00  0.00e+00  0.00e+00  0.00e+00
rate(mb/s): 0.00e+00  0.00e+00
------------------------------------------------------------


 Parallel integral file used     831 records with       0 large values


 Task  times  cpu:       35.3s     wall:       38.2s


                                NWChem Input Module
                                -------------------


 Summary of allocated global arrays
-----------------------------------
  No active global arrays



                         GA Statistics for process    0
                         ------------------------------

       create   destroy   get      put      acc     scatter   gather  read&inc
calls:  188      188     6.84e+04 2.35e+04 3.60e+04    0        0     2486     
number of processes/call 1.00e+00 1.00e+00 1.00e+00 0.00e+00 0.00e+00
bytes total:             3.20e+08 9.68e+07 2.23e+08 0.00e+00 0.00e+00 1.99e+04
bytes remote:            0.00e+00 0.00e+00 0.00e+00 0.00e+00 0.00e+00 0.00e+00
Max memory consumed for GA by this process: 18271968 bytes

MA_summarize_allocated_blocks: starting scan ...
MA_summarize_allocated_blocks: scan completed: 0 heap blocks, 0 stack blocks
MA usage statistics:

	allocation statistics:
					      heap	     stack
					      ----	     -----
	current number of blocks	         0	         0
	maximum number of blocks	        23	        55
	current total bytes		         0	         0
	maximum total bytes		   2731776	  31979944
	maximum total K-bytes		      2732	     31980
	maximum total M-bytes		         3	        32


                                     CITATION
                                     --------
                Please cite the following reference when publishing
                           results obtained with NWChem:

                 M. Valiev, E.J. Bylaska, N. Govind, K. Kowalski,
              T.P. Straatsma, H.J.J. van Dam, D. Wang, J. Nieplocha,
                        E. Apra, T.L. Windus, W.A. de Jong
                 "NWChem: a comprehensive and scalable open-source
                  solution for large scale molecular simulations"
                      Comput. Phys. Commun. 181, 1477 (2010)
                           doi:10.1016/j.cpc.2010.04.018

                                      AUTHORS
                                      -------
          E. Apra, E. J. Bylaska, W. A. de Jong, N. Govind, K. Kowalski,
       T. P. Straatsma, M. Valiev, H. J. J. van Dam, D. Wang, T. L. Windus,
        J. Hammond, J. Autschbach, K. Bhaskaran-Nair, J. Brabec, K. Lopata,
       S. A. Fischer, S. Krishnamoorthy, W. Ma, M. Klemm, O. Villa, Y. Chen,
    V. Anisimov, F. Aquino, S. Hirata, M. T. Hackler, T. Risthaus, M. Malagoli,
       A. Marenich, A. Otero-de-la-Roza, J. Mullin, P. Nichols, R. Peverati,
     J. Pittner, Y. Zhao, P.-D. Fan, A. Fonari, M. Williamson, R. J. Harrison,
       J. R. Rehr, M. Dupuis, D. Silverstein, D. M. A. Smith, J. Nieplocha,
        V. Tipparaju, M. Krishnan, B. E. Van Kuiken, A. Vazquez-Mayagoitia,
        L. Jensen, M. Swart, Q. Wu, T. Van Voorhis, A. A. Auer, M. Nooijen,
      L. D. Crosby, E. Brown, G. Cisneros, G. I. Fann, H. Fruchtl, J. Garza,
        K. Hirao, R. A. Kendall, J. A. Nichols, K. Tsemekhman, K. Wolinski,
     J. Anchell, D. E. Bernholdt, P. Borowski, T. Clark, D. Clerc, H. Dachsel,
   M. J. O. Deegan, K. Dyall, D. Elwood, E. Glendening, M. Gutowski, A. C. Hess,
         J. Jaffe, B. G. Johnson, J. Ju, R. Kobayashi, R. Kutteh, Z. Lin,
   R. Littlefield, X. Long, B. Meng, T. Nakajima, S. Niu, L. Pollack, M. Rosing,
   K. Glaesemann, G. Sandrone, M. Stave, H. Taylor, G. Thomas, J. H. van Lenthe,
                               A. T. Wong, Z. Zhang.

 Total times  cpu:       35.4s     wall:       38.4s
