[1537886221.428715] [r8n3:31166:0]         sys.c:744  MXM  WARN  Conflicting CPU frequencies detected, using: 2499.99
[1537886221.435203] [r8n3:31166:0]         mxm.c:196  MXM  WARN  The 'ulimit -s' on the system is set to 'unlimited'. This may have negative performance implications. Please set the stack size to the default value (10240) 
[1537886221.437394] [r8n3:31166:0]         mxm.c:196  MXM  WARN  The 'ulimit -s' on the system is set to 'unlimited'. This may have negative performance implications. Please set the stack size to the default value (10240) 
 argument  1 = /storage/home/bikashp/nwchem_run/rabeet/hb6/nwrevtpss/F2.nw
                                         
                                         


              Northwest Computational Chemistry Package (NWChem) 6.6
              ------------------------------------------------------


                    Environmental Molecular Sciences Laboratory
                       Pacific Northwest National Laboratory
                                Richland, WA 99352

                              Copyright (c) 1994-2015
                       Pacific Northwest National Laboratory
                            Battelle Memorial Institute

             NWChem is an open-source computational chemistry package
                        distributed under the terms of the
                      Educational Community License (ECL) 2.0
             A copy of the license is included with this distribution
                              in the LICENSE.TXT file

                                  ACKNOWLEDGMENT
                                  --------------

            This software and its documentation were developed at the
            EMSL at Pacific Northwest National Laboratory, a multiprogram
            national laboratory, operated for the U.S. Department of Energy
            by Battelle under Contract Number DE-AC05-76RL01830. Support
            for this work was provided by the Department of Energy Office
            of Biological and Environmental Research, Office of Basic
            Energy Sciences, and the Office of Advanced Scientific Computing.


           Job information
           ---------------

    hostname        = r8n3.niserhpc.org
    program         = /home/bikashp/Code/nwchem-6.6_revtpss/bin/LINUX64/nwchem
    date            = Tue Sep 25 20:07:01 2018

    compiled        = Tue_Sep_25_17:05:19_2018
    source          = /home/bikashp/Code/nwchem-6.6_revtpss
    nwchem branch   = 6.6
    nwchem revision = 27746
    ga revision     = 10594
    input           = /storage/home/bikashp/nwchem_run/rabeet/hb6/nwrevtpss/F2.nw
    prefix          = F2.
    data base       = ./F2.db
    status          = startup
    nproc           =        1
    time left       =     -1s



           Memory information
           ------------------

    heap     =   13107196 doubles =    100.0 Mbytes
    stack    =   13107201 doubles =    100.0 Mbytes
    global   =   26214400 doubles =    200.0 Mbytes (distinct from heap & stack)
    total    =   52428797 doubles =    400.0 Mbytes
    verify   = yes
    hardfail = no 


           Directory information
           ---------------------

  0 permanent = .
  0 scratch   = .




                                NWChem Input Module
                                -------------------



 Scaling coordinates for geometry "geometry" by  1.889725989
 (inverse scale =  0.529177249)

 ORDER OF PRIMARY AXIS IS BEING SET TO 4
 D4H symmetry detected

          ------
          auto-z
          ------
     1 autoz failed with cvr_scaling = 1.2 changing to 1.3


                             Geometry "geometry" -> ""
                             -------------------------

 Output coordinates in angstroms (scale by  1.889725989 to convert to a.u.)

  No.       Tag          Charge          X              Y              Z
 ---- ---------------- ---------- -------------- -------------- --------------
    1 F                    9.0000     0.00000000     0.00000000     0.70711500
    2 F                    9.0000     0.00000000     0.00000000    -0.70711500

      Atomic Mass 
      ----------- 

      F                 18.998400


 Effective nuclear repulsion energy (a.u.)      30.3086182368

            Nuclear Dipole moment (a.u.) 
            ----------------------------
        X                 Y               Z
 ---------------- ---------------- ----------------
     0.0000000000     0.0000000000     0.0000000000

      Symmetry information
      --------------------

 Group name             D4h       
 Group number             28
 Group order              16
 No. of unique centers     1

      Symmetry unique atoms

     1



                                Z-matrix (autoz)
                                -------- 

 Units are Angstrom for bonds and degrees for angles

      Type          Name      I     J     K     L     M      Value
      ----------- --------  ----- ----- ----- ----- ----- ----------
    1 Stretch                  1     2                       1.41423


            XYZ format geometry
            -------------------
     2
 geometry
 F                     0.00000000     0.00000000     0.70711500
 F                     0.00000000     0.00000000    -0.70711500



 Summary of "ao basis" -> "" (cartesian)
 ------------------------------------------------------------------------------
       Tag                 Description            Shells   Functions and Types
 ---------------- ------------------------------  ------  ---------------------
 *                     6-311++G(3df,3pd)              on all atoms 



                                 NWChem DFT Module
                                 -----------------


                      Basis "ao basis" -> "ao basis" (cartesian)
                      -----
  F (Fluorine)
  ------------
            Exponent  Coefficients 
       -------------- ---------------------------------------------------------
  1 S  1.14271000E+04  0.001801
  1 S  1.72235000E+03  0.013742
  1 S  3.95746000E+02  0.068133
  1 S  1.15139000E+02  0.233325
  1 S  3.36026000E+01  0.589086
  1 S  4.91901000E+00  0.299505

  2 S  5.54441000E+01  0.114536
  2 S  1.26323000E+01  0.920512
  2 S  3.71756000E+00 -0.003378

  3 P  5.54441000E+01  0.035461
  3 P  1.26323000E+01  0.237451
  3 P  3.71756000E+00  0.820458

  4 S  1.16545000E+00  1.000000

  5 P  1.16545000E+00  1.000000

  6 S  3.21892000E-01  1.000000

  7 P  3.21892000E-01  1.000000

  8 S  1.07600000E-01  1.000000

  9 P  1.07600000E-01  1.000000

 10 D  7.00000000E+00  1.000000

 11 D  1.75000000E+00  1.000000

 12 D  4.37500000E-01  1.000000

 13 F  1.85000000E+00  1.000000



 Summary of "ao basis" -> "ao basis" (cartesian)
 ------------------------------------------------------------------------------
       Tag                 Description            Shells   Functions and Types
 ---------------- ------------------------------  ------  ---------------------
 F                     6-311++G(3df,3pd)            13       45   5s4p3d1f




 Summary of "ao basis" -> "ao basis" (cartesian)
 ------------------------------------------------------------------------------
       Tag                 Description            Shells   Functions and Types
 ---------------- ------------------------------  ------  ---------------------
 F                     6-311++G(3df,3pd)            13       45   5s4p3d1f


      Symmetry analysis of basis
      --------------------------

        a1g        17
        a1u         0
        a2g         0
        a2u        17
        b1g         4
        b1u         4
        b2g         4
        b2u         4
        eg         20
        eu         20

  Caching 1-el integrals 

            General Information
            -------------------
          SCF calculation type: DFT
          Wavefunction type:  closed shell.
          No. of atoms     :     2
          No. of electrons :    18
           Alpha electrons :     9
            Beta electrons :     9
          Charge           :     0
          Spin multiplicity:     1
          Use of symmetry is: on ; symmetry adaption is: on 
          Maximum number of iterations: ***
          AO basis - number of functions:    90
                     number of shells:    26
          Convergence on energy requested: 1.00D-06
          Convergence on density requested: 1.00D-05
          Convergence on gradient requested: 5.00D-04

              XC Information
              --------------
                  TPSS metaGGA Exchange Functional  1.000          
             TPSS03 metaGGA Correlation Functional  1.000          

             Grid Information
             ----------------
          Grid used for XC integration:  medium    
          Radial quadrature: Mura-Knowles        
          Angular quadrature: Lebedev. 
          Tag              B.-S. Rad. Rad. Pts. Rad. Cut. Ang. Pts.
          ---              ---------- --------- --------- ---------
          F                   0.50       49           7.0       434
          Grid pruning is: on 
          Number of quadrature shells:    49
          Spatial weights used:  Erf1

          Convergence Information
          -----------------------
          Convergence aids based upon iterative change in 
          total energy or number of iterations. 
          Levelshifting, if invoked, occurs when the 
          HOMO/LUMO gap drops below (HL_TOL): 1.00D-02
          DIIS, if invoked, will attempt to extrapolate 
          using up to (NFOCK): 10 stored Fock matrices.

                    Damping( 0%)  Levelshifting(0.5)       DIIS
                  --------------- ------------------- ---------------
          dE  on:    start            ASAP                start   
          dE off:    2 iters        *** iters           *** iters 


      Screening Tolerance Information
      -------------------------------
          Density screening/tol_rho: 1.00D-10
          AO Gaussian exp screening on grid/accAOfunc:  14
          CD Gaussian exp screening on grid/accCDfunc:  20
          XC Gaussian exp screening on grid/accXCfunc:  20
          Schwarz screening/accCoul: 1.00D-08


      Superposition of Atomic Density Guess
      -------------------------------------

 Sum of atomic energies:        -198.81574666

      Non-variational initial energy
      ------------------------------

 Total energy =    -198.556602
 1-e energy   =    -338.969941
 2-e energy   =     110.104721
 HOMO         =      -0.498292
 LUMO         =      -0.204472


      Symmetry analysis of molecular orbitals - initial
      -------------------------------------------------

  Numbering of irreducible representations: 

     1 a1g         2 a1u         3 a2g         4 a2u         5 b1g     
     6 b1u         7 b2g         8 b2u         9 eg         10 eu      

  Orbital symmetries:

     1 a1g         2 a2u         3 a1g         4 a2u         5 a1g     
     6 eu          7 eu          8 eg          9 eg         10 a2u     
    11 a1g        12 a2u        13 eu         14 eu         15 eg      
    16 eg         17 a1g        18 a2u        19 b1g     

   Time after variat. SCF:      0.4
   Time prior to 1st pass:      0.4

 Integral file          = ./F2.aoints.0
 Record size in doubles =    65536    No. of integs per rec  =    43688
 Max. records in memory =       23    Max. records in file   = ********
 No. of bits per label  =        8    No. of bits per value  =       64


 #quartets = 4.100D+04 #integrals = 1.425D+06 #direct =  0.0% #cached =100.0%


 Grid_pts file          = ./F2.gridpts.0
 Record size in doubles =  12289        No. of grid_pts per rec  =   3070
 Max. records in memory =      9        Max. recs in file   = 995255233


           Memory utilization after 1st SCF pass: 
           Heap Space remaining (MW):       11.49            11486348
          Stack Space remaining (MW):       13.11            13106644

   convergence    iter        energy       DeltaE   RMS-Dens  Diis-err    time
 ---------------- ----- ----------------- --------- --------- ---------  ------
 d= 0,ls=0.0,diis     1   -199.4935091265 -2.30D+02  5.24D-03  8.09D-01     1.2
 d= 0,ls=0.0,diis     2   -199.5041889570 -1.07D-02  2.78D-03  3.61D-01     1.4
 d= 0,ls=0.0,diis     3   -199.5242275097 -2.00D-02  7.37D-04  2.72D-02     1.5
 d= 0,ls=0.0,diis     4   -199.5262237185 -2.00D-03  1.38D-04  1.36D-03     1.7
 d= 0,ls=0.0,diis     5   -199.5262827961 -5.91D-05  1.33D-05  9.17D-06     1.9
  Resetting Diis
 d= 0,ls=0.0,diis     6   -199.5262803448  2.45D-06  3.72D-07  4.06D-09     2.1
 d= 0,ls=0.0,diis     7   -199.5262803839 -3.91D-08  3.52D-08  1.79D-11     2.3


         Total DFT energy =     -199.526280383870
      One electron energy =     -338.352993740701
           Coulomb energy =      129.198181216820
          Exchange energy =      -20.042615978722
       Correlation energy =       -0.637470118028
 Nuclear repulsion energy =       30.308618236762

 Numeric. integr. density =       18.000000503161

     Total iterative time =      1.9s



                  Occupations of the irreducible representations
                  ----------------------------------------------

                     irrep           alpha         beta
                     --------     --------     --------
                     a1g               3.0          3.0
                     a1u               0.0          0.0
                     a2g               0.0          0.0
                     a2u               2.0          2.0
                     b1g               0.0          0.0
                     b1u               0.0          0.0
                     b2g               0.0          0.0
                     b2u               0.0          0.0
                     eg                2.0          2.0
                     eu                2.0          2.0


                       DFT Final Molecular Orbital Analysis
                       ------------------------------------

 Vector    1  Occ=2.000000D+00  E=-2.455442D+01  Symmetry=a1g
              MO Center=  0.0D+00,  0.0D+00,  1.2D-16, r^2= 5.1D-01
   Bfn.  Coefficient  Atom+Function         Bfn.  Coefficient  Atom+Function  
  ----- ------------  ---------------      ----- ------------  ---------------
     1      0.387823  1 F  s                 46      0.387823  2 F  s          
     2      0.333739  1 F  s                 47      0.333739  2 F  s          

 Vector    2  Occ=2.000000D+00  E=-2.455442D+01  Symmetry=a2u
              MO Center=  0.0D+00,  0.0D+00, -2.9D-18, r^2= 5.1D-01
   Bfn.  Coefficient  Atom+Function         Bfn.  Coefficient  Atom+Function  
  ----- ------------  ---------------      ----- ------------  ---------------
     1      0.387820  1 F  s                 46     -0.387820  2 F  s          
     2      0.333763  1 F  s                 47     -0.333763  2 F  s          

 Vector    3  Occ=2.000000D+00  E=-1.277701D+00  Symmetry=a1g
              MO Center=  0.0D+00,  0.0D+00, -1.7D-16, r^2= 6.4D-01
   Bfn.  Coefficient  Atom+Function         Bfn.  Coefficient  Atom+Function  
  ----- ------------  ---------------      ----- ------------  ---------------
    10      0.461546  1 F  s                 55      0.461546  2 F  s          
     6      0.434901  1 F  s                 51      0.434901  2 F  s          
     2     -0.156381  1 F  s                 47     -0.156381  2 F  s          

 Vector    4  Occ=2.000000D+00  E=-1.050855D+00  Symmetry=a2u
              MO Center=  2.1D-16,  4.2D-16,  1.1D-14, r^2= 9.6D-01
   Bfn.  Coefficient  Atom+Function         Bfn.  Coefficient  Atom+Function  
  ----- ------------  ---------------      ----- ------------  ---------------
    10      0.541888  1 F  s                 55     -0.541888  2 F  s          
     6      0.499804  1 F  s                 51     -0.499804  2 F  s          
     2     -0.173343  1 F  s                 47      0.173343  2 F  s          

 Vector    5  Occ=2.000000D+00  E=-5.658129D-01  Symmetry=a1g
              MO Center= -7.9D-16, -1.4D-15, -9.5D-15, r^2= 1.1D+00
   Bfn.  Coefficient  Atom+Function         Bfn.  Coefficient  Atom+Function  
  ----- ------------  ---------------      ----- ------------  ---------------
     9      0.313676  1 F  pz                54     -0.313676  2 F  pz         
    13      0.234266  1 F  pz                58     -0.234266  2 F  pz         
     5      0.220662  1 F  pz                50     -0.220662  2 F  pz         
    10      0.163627  1 F  s                 55      0.163627  2 F  s          

 Vector    6  Occ=2.000000D+00  E=-4.803615D-01  Symmetry=eu
              MO Center= -4.1D-16,  4.6D-16,  6.6D-17, r^2= 9.2D-01
   Bfn.  Coefficient  Atom+Function         Bfn.  Coefficient  Atom+Function  
  ----- ------------  ---------------      ----- ------------  ---------------
     8      0.237402  1 F  py                53      0.237402  2 F  py         
     7     -0.212842  1 F  px                52     -0.212842  2 F  px         
    12      0.192445  1 F  py                57      0.192445  2 F  py         
    11     -0.172536  1 F  px                56     -0.172536  2 F  px         
     4      0.163812  1 F  py                49      0.163812  2 F  py         

 Vector    7  Occ=2.000000D+00  E=-4.803615D-01  Symmetry=eu
              MO Center=  1.3D-15,  1.2D-15,  4.1D-15, r^2= 9.2D-01
   Bfn.  Coefficient  Atom+Function         Bfn.  Coefficient  Atom+Function  
  ----- ------------  ---------------      ----- ------------  ---------------
     7      0.237402  1 F  px                52      0.237402  2 F  px         
     8      0.212842  1 F  py                53      0.212842  2 F  py         
    11      0.192445  1 F  px                56      0.192445  2 F  px         
    12      0.172536  1 F  py                57      0.172536  2 F  py         
     3      0.163812  1 F  px                48      0.163812  2 F  px         

 Vector    8  Occ=2.000000D+00  E=-3.551297D-01  Symmetry=eg
              MO Center= -2.1D-16, -1.9D-16, -3.9D-15, r^2= 9.6D-01
   Bfn.  Coefficient  Atom+Function         Bfn.  Coefficient  Atom+Function  
  ----- ------------  ---------------      ----- ------------  ---------------
     7      0.353391  1 F  px                52     -0.353391  2 F  px         
    11      0.303076  1 F  px                56     -0.303076  2 F  px         
     3      0.243524  1 F  px                48     -0.243524  2 F  px         

 Vector    9  Occ=2.000000D+00  E=-3.551297D-01  Symmetry=eg
              MO Center= -1.1D-17, -7.2D-16,  1.9D-17, r^2= 9.6D-01
   Bfn.  Coefficient  Atom+Function         Bfn.  Coefficient  Atom+Function  
  ----- ------------  ---------------      ----- ------------  ---------------
     8      0.353391  1 F  py                53     -0.353391  2 F  py         
    12      0.303076  1 F  py                57     -0.303076  2 F  py         
     4      0.243524  1 F  py                49     -0.243524  2 F  py         

 Vector   10  Occ=0.000000D+00  E=-2.049867D-01  Symmetry=a2u
              MO Center=  4.8D-17, -3.1D-18, -1.8D-15, r^2= 1.0D+00
   Bfn.  Coefficient  Atom+Function         Bfn.  Coefficient  Atom+Function  
  ----- ------------  ---------------      ----- ------------  ---------------
     9      0.380846  1 F  pz                54      0.380846  2 F  pz         
    13      0.364621  1 F  pz                58      0.364621  2 F  pz         
     5      0.259276  1 F  pz                50      0.259276  2 F  pz         
    10     -0.220664  1 F  s                 55      0.220664  2 F  s          
     6     -0.167021  1 F  s                 51      0.167021  2 F  s          

 Vector   11  Occ=0.000000D+00  E= 9.219281D-02  Symmetry=a1g
              MO Center=  2.4D-17,  2.1D-17,  3.7D-16, r^2= 4.5D+00
   Bfn.  Coefficient  Atom+Function         Bfn.  Coefficient  Atom+Function  
  ----- ------------  ---------------      ----- ------------  ---------------
    14      1.046383  1 F  s                 59      1.046383  2 F  s          
     6     -0.256069  1 F  s                 51     -0.256069  2 F  s          
    17      0.243542  1 F  pz                62     -0.243542  2 F  pz         
    35     -0.200234  1 F  dzz               80     -0.200234  2 F  dzz        
    30     -0.189918  1 F  dxx               33     -0.189918  1 F  dyy        

 Vector   12  Occ=0.000000D+00  E= 1.444975D-01  Symmetry=a2u
              MO Center= -1.0D-16,  2.6D-16,  2.1D-15, r^2= 6.1D+00
   Bfn.  Coefficient  Atom+Function         Bfn.  Coefficient  Atom+Function  
  ----- ------------  ---------------      ----- ------------  ---------------
    17      1.556598  1 F  pz                62      1.556598  2 F  pz         
    14     -1.381816  1 F  s                 59      1.381816  2 F  s          
    13     -0.405198  1 F  pz                58     -0.405198  2 F  pz         

 Vector   13  Occ=0.000000D+00  E= 1.716428D-01  Symmetry=eu
              MO Center=  9.0D-15, -4.8D-15,  3.8D-15, r^2= 4.3D+00
   Bfn.  Coefficient  Atom+Function         Bfn.  Coefficient  Atom+Function  
  ----- ------------  ---------------      ----- ------------  ---------------
    15      0.622320  1 F  px                60      0.622320  2 F  px         
    16     -0.322931  1 F  py                61     -0.322931  2 F  py         
    11     -0.287673  1 F  px                56     -0.287673  2 F  px         

 Vector   14  Occ=0.000000D+00  E= 1.716428D-01  Symmetry=eu
              MO Center= -3.9D-15, -7.5D-15, -7.6D-15, r^2= 4.3D+00
   Bfn.  Coefficient  Atom+Function         Bfn.  Coefficient  Atom+Function  
  ----- ------------  ---------------      ----- ------------  ---------------
    16      0.622320  1 F  py                61      0.622320  2 F  py         
    15      0.322931  1 F  px                60      0.322931  2 F  px         
    12     -0.287673  1 F  py                57     -0.287673  2 F  py         

 Vector   15  Occ=0.000000D+00  E= 2.448323D-01  Symmetry=a1g
              MO Center= -4.4D-15,  1.4D-14, -2.1D-15, r^2= 4.9D+00
   Bfn.  Coefficient  Atom+Function         Bfn.  Coefficient  Atom+Function  
  ----- ------------  ---------------      ----- ------------  ---------------
    17      1.124533  1 F  pz                62     -1.124533  2 F  pz         
    13     -0.272480  1 F  pz                58      0.272480  2 F  pz         

 Vector   16  Occ=0.000000D+00  E= 2.499768D-01  Symmetry=eg
              MO Center=  6.8D-19,  3.0D-18,  1.0D-14, r^2= 5.5D+00
   Bfn.  Coefficient  Atom+Function         Bfn.  Coefficient  Atom+Function  
  ----- ------------  ---------------      ----- ------------  ---------------
    16      1.446244  1 F  py                61     -1.446244  2 F  py         
    15      0.328514  1 F  px                60     -0.328514  2 F  px         
    12     -0.318618  1 F  py                57      0.318618  2 F  py         

 Vector   17  Occ=0.000000D+00  E= 2.499768D-01  Symmetry=eg
              MO Center= -3.0D-18,  6.8D-19, -5.1D-15, r^2= 5.5D+00
   Bfn.  Coefficient  Atom+Function         Bfn.  Coefficient  Atom+Function  
  ----- ------------  ---------------      ----- ------------  ---------------
    15      1.446244  1 F  px                60     -1.446244  2 F  px         
    16     -0.328514  1 F  py                61      0.328514  2 F  py         
    11     -0.318618  1 F  px                56      0.318618  2 F  px         

 Vector   18  Occ=0.000000D+00  E= 3.900815D-01  Symmetry=a2u
              MO Center=  6.3D-18, -5.0D-17,  6.1D-15, r^2= 5.6D+00
   Bfn.  Coefficient  Atom+Function         Bfn.  Coefficient  Atom+Function  
  ----- ------------  ---------------      ----- ------------  ---------------
    14     10.016873  1 F  s                 59    -10.016873  2 F  s          
    17     -4.377254  1 F  pz                62     -4.377254  2 F  pz         
    10     -0.360602  1 F  s                 55      0.360602  2 F  s          
    35     -0.352578  1 F  dzz               80      0.352578  2 F  dzz        
    30     -0.343190  1 F  dxx               33     -0.343190  1 F  dyy        

 Vector   19  Occ=0.000000D+00  E= 8.870363D-01  Symmetry=b1g
              MO Center=  1.0D-16,  3.7D-18,  1.3D-16, r^2= 1.5D+00
   Bfn.  Coefficient  Atom+Function         Bfn.  Coefficient  Atom+Function  
  ----- ------------  ---------------      ----- ------------  ---------------
    30      0.555279  1 F  dxx               33     -0.555279  1 F  dyy        
    75      0.555279  2 F  dxx               78     -0.555279  2 F  dyy        


 center of mass
 --------------
 x =   0.00000000 y =   0.00000000 z =   0.00000000

 moments of inertia (a.u.)
 ------------------
          67.846085367448           0.000000000000           0.000000000000
           0.000000000000          67.846085367448           0.000000000000
           0.000000000000           0.000000000000           0.000000000000

     Multipole analysis of the density
     ---------------------------------

     L   x y z        total         alpha         beta         nuclear
     -   - - -        -----         -----         ----         -------
     0   0 0 0     -0.000000     -9.000000     -9.000000     18.000000

     1   1 0 0      0.000000      0.000000      0.000000      0.000000
     1   0 1 0      0.000000      0.000000      0.000000      0.000000
     1   0 0 1      0.000000      0.000000      0.000000      0.000000

     2   2 0 0     -7.296240     -3.648120     -3.648120      0.000000
     2   1 1 0      0.000000      0.000000      0.000000      0.000000
     2   1 0 1      0.000000      0.000000      0.000000      0.000000
     2   0 2 0     -7.296240     -3.648120     -3.648120      0.000000
     2   0 1 1      0.000000      0.000000      0.000000      0.000000
     2   0 0 2     -6.502962    -19.321644    -19.321644     32.140326


------------------------------------------------------------
EAF file 0: "./F2.aoints.0" size=5242880 bytes
------------------------------------------------------------
               write      read    awrite     aread      wait
               -----      ----    ------     -----      ----
     calls:       10         6         0        54        54
   data(b): 5.24e+06  3.15e+06  0.00e+00  2.83e+07
   time(s): 0.00e+00  0.00e+00  0.00e+00  0.00e+00  0.00e+00
rate(mb/s): 0.00e+00  0.00e+00
------------------------------------------------------------


 Parallel integral file used      33 records with       0 large values


 Task  times  cpu:        2.2s     wall:        2.7s


                                NWChem Input Module
                                -------------------


 Summary of allocated global arrays
-----------------------------------
  No active global arrays



                         GA Statistics for process    0
                         ------------------------------

       create   destroy   get      put      acc     scatter   gather  read&inc
calls:  227      227     2.51e+04 1.01e+04 1765        0        0      238     
number of processes/call 1.00e+00 1.00e+00 1.00e+00 0.00e+00 0.00e+00
bytes total:             5.12e+07 1.71e+07 3.63e+07 0.00e+00 0.00e+00 1.90e+03
bytes remote:            0.00e+00 0.00e+00 0.00e+00 0.00e+00 0.00e+00 0.00e+00
Max memory consumed for GA by this process: 2527200 bytes

MA_summarize_allocated_blocks: starting scan ...
MA_summarize_allocated_blocks: scan completed: 0 heap blocks, 0 stack blocks
MA usage statistics:

	allocation statistics:
					      heap	     stack
					      ----	     -----
	current number of blocks	         0	         0
	maximum number of blocks	        24	        55
	current total bytes		         0	         0
	maximum total bytes		  12966208	  23546344
	maximum total K-bytes		     12967	     23547
	maximum total M-bytes		        13	        24


                                     CITATION
                                     --------
                Please cite the following reference when publishing
                           results obtained with NWChem:

                 M. Valiev, E.J. Bylaska, N. Govind, K. Kowalski,
              T.P. Straatsma, H.J.J. van Dam, D. Wang, J. Nieplocha,
                        E. Apra, T.L. Windus, W.A. de Jong
                 "NWChem: a comprehensive and scalable open-source
                  solution for large scale molecular simulations"
                      Comput. Phys. Commun. 181, 1477 (2010)
                           doi:10.1016/j.cpc.2010.04.018

                                      AUTHORS
                                      -------
          E. Apra, E. J. Bylaska, W. A. de Jong, N. Govind, K. Kowalski,
       T. P. Straatsma, M. Valiev, H. J. J. van Dam, D. Wang, T. L. Windus,
        J. Hammond, J. Autschbach, K. Bhaskaran-Nair, J. Brabec, K. Lopata,
       S. A. Fischer, S. Krishnamoorthy, W. Ma, M. Klemm, O. Villa, Y. Chen,
    V. Anisimov, F. Aquino, S. Hirata, M. T. Hackler, T. Risthaus, M. Malagoli,
       A. Marenich, A. Otero-de-la-Roza, J. Mullin, P. Nichols, R. Peverati,
     J. Pittner, Y. Zhao, P.-D. Fan, A. Fonari, M. Williamson, R. J. Harrison,
       J. R. Rehr, M. Dupuis, D. Silverstein, D. M. A. Smith, J. Nieplocha,
        V. Tipparaju, M. Krishnan, B. E. Van Kuiken, A. Vazquez-Mayagoitia,
        L. Jensen, M. Swart, Q. Wu, T. Van Voorhis, A. A. Auer, M. Nooijen,
      L. D. Crosby, E. Brown, G. Cisneros, G. I. Fann, H. Fruchtl, J. Garza,
        K. Hirao, R. A. Kendall, J. A. Nichols, K. Tsemekhman, K. Wolinski,
     J. Anchell, D. E. Bernholdt, P. Borowski, T. Clark, D. Clerc, H. Dachsel,
   M. J. O. Deegan, K. Dyall, D. Elwood, E. Glendening, M. Gutowski, A. C. Hess,
         J. Jaffe, B. G. Johnson, J. Ju, R. Kobayashi, R. Kutteh, Z. Lin,
   R. Littlefield, X. Long, B. Meng, T. Nakajima, S. Niu, L. Pollack, M. Rosing,
   K. Glaesemann, G. Sandrone, M. Stave, H. Taylor, G. Thomas, J. H. van Lenthe,
                               A. T. Wong, Z. Zhang.

 Total times  cpu:        2.3s     wall:        2.9s
