[1537886229.813089] [r8n3:31205:0]         sys.c:744  MXM  WARN  Conflicting CPU frequencies detected, using: 2499.99
[1537886229.819980] [r8n3:31205:0]         mxm.c:196  MXM  WARN  The 'ulimit -s' on the system is set to 'unlimited'. This may have negative performance implications. Please set the stack size to the default value (10240) 
[1537886229.822477] [r8n3:31205:0]         mxm.c:196  MXM  WARN  The 'ulimit -s' on the system is set to 'unlimited'. This may have negative performance implications. Please set the stack size to the default value (10240) 
 argument  1 = /storage/home/bikashp/nwchem_run/rabeet/hb6/nwrevtpss/H2O-H2O.nw
                                         
                                         


              Northwest Computational Chemistry Package (NWChem) 6.6
              ------------------------------------------------------


                    Environmental Molecular Sciences Laboratory
                       Pacific Northwest National Laboratory
                                Richland, WA 99352

                              Copyright (c) 1994-2015
                       Pacific Northwest National Laboratory
                            Battelle Memorial Institute

             NWChem is an open-source computational chemistry package
                        distributed under the terms of the
                      Educational Community License (ECL) 2.0
             A copy of the license is included with this distribution
                              in the LICENSE.TXT file

                                  ACKNOWLEDGMENT
                                  --------------

            This software and its documentation were developed at the
            EMSL at Pacific Northwest National Laboratory, a multiprogram
            national laboratory, operated for the U.S. Department of Energy
            by Battelle under Contract Number DE-AC05-76RL01830. Support
            for this work was provided by the Department of Energy Office
            of Biological and Environmental Research, Office of Basic
            Energy Sciences, and the Office of Advanced Scientific Computing.


           Job information
           ---------------

    hostname        = r8n3.niserhpc.org
    program         = /home/bikashp/Code/nwchem-6.6_revtpss/bin/LINUX64/nwchem
    date            = Tue Sep 25 20:07:10 2018

    compiled        = Tue_Sep_25_17:05:19_2018
    source          = /home/bikashp/Code/nwchem-6.6_revtpss
    nwchem branch   = 6.6
    nwchem revision = 27746
    ga revision     = 10594
    input           = /storage/home/bikashp/nwchem_run/rabeet/hb6/nwrevtpss/H2O-H2O.nw
    prefix          = H2O-H2O.
    data base       = ./H2O-H2O.db
    status          = startup
    nproc           =        1
    time left       =     -1s



           Memory information
           ------------------

    heap     =   13107196 doubles =    100.0 Mbytes
    stack    =   13107201 doubles =    100.0 Mbytes
    global   =   26214400 doubles =    200.0 Mbytes (distinct from heap & stack)
    total    =   52428797 doubles =    400.0 Mbytes
    verify   = yes
    hardfail = no 


           Directory information
           ---------------------

  0 permanent = .
  0 scratch   = .




                                NWChem Input Module
                                -------------------



 Scaling coordinates for geometry "geometry" by  1.889725989
 (inverse scale =  0.529177249)

 C1  symmetry detected

          ------
          auto-z
          ------
  autoz: The atoms group into disjoint clusters
 cluster   1:    1    2    3
 cluster   2:    4    5    6
 Connecting clusters   1   2 via atoms    2    4 r = 1.97
  autoz: regenerating connections with new bonds


                             Geometry "geometry" -> ""
                             -------------------------

 Output coordinates in angstroms (scale by  1.889725989 to convert to a.u.)

  No.       Tag          Charge          X              Y              Z
 ---- ---------------- ---------- -------------- -------------- --------------
    1 O                    8.0000     0.01959277    -1.53498043    -0.06604063
    2 H                    1.0000    -0.01653885    -0.57478224     0.04178485
    3 H                    1.0000    -0.23518907    -1.87917305     0.79441927
    4 O                    8.0000    -0.01665569     1.39905500     0.05697394
    5 H                    1.0000    -0.61633501     1.77694689    -0.59418791
    6 H                    1.0000     0.84456633     1.76441188    -0.16948269

      Atomic Mass 
      ----------- 

      O                 15.994910
      H                  1.007825


 Effective nuclear repulsion energy (a.u.)      36.3853068700

            Nuclear Dipole moment (a.u.) 
            ----------------------------
        X                 Y               Z
 ---------------- ---------------- ----------------
     0.0000000000    -0.0000000000     0.0000000000



                                Z-matrix (autoz)
                                -------- 

 Units are Angstrom for bonds and degrees for angles

      Type          Name      I     J     K     L     M      Value
      ----------- --------  ----- ----- ----- ----- ----- ----------
    1 Stretch                  1     2                       0.96691
    2 Stretch                  1     3                       0.96113
    3 Stretch                  2     4                       1.97390
    4 Stretch                  4     5                       0.96251
    5 Stretch                  4     6                       0.96253
    6 Bend                     1     2     4               173.66346
    7 Bend                     2     4     5               112.79465
    8 Bend                     2     4     6               112.19151
    9 Bend                     2     1     3               104.23418
   10 Bend                     5     4     6               104.43403
   11 Torsion                  1     2     4     5          62.27351
   12 Torsion                  1     2     4     6         -55.33588
   13 Torsion                  3     1     2     4         176.80283


            XYZ format geometry
            -------------------
     6
 geometry
 O                     0.01959277    -1.53498043    -0.06604063
 H                    -0.01653885    -0.57478224     0.04178485
 H                    -0.23518907    -1.87917305     0.79441927
 O                    -0.01665569     1.39905500     0.05697394
 H                    -0.61633501     1.77694689    -0.59418791
 H                     0.84456633     1.76441188    -0.16948269

 ==============================================================================
                                internuclear distances
 ------------------------------------------------------------------------------
       center one      |      center two      | atomic units |  angstroms
 ------------------------------------------------------------------------------
    2 H                |   1 O                |     1.82719  |     0.96691
    3 H                |   1 O                |     1.81627  |     0.96113
    5 H                |   4 O                |     1.81888  |     0.96251
    6 H                |   4 O                |     1.81893  |     0.96253
 ------------------------------------------------------------------------------
                         number of included internuclear distances:          4
 ==============================================================================



 ==============================================================================
                                 internuclear angles
 ------------------------------------------------------------------------------
        center 1       |       center 2       |       center 3       |  degrees
 ------------------------------------------------------------------------------
    2 H                |   1 O                |   3 H                |   104.23
    5 H                |   4 O                |   6 H                |   104.43
 ------------------------------------------------------------------------------
                            number of included internuclear angles:          2
 ==============================================================================





 Summary of "ao basis" -> "" (cartesian)
 ------------------------------------------------------------------------------
       Tag                 Description            Shells   Functions and Types
 ---------------- ------------------------------  ------  ---------------------
 *                     6-311++G(3df,3pd)              on all atoms 



                                 NWChem DFT Module
                                 -----------------


                      Basis "ao basis" -> "ao basis" (cartesian)
                      -----
  O (Oxygen)
  ----------
            Exponent  Coefficients 
       -------------- ---------------------------------------------------------
  1 S  8.58850000E+03  0.001895
  1 S  1.29723000E+03  0.014386
  1 S  2.99296000E+02  0.070732
  1 S  8.73771000E+01  0.240001
  1 S  2.56789000E+01  0.594797
  1 S  3.74004000E+00  0.280802

  2 S  4.21175000E+01  0.113889
  2 S  9.62837000E+00  0.920811
  2 S  2.85332000E+00 -0.003274

  3 P  4.21175000E+01  0.036511
  3 P  9.62837000E+00  0.237153
  3 P  2.85332000E+00  0.819702

  4 S  9.05661000E-01  1.000000

  5 P  9.05661000E-01  1.000000

  6 S  2.55611000E-01  1.000000

  7 P  2.55611000E-01  1.000000

  8 S  8.45000000E-02  1.000000

  9 P  8.45000000E-02  1.000000

 10 D  5.16000000E+00  1.000000

 11 D  1.29200000E+00  1.000000

 12 D  3.22500000E-01  1.000000

 13 F  1.40000000E+00  1.000000

  H (Hydrogen)
  ------------
            Exponent  Coefficients 
       -------------- ---------------------------------------------------------
  1 S  3.38650000E+01  0.025494
  1 S  5.09479000E+00  0.190373
  1 S  1.15879000E+00  0.852161

  2 S  3.25840000E-01  1.000000

  3 S  1.02741000E-01  1.000000

  4 S  3.60000000E-02  1.000000

  5 P  3.00000000E+00  1.000000

  6 P  7.50000000E-01  1.000000

  7 P  1.87500000E-01  1.000000

  8 D  1.00000000E+00  1.000000



 Summary of "ao basis" -> "ao basis" (cartesian)
 ------------------------------------------------------------------------------
       Tag                 Description            Shells   Functions and Types
 ---------------- ------------------------------  ------  ---------------------
 O                     6-311++G(3df,3pd)            13       45   5s4p3d1f
 H                     6-311++G(3df,3pd)             8       19   4s3p1d




 Summary of "ao basis" -> "ao basis" (cartesian)
 ------------------------------------------------------------------------------
       Tag                 Description            Shells   Functions and Types
 ---------------- ------------------------------  ------  ---------------------
 O                     6-311++G(3df,3pd)            13       45   5s4p3d1f
 H                     6-311++G(3df,3pd)             8       19   4s3p1d


  Caching 1-el integrals 

            General Information
            -------------------
          SCF calculation type: DFT
          Wavefunction type:  closed shell.
          No. of atoms     :     6
          No. of electrons :    20
           Alpha electrons :    10
            Beta electrons :    10
          Charge           :     0
          Spin multiplicity:     1
          Use of symmetry is: off; symmetry adaption is: off
          Maximum number of iterations: ***
          AO basis - number of functions:   166
                     number of shells:    58
          Convergence on energy requested: 1.00D-06
          Convergence on density requested: 1.00D-05
          Convergence on gradient requested: 5.00D-04

              XC Information
              --------------
                  TPSS metaGGA Exchange Functional  1.000          
             TPSS03 metaGGA Correlation Functional  1.000          

             Grid Information
             ----------------
          Grid used for XC integration:  medium    
          Radial quadrature: Mura-Knowles        
          Angular quadrature: Lebedev. 
          Tag              B.-S. Rad. Rad. Pts. Rad. Cut. Ang. Pts.
          ---              ---------- --------- --------- ---------
          O                   0.60       49          13.0       434
          H                   0.35       45          14.0       434
          Grid pruning is: on 
          Number of quadrature shells:   278
          Spatial weights used:  Erf1

          Convergence Information
          -----------------------
          Convergence aids based upon iterative change in 
          total energy or number of iterations. 
          Levelshifting, if invoked, occurs when the 
          HOMO/LUMO gap drops below (HL_TOL): 1.00D-02
          DIIS, if invoked, will attempt to extrapolate 
          using up to (NFOCK): 10 stored Fock matrices.

                    Damping( 0%)  Levelshifting(0.5)       DIIS
                  --------------- ------------------- ---------------
          dE  on:    start            ASAP                start   
          dE off:    2 iters        *** iters           *** iters 


      Screening Tolerance Information
      -------------------------------
          Density screening/tol_rho: 1.00D-10
          AO Gaussian exp screening on grid/accAOfunc:  14
          CD Gaussian exp screening on grid/accCDfunc:  20
          XC Gaussian exp screening on grid/accXCfunc:  20
          Schwarz screening/accCoul: 1.00D-08


      Superposition of Atomic Density Guess
      -------------------------------------

 Sum of atomic energies:        -151.55484409

      Non-variational initial energy
      ------------------------------

 Total energy =    -151.898206
 1-e energy   =    -279.446819
 2-e energy   =      91.163307
 HOMO         =      -0.480618
 LUMO         =       0.005496

   Time after variat. SCF:      1.6
   Time prior to 1st pass:      1.6

 Integral file          = ./H2O-H2O.aoints.0
 Record size in doubles =    65536    No. of integs per rec  =    43688
 Max. records in memory =        0    Max. records in file   = ********
 No. of bits per label  =        8    No. of bits per value  =       64


 #quartets = 1.166D+06 #integrals = 5.780D+07 #direct =  0.0% #cached =100.0%


 Grid_pts file          = ./H2O-H2O.gridpts.0
 Record size in doubles =  12289        No. of grid_pts per rec  =   3070
 Max. records in memory =     45        Max. recs in file   = 995232698


           Memory utilization after 1st SCF pass: 
           Heap Space remaining (MW):       12.50            12496836
          Stack Space remaining (MW):       13.11            13106196

   convergence    iter        energy       DeltaE   RMS-Dens  Diis-err    time
 ---------------- ----- ----------------- --------- --------- ---------  ------
 d= 0,ls=0.0,diis     1   -152.7941390970 -1.89D+02  6.27D-03  8.72D-01    15.9
 d= 0,ls=0.0,diis     2   -152.6929366395  1.01D-01  4.00D-03  1.96D+00    21.9
 d= 0,ls=0.0,diis     3   -152.8694290344 -1.76D-01  4.56D-04  5.13D-02    28.1
 d= 0,ls=0.0,diis     4   -152.8729484786 -3.52D-03  1.68D-04  2.36D-03    34.3
 d= 0,ls=0.0,diis     5   -152.8730450169 -9.65D-05  7.49D-05  1.15D-03    40.5
  Resetting Diis
 d= 0,ls=0.0,diis     6   -152.8731453145 -1.00D-04  9.21D-06  1.07D-05    46.8
 d= 0,ls=0.0,diis     7   -152.8731424165  2.90D-06  2.61D-06  1.46D-07    52.7
 d= 0,ls=0.0,diis     8   -152.8731431511 -7.35D-07  1.25D-06  2.24D-07    58.6


         Total DFT energy =     -152.873143151055
      One electron energy =     -281.982269850938
           Coulomb energy =      111.318756457660
          Exchange energy =      -17.914054806422
       Correlation energy =       -0.680881821391
 Nuclear repulsion energy =       36.385306870035

 Numeric. integr. density =       19.999997392366

     Total iterative time =     57.0s



                       DFT Final Molecular Orbital Analysis
                       ------------------------------------

 Vector    1  Occ=2.000000D+00  E=-1.895026D+01
              MO Center= -1.7D-02,  1.4D+00,  5.7D-02, r^2= 1.5D-02
   Bfn.  Coefficient  Atom+Function         Bfn.  Coefficient  Atom+Function  
  ----- ------------  ---------------      ----- ------------  ---------------
    84      0.552104  4 O  s                 85      0.470198  4 O  s          

 Vector    2  Occ=2.000000D+00  E=-1.889440D+01
              MO Center=  2.0D-02, -1.5D+00, -6.6D-02, r^2= 1.5D-02
   Bfn.  Coefficient  Atom+Function         Bfn.  Coefficient  Atom+Function  
  ----- ------------  ---------------      ----- ------------  ---------------
     1      0.552104  1 O  s                  2      0.470207  1 O  s          

 Vector    3  Occ=2.000000D+00  E=-9.836345D-01
              MO Center=  2.7D-02,  1.5D+00, -8.9D-02, r^2= 5.3D-01
   Bfn.  Coefficient  Atom+Function         Bfn.  Coefficient  Atom+Function  
  ----- ------------  ---------------      ----- ------------  ---------------
    89      0.565575  4 O  s                 93      0.536362  4 O  s          
    85     -0.204300  4 O  s          

 Vector    4  Occ=2.000000D+00  E=-9.278620D-01
              MO Center= -3.0D-02, -1.4D+00,  9.8D-02, r^2= 5.4D-01
   Bfn.  Coefficient  Atom+Function         Bfn.  Coefficient  Atom+Function  
  ----- ------------  ---------------      ----- ------------  ---------------
     6      0.565694  1 O  s                 10      0.528500  1 O  s          
     2     -0.203924  1 O  s          

 Vector    5  Occ=2.000000D+00  E=-5.147296D-01
              MO Center=  3.1D-02,  1.5D+00, -1.0D-01, r^2= 7.7D-01
   Bfn.  Coefficient  Atom+Function         Bfn.  Coefficient  Atom+Function  
  ----- ------------  ---------------      ----- ------------  ---------------
    90      0.327910  4 O  px                94      0.267801  4 O  px         
    86      0.234432  4 O  px               129     -0.157494  5 H  s          
   148      0.157424  6 H  s          

 Vector    6  Occ=2.000000D+00  E=-4.643023D-01
              MO Center= -3.2D-02, -1.3D+00,  1.1D-01, r^2= 1.1D+00
   Bfn.  Coefficient  Atom+Function         Bfn.  Coefficient  Atom+Function  
  ----- ------------  ---------------      ----- ------------  ---------------
     8      0.281683  1 O  py                12      0.210232  1 O  py         
     4      0.201610  1 O  py                 9     -0.163547  1 O  pz         
    47      0.155392  2 H  s                 65     -0.153009  3 H  s          
    46      0.151226  2 H  s          

 Vector    7  Occ=2.000000D+00  E=-3.806777D-01
              MO Center= -2.7D-02,  1.1D+00,  9.3D-02, r^2= 1.4D+00
   Bfn.  Coefficient  Atom+Function         Bfn.  Coefficient  Atom+Function  
  ----- ------------  ---------------      ----- ------------  ---------------
    93      0.298708  4 O  s                 92      0.250713  4 O  pz         
    91     -0.231452  4 O  py                96      0.229843  4 O  pz         
    95     -0.224490  4 O  py                89      0.207567  4 O  s          
    88      0.179885  4 O  pz                87     -0.166444  4 O  py         

 Vector    8  Occ=2.000000D+00  E=-3.237040D-01
              MO Center=  2.6D-02, -1.2D+00, -8.8D-02, r^2= 1.8D+00
   Bfn.  Coefficient  Atom+Function         Bfn.  Coefficient  Atom+Function  
  ----- ------------  ---------------      ----- ------------  ---------------
    10      0.340703  1 O  s                  9     -0.275621  1 O  pz         
    13     -0.238958  1 O  pz                 6      0.203072  1 O  s          
     5     -0.197944  1 O  pz                 8     -0.175713  1 O  py         
    12     -0.151569  1 O  py         

 Vector    9  Occ=2.000000D+00  E=-2.958388D-01
              MO Center= -2.9D-03,  1.1D+00,  1.1D-02, r^2= 1.6D+00
   Bfn.  Coefficient  Atom+Function         Bfn.  Coefficient  Atom+Function  
  ----- ------------  ---------------      ----- ------------  ---------------
    95      0.325752  4 O  py                91      0.314865  4 O  py         
    92      0.241085  4 O  pz                87      0.220924  4 O  py         
    96      0.217906  4 O  pz                88      0.169135  4 O  pz         

 Vector   10  Occ=2.000000D+00  E=-2.452935D-01
              MO Center=  9.4D-03, -1.5D+00, -3.2D-02, r^2= 7.4D-01
   Bfn.  Coefficient  Atom+Function         Bfn.  Coefficient  Atom+Function  
  ----- ------------  ---------------      ----- ------------  ---------------
     7      0.404990  1 O  px                11      0.375534  1 O  px         
     3      0.282797  1 O  px         

 Vector   11  Occ=0.000000D+00  E=-4.584487D-02
              MO Center=  1.4D-01,  1.8D+00, -4.7D-01, r^2= 7.5D+00
   Bfn.  Coefficient  Atom+Function         Bfn.  Coefficient  Atom+Function  
  ----- ------------  ---------------      ----- ------------  ---------------
    97      0.789414  4 O  s                132     -0.598192  5 H  s          
   151     -0.595343  6 H  s                 93      0.350564  4 O  s          
   131     -0.306021  5 H  s                150     -0.306035  6 H  s          
    68     -0.283882  3 H  s                 49      0.169701  2 H  s          
    89      0.169037  4 O  s          

 Vector   12  Occ=0.000000D+00  E=-2.999194D-03
              MO Center= -3.1D-01, -1.7D+00,  1.0D+00, r^2= 9.5D+00
   Bfn.  Coefficient  Atom+Function         Bfn.  Coefficient  Atom+Function  
  ----- ------------  ---------------      ----- ------------  ---------------
    68      1.275779  3 H  s                 14     -1.078340  1 O  s          
    10     -0.367871  1 O  s                132     -0.362616  5 H  s          
    48      0.360441  2 H  s                151     -0.351047  6 H  s          
    67      0.287673  3 H  s                 49      0.260431  2 H  s          
    17     -0.180181  1 O  pz                97      0.161508  4 O  s          

 Vector   13  Occ=0.000000D+00  E= 7.927620D-03
              MO Center=  1.6D-01,  1.9D+00, -5.4D-01, r^2= 1.0D+01
   Bfn.  Coefficient  Atom+Function         Bfn.  Coefficient  Atom+Function  
  ----- ------------  ---------------      ----- ------------  ---------------
   132      2.121103  5 H  s                151     -2.128510  6 H  s          
    98      0.331613  4 O  px         

 Vector   14  Occ=0.000000D+00  E= 5.001891D-02
              MO Center=  4.8D-02, -4.6D-01, -2.1D-01, r^2= 1.6D+01
   Bfn.  Coefficient  Atom+Function         Bfn.  Coefficient  Atom+Function  
  ----- ------------  ---------------      ----- ------------  ---------------
    49      5.227799  2 H  s                 68     -2.955049  3 H  s          
    14     -2.163089  1 O  s                 97     -1.263916  4 O  s          
    48      1.170643  2 H  s                132     -0.980688  5 H  s          
   151     -0.984155  6 H  s                 16     -0.752712  1 O  py         
   150      0.558943  6 H  s                131      0.549445  5 H  s          

 Vector   15  Occ=0.000000D+00  E= 1.076151D-01
              MO Center=  2.3D-01,  1.2D+00, -8.1D-01, r^2= 8.2D+00
   Bfn.  Coefficient  Atom+Function         Bfn.  Coefficient  Atom+Function  
  ----- ------------  ---------------      ----- ------------  ---------------
   131     -2.949448  5 H  s                150     -2.923459  6 H  s          
    97      2.846898  4 O  s                100     -1.362369  4 O  pz         
   132      0.807397  5 H  s                151      0.797431  6 H  s          
    67      0.721836  3 H  s                 14     -0.644662  1 O  s          
    17     -0.520320  1 O  pz                48     -0.493776  2 H  s          

 Vector   16  Occ=0.000000D+00  E= 1.126074D-01
              MO Center= -1.5D-01,  1.1D+00,  3.8D-01, r^2= 7.3D+00
   Bfn.  Coefficient  Atom+Function         Bfn.  Coefficient  Atom+Function  
  ----- ------------  ---------------      ----- ------------  ---------------
    97      2.177677  4 O  s                100     -1.222955  4 O  pz         
    49     -1.046129  2 H  s                 67      0.946800  3 H  s          
    17     -0.543421  1 O  pz                48     -0.491153  2 H  s          
    68      0.451206  3 H  s                150     -0.453083  6 H  s          
    98      0.409230  4 O  px               132     -0.372775  5 H  s          

 Vector   17  Occ=0.000000D+00  E= 1.158208D-01
              MO Center=  4.0D-02,  1.1D+00,  4.0D-02, r^2= 6.5D+00
   Bfn.  Coefficient  Atom+Function         Bfn.  Coefficient  Atom+Function  
  ----- ------------  ---------------      ----- ------------  ---------------
   131      3.892162  5 H  s                150     -3.895199  6 H  s          
    98      2.009885  4 O  px               151      0.977204  6 H  s          
   132     -0.957748  5 H  s                 94      0.766547  4 O  px         
   100      0.611795  4 O  pz               158      0.439603  6 H  px         
   130      0.396288  5 H  s                149     -0.390501  6 H  s          

 Vector   18  Occ=0.000000D+00  E= 1.365853D-01
              MO Center= -1.3D-01, -2.1D+00,  4.5D-01, r^2= 7.3D+00
   Bfn.  Coefficient  Atom+Function         Bfn.  Coefficient  Atom+Function  
  ----- ------------  ---------------      ----- ------------  ---------------
    48      3.593788  2 H  s                 67     -3.459531  3 H  s          
    97     -2.396561  4 O  s                 16     -1.637497  1 O  py         
    14     -1.533129  1 O  s                131      1.143166  5 H  s          
   150      1.148035  6 H  s                 68      1.050863  3 H  s          
    49      0.959157  2 H  s                 57     -0.595631  2 H  py         

 Vector   19  Occ=0.000000D+00  E= 1.530544D-01
              MO Center= -6.8D-02,  3.5D-01,  2.4D-01, r^2= 1.1D+01
   Bfn.  Coefficient  Atom+Function         Bfn.  Coefficient  Atom+Function  
  ----- ------------  ---------------      ----- ------------  ---------------
    48      4.307041  2 H  s                 97      4.086619  4 O  s          
    14     -2.405909  1 O  s                131     -2.392238  5 H  s          
   150     -2.398457  6 H  s                 99      2.062165  4 O  py         
    16     -1.677047  1 O  py                68     -1.010053  3 H  s          
    49      0.961593  2 H  s                 17     -0.610971  1 O  pz         

 Vector   20  Occ=0.000000D+00  E= 1.687165D-01
              MO Center=  9.2D-02,  6.6D-02, -3.1D-01, r^2= 1.0D+01
   Bfn.  Coefficient  Atom+Function         Bfn.  Coefficient  Atom+Function  
  ----- ------------  ---------------      ----- ------------  ---------------
   132      1.980696  5 H  s                151     -1.983164  6 H  s          
    15      1.072720  1 O  px               150      0.697074  6 H  s          
    98      0.658865  4 O  px               131     -0.627763  5 H  s          
    11     -0.289702  1 O  px                17      0.287756  1 O  pz         
    94     -0.285909  4 O  px               100      0.214182  4 O  pz         

 Vector   21  Occ=0.000000D+00  E= 1.862829D-01
              MO Center=  9.7D-04, -2.5D-01,  3.6D-02, r^2= 1.1D+01
   Bfn.  Coefficient  Atom+Function         Bfn.  Coefficient  Atom+Function  
  ----- ------------  ---------------      ----- ------------  ---------------
    97      7.394721  4 O  s                150     -3.723141  6 H  s          
   131     -3.631067  5 H  s                 67      3.001423  3 H  s          
    14     -2.562434  1 O  s                 48     -2.243616  2 H  s          
    16      1.667388  1 O  py                99      1.633565  4 O  py         
   100     -1.427652  4 O  pz                17     -1.151696  1 O  pz         

 Vector   22  Occ=0.000000D+00  E= 1.942673D-01
              MO Center=  3.8D-02, -4.1D-01, -1.6D-01, r^2= 7.1D+00
   Bfn.  Coefficient  Atom+Function         Bfn.  Coefficient  Atom+Function  
  ----- ------------  ---------------      ----- ------------  ---------------
    97      8.089586  4 O  s                 14      6.021761  1 O  s          
    67     -4.221981  3 H  s                150     -4.130641  6 H  s          
   131     -3.855438  5 H  s                 48     -3.015757  2 H  s          
    49     -3.002211  2 H  s                100     -1.780823  4 O  pz         
    68      1.705551  3 H  s                 17      1.653922  1 O  pz         

 Vector   23  Occ=0.000000D+00  E= 1.969368D-01
              MO Center= -8.8D-02,  4.2D-01,  2.3D-01, r^2= 8.7D+00
   Bfn.  Coefficient  Atom+Function         Bfn.  Coefficient  Atom+Function  
  ----- ------------  ---------------      ----- ------------  ---------------
    98      3.131554  4 O  px               131      3.093439  5 H  s          
   150     -2.605027  6 H  s                151     -1.227475  6 H  s          
   132      1.187381  5 H  s                100      1.021454  4 O  pz         
    15     -0.827770  1 O  px                97     -0.491687  4 O  s          
   130      0.386890  5 H  s                158      0.363489  6 H  px         

 Vector   24  Occ=0.000000D+00  E= 2.199359D-01
              MO Center= -4.7D-02, -2.1D-01,  2.5D-01, r^2= 8.7D+00
   Bfn.  Coefficient  Atom+Function         Bfn.  Coefficient  Atom+Function  
  ----- ------------  ---------------      ----- ------------  ---------------
    14      8.714882  1 O  s                 67     -5.651803  3 H  s          
    48     -4.234585  2 H  s                 17      2.966043  1 O  pz         
    10      1.973863  1 O  s                 49      1.831551  2 H  s          
    99      1.610462  4 O  py                57      1.594690  2 H  py         
    47     -1.228178  2 H  s                 16      1.119335  1 O  py         

 Vector   25  Occ=0.000000D+00  E= 2.567709D-01
              MO Center=  1.4D-01, -3.4D-01, -5.1D-01, r^2= 8.4D+00
   Bfn.  Coefficient  Atom+Function         Bfn.  Coefficient  Atom+Function  
  ----- ------------  ---------------      ----- ------------  ---------------
    14      5.667413  1 O  s                 97     -5.197225  4 O  s          
    48     -4.303349  2 H  s                 49     -3.361295  2 H  s          
    16      3.114075  1 O  py               150      3.102563  6 H  s          
   131      3.029728  5 H  s                 68      1.942884  3 H  s          
    57      1.389275  2 H  py                10      1.185828  1 O  s          

 Vector   26  Occ=0.000000D+00  E= 2.837237D-01
              MO Center= -8.8D-03, -7.2D-02,  8.5D-03, r^2= 6.6D+00
   Bfn.  Coefficient  Atom+Function         Bfn.  Coefficient  Atom+Function  
  ----- ------------  ---------------      ----- ------------  ---------------
    14      9.117648  1 O  s                 97      8.288503  4 O  s          
    48     -6.223568  2 H  s                 67     -4.541858  3 H  s          
   131     -3.726006  5 H  s                150     -3.731586  6 H  s          
    17      2.318803  1 O  pz                49     -1.674773  2 H  s          
   100     -1.537437  4 O  pz                16      1.087276  1 O  py         

 Vector   27  Occ=0.000000D+00  E= 3.046859D-01
              MO Center=  5.4D-02,  6.8D-01, -1.9D-01, r^2= 5.0D+00
   Bfn.  Coefficient  Atom+Function         Bfn.  Coefficient  Atom+Function  
  ----- ------------  ---------------      ----- ------------  ---------------
   131      2.103725  5 H  s                150     -1.884675  6 H  s          
    98      1.071547  4 O  px               140     -0.884730  5 H  py         
   159      0.811931  6 H  py                56     -0.634763  2 H  px         
    14     -0.624018  1 O  s                 48      0.620034  2 H  s          
    94      0.529797  4 O  px                75      0.416304  3 H  px         

 Vector   28  Occ=0.000000D+00  E= 3.089988D-01
              MO Center=  6.9D-02, -3.8D-01, -2.2D-01, r^2= 7.4D+00
   Bfn.  Coefficient  Atom+Function         Bfn.  Coefficient  Atom+Function  
  ----- ------------  ---------------      ----- ------------  ---------------
    14      8.042052  1 O  s                 48     -7.720590  2 H  s          
    49     -4.245406  2 H  s                 97      3.275339  4 O  s          
    16      2.164327  1 O  py                99     -1.949681  4 O  py         
    68      1.432451  3 H  s                150     -0.808092  6 H  s          
   151      0.647112  6 H  s                132      0.621873  5 H  s          

 Vector   29  Occ=0.000000D+00  E= 3.830077D-01
              MO Center= -7.8D-02,  2.0D-01,  2.9D-01, r^2= 7.8D+00
   Bfn.  Coefficient  Atom+Function         Bfn.  Coefficient  Atom+Function  
  ----- ------------  ---------------      ----- ------------  ---------------
   131      5.163989  5 H  s                150     -5.144573  6 H  s          
    98      2.046441  4 O  px               158      1.336171  6 H  px         
   141      1.267712  5 H  pz                94      1.219327  4 O  px         
    75      1.047266  3 H  px               132     -0.966417  5 H  s          
   151      0.969031  6 H  s                 15     -0.779370  1 O  px         

 Vector   30  Occ=0.000000D+00  E= 4.042658D-01
              MO Center= -7.8D-02,  8.7D-02,  2.5D-01, r^2= 7.6D+00
   Bfn.  Coefficient  Atom+Function         Bfn.  Coefficient  Atom+Function  
  ----- ------------  ---------------      ----- ------------  ---------------
   150     -5.592153  6 H  s                131      5.508256  5 H  s          
    98      2.312825  4 O  px               158      1.233820  6 H  px         
    75     -1.029345  3 H  px                94      1.011387  4 O  px         
   141      0.957886  5 H  pz               139      0.829980  5 H  px         
   132     -0.780417  5 H  s                151      0.769943  6 H  s          

 Vector   31  Occ=0.000000D+00  E= 4.143116D-01
              MO Center= -4.7D-02,  4.2D-02,  1.7D-01, r^2= 7.2D+00
   Bfn.  Coefficient  Atom+Function         Bfn.  Coefficient  Atom+Function  
  ----- ------------  ---------------      ----- ------------  ---------------
    97      8.362231  4 O  s                131     -5.622777  5 H  s          
   150     -5.474327  6 H  s                 48      4.200425  2 H  s          
   100     -2.846592  4 O  pz                14     -2.691276  1 O  s          
    99      2.126134  4 O  py                16     -2.087077  1 O  py         
    67     -1.255157  3 H  s                139     -0.961402  5 H  px         

 Vector   32  Occ=0.000000D+00  E= 4.321219D-01
              MO Center= -4.7D-02, -1.2D+00,  1.5D-01, r^2= 7.4D+00
   Bfn.  Coefficient  Atom+Function         Bfn.  Coefficient  Atom+Function  
  ----- ------------  ---------------      ----- ------------  ---------------
    48      9.945595  2 H  s                 67     -7.373467  3 H  s          
    97     -6.060264  4 O  s                131      3.753156  5 H  s          
   150      3.736818  6 H  s                 16     -3.154005  1 O  py         
    57     -2.943242  2 H  py                14     -2.598291  1 O  s          
    12     -2.292731  1 O  py                77      2.018403  3 H  pz         

 Vector   33  Occ=0.000000D+00  E= 4.767686D-01
              MO Center= -6.2D-02,  6.6D-01,  1.7D-01, r^2= 7.6D+00
   Bfn.  Coefficient  Atom+Function         Bfn.  Coefficient  Atom+Function  
  ----- ------------  ---------------      ----- ------------  ---------------
    67      5.558024  3 H  s                131      4.454599  5 H  s          
   150      4.421704  6 H  s                 97     -3.932421  4 O  s          
    14     -3.419926  1 O  s                 99     -1.490910  4 O  py         
    17     -1.477871  1 O  pz                93     -1.130649  4 O  s          
    77     -1.060293  3 H  pz               141      1.056905  5 H  pz         

 Vector   34  Occ=0.000000D+00  E= 4.923116D-01
              MO Center= -1.1D-02,  3.5D-01, -1.3D-01, r^2= 4.4D+00
   Bfn.  Coefficient  Atom+Function         Bfn.  Coefficient  Atom+Function  
  ----- ------------  ---------------      ----- ------------  ---------------
    56      1.183993  2 H  px               131      0.930107  5 H  s          
   140     -0.878123  5 H  py               159      0.733651  6 H  py         
   150     -0.561619  6 H  s                 94      0.468300  4 O  px         
    14      0.418052  1 O  s                 97     -0.410524  4 O  s          
   132     -0.387683  5 H  s                 48     -0.355725  2 H  s          

 Vector   35  Occ=0.000000D+00  E= 4.941717D-01
              MO Center=  1.5D-01,  1.0D+00, -3.3D-01, r^2= 5.9D+00
   Bfn.  Coefficient  Atom+Function         Bfn.  Coefficient  Atom+Function  
  ----- ------------  ---------------      ----- ------------  ---------------
    97      6.897908  4 O  s                150     -3.706294  6 H  s          
   131     -3.563950  5 H  s                 57     -2.552466  2 H  py         
   100     -2.182415  4 O  pz                48      1.779421  2 H  s          
    10     -1.701706  1 O  s                 14     -1.549052  1 O  s          
    99     -1.330968  4 O  py                93     -1.158388  4 O  s          

 Vector   36  Occ=0.000000D+00  E= 5.515208D-01
              MO Center=  9.4D-02,  1.6D+00, -3.2D-01, r^2= 4.7D+00
   Bfn.  Coefficient  Atom+Function         Bfn.  Coefficient  Atom+Function  
  ----- ------------  ---------------      ----- ------------  ---------------
    98      2.493402  4 O  px               139     -1.434192  5 H  px         
   160     -1.440059  6 H  pz               132      1.031689  5 H  s          
   151     -1.024510  6 H  s                 56     -0.862591  2 H  px         
   141      0.814146  5 H  pz               158     -0.766889  6 H  px         
   149     -0.751678  6 H  s                 94      0.741244  4 O  px         


 center of mass
 --------------
 x =   0.00122224 y =  -0.05656425 z =  -0.00377303

 moments of inertia (a.u.)
 ------------------
         286.820158084245           0.000000000000          -0.000000000001
           0.000000000000           8.257753401846          -0.000000000000
          -0.000000000001          -0.000000000000         286.906551517762

     Multipole analysis of the density
     ---------------------------------

     L   x y z        total         alpha         beta         nuclear
     -   - - -        -----         -----         ----         -------
     0   0 0 0     -0.000000    -10.000000    -10.000000     20.000000

     1   1 0 0     -0.014140     -0.007070     -0.007070      0.000000
     1   0 1 0      1.074409      0.537205      0.537205     -0.000000
     1   0 0 1      0.042814      0.021407      0.021407      0.000000

     2   2 0 0     -9.172897     -6.647022     -6.647022      4.121147
     2   1 1 0      1.261626     -0.118078     -0.118078      1.497781
     2   1 0 1      0.086803      0.011964      0.011964      0.062875
     2   0 2 0     -8.785808    -84.099977    -84.099977    159.414146
     2   0 1 1     -4.315250      0.383366      0.383366     -5.081982
     2   0 0 2     -9.492337     -6.666492     -6.666492      3.840647


------------------------------------------------------------
EAF file 0: "./H2O-H2O.aoints.0" size=693633024 bytes
------------------------------------------------------------
               write      read    awrite     aread      wait
               -----      ----    ------     -----      ----
     calls:     1323         7         0      9254      9254
   data(b): 6.94e+08  3.67e+06  0.00e+00  4.85e+09
   time(s): 0.00e+00  0.00e+00  0.00e+00  0.00e+00  0.00e+00
rate(mb/s): 0.00e+00  0.00e+00
------------------------------------------------------------


 Parallel integral file used    1323 records with       0 large values


 Task  times  cpu:       58.8s     wall:       64.1s


                                NWChem Input Module
                                -------------------


 Summary of allocated global arrays
-----------------------------------
  No active global arrays



                         GA Statistics for process    0
                         ------------------------------

       create   destroy   get      put      acc     scatter   gather  read&inc
calls:  147      147     3.68e+04 7922     2.00e+04    0        0     1077     
number of processes/call 1.00e+00 1.00e+00 1.00e+00 0.00e+00 0.00e+00
bytes total:             2.37e+08 3.00e+07 1.41e+08 0.00e+00 0.00e+00 8.62e+03
bytes remote:            0.00e+00 0.00e+00 0.00e+00 0.00e+00 0.00e+00 0.00e+00
Max memory consumed for GA by this process: 8597472 bytes

MA_summarize_allocated_blocks: starting scan ...
MA_summarize_allocated_blocks: scan completed: 0 heap blocks, 0 stack blocks
MA usage statistics:

	allocation statistics:
					      heap	     stack
					      ----	     -----
	current number of blocks	         0	         0
	maximum number of blocks	        22	        51
	current total bytes		         0	         0
	maximum total bytes		   4882368	  22516904
	maximum total K-bytes		      4883	     22517
	maximum total M-bytes		         5	        23


                                     CITATION
                                     --------
                Please cite the following reference when publishing
                           results obtained with NWChem:

                 M. Valiev, E.J. Bylaska, N. Govind, K. Kowalski,
              T.P. Straatsma, H.J.J. van Dam, D. Wang, J. Nieplocha,
                        E. Apra, T.L. Windus, W.A. de Jong
                 "NWChem: a comprehensive and scalable open-source
                  solution for large scale molecular simulations"
                      Comput. Phys. Commun. 181, 1477 (2010)
                           doi:10.1016/j.cpc.2010.04.018

                                      AUTHORS
                                      -------
          E. Apra, E. J. Bylaska, W. A. de Jong, N. Govind, K. Kowalski,
       T. P. Straatsma, M. Valiev, H. J. J. van Dam, D. Wang, T. L. Windus,
        J. Hammond, J. Autschbach, K. Bhaskaran-Nair, J. Brabec, K. Lopata,
       S. A. Fischer, S. Krishnamoorthy, W. Ma, M. Klemm, O. Villa, Y. Chen,
    V. Anisimov, F. Aquino, S. Hirata, M. T. Hackler, T. Risthaus, M. Malagoli,
       A. Marenich, A. Otero-de-la-Roza, J. Mullin, P. Nichols, R. Peverati,
     J. Pittner, Y. Zhao, P.-D. Fan, A. Fonari, M. Williamson, R. J. Harrison,
       J. R. Rehr, M. Dupuis, D. Silverstein, D. M. A. Smith, J. Nieplocha,
        V. Tipparaju, M. Krishnan, B. E. Van Kuiken, A. Vazquez-Mayagoitia,
        L. Jensen, M. Swart, Q. Wu, T. Van Voorhis, A. A. Auer, M. Nooijen,
      L. D. Crosby, E. Brown, G. Cisneros, G. I. Fann, H. Fruchtl, J. Garza,
        K. Hirao, R. A. Kendall, J. A. Nichols, K. Tsemekhman, K. Wolinski,
     J. Anchell, D. E. Bernholdt, P. Borowski, T. Clark, D. Clerc, H. Dachsel,
   M. J. O. Deegan, K. Dyall, D. Elwood, E. Glendening, M. Gutowski, A. C. Hess,
         J. Jaffe, B. G. Johnson, J. Ju, R. Kobayashi, R. Kutteh, Z. Lin,
   R. Littlefield, X. Long, B. Meng, T. Nakajima, S. Niu, L. Pollack, M. Rosing,
   K. Glaesemann, G. Sandrone, M. Stave, H. Taylor, G. Thomas, J. H. van Lenthe,
                               A. T. Wong, Z. Zhang.

 Total times  cpu:       58.9s     wall:       64.3s
