[1537886225.002875] [r8n3:31181:0]         sys.c:744  MXM  WARN  Conflicting CPU frequencies detected, using: 2499.99
[1537886225.009849] [r8n3:31181:0]         mxm.c:196  MXM  WARN  The 'ulimit -s' on the system is set to 'unlimited'. This may have negative performance implications. Please set the stack size to the default value (10240) 
[1537886225.012317] [r8n3:31181:0]         mxm.c:196  MXM  WARN  The 'ulimit -s' on the system is set to 'unlimited'. This may have negative performance implications. Please set the stack size to the default value (10240) 
 argument  1 = /storage/home/bikashp/nwchem_run/rabeet/hb6/nwrevtpss/H2O.nw
                                         
                                         


              Northwest Computational Chemistry Package (NWChem) 6.6
              ------------------------------------------------------


                    Environmental Molecular Sciences Laboratory
                       Pacific Northwest National Laboratory
                                Richland, WA 99352

                              Copyright (c) 1994-2015
                       Pacific Northwest National Laboratory
                            Battelle Memorial Institute

             NWChem is an open-source computational chemistry package
                        distributed under the terms of the
                      Educational Community License (ECL) 2.0
             A copy of the license is included with this distribution
                              in the LICENSE.TXT file

                                  ACKNOWLEDGMENT
                                  --------------

            This software and its documentation were developed at the
            EMSL at Pacific Northwest National Laboratory, a multiprogram
            national laboratory, operated for the U.S. Department of Energy
            by Battelle under Contract Number DE-AC05-76RL01830. Support
            for this work was provided by the Department of Energy Office
            of Biological and Environmental Research, Office of Basic
            Energy Sciences, and the Office of Advanced Scientific Computing.


           Job information
           ---------------

    hostname        = r8n3.niserhpc.org
    program         = /home/bikashp/Code/nwchem-6.6_revtpss/bin/LINUX64/nwchem
    date            = Tue Sep 25 20:07:05 2018

    compiled        = Tue_Sep_25_17:05:19_2018
    source          = /home/bikashp/Code/nwchem-6.6_revtpss
    nwchem branch   = 6.6
    nwchem revision = 27746
    ga revision     = 10594
    input           = /storage/home/bikashp/nwchem_run/rabeet/hb6/nwrevtpss/H2O.nw
    prefix          = H2O.
    data base       = ./H2O.db
    status          = startup
    nproc           =        1
    time left       =     -1s



           Memory information
           ------------------

    heap     =   13107196 doubles =    100.0 Mbytes
    stack    =   13107201 doubles =    100.0 Mbytes
    global   =   26214400 doubles =    200.0 Mbytes (distinct from heap & stack)
    total    =   52428797 doubles =    400.0 Mbytes
    verify   = yes
    hardfail = no 


           Directory information
           ---------------------

  0 permanent = .
  0 scratch   = .




                                NWChem Input Module
                                -------------------



 Scaling coordinates for geometry "geometry" by  1.889725989
 (inverse scale =  0.529177249)

 C2V symmetry detected

          ------
          auto-z
          ------


                             Geometry "geometry" -> ""
                             -------------------------

 Output coordinates in angstroms (scale by  1.889725989 to convert to a.u.)

  No.       Tag          Charge          X              Y              Z
 ---- ---------------- ---------- -------------- -------------- --------------
    1 O                    8.0000     0.00000000     0.00000000     0.11926200
    2 H                    1.0000    -0.76324000     0.00000000    -0.47704800
    3 H                    1.0000     0.76324000     0.00000000    -0.47704800

      Atomic Mass 
      ----------- 

      O                 15.994910
      H                  1.007825


 Effective nuclear repulsion energy (a.u.)       9.0882813003

            Nuclear Dipole moment (a.u.) 
            ----------------------------
        X                 Y               Z
 ---------------- ---------------- ----------------
     0.0000000000     0.0000000000     0.0000000000

      Symmetry information
      --------------------

 Group name             C2v       
 Group number             16
 Group order               4
 No. of unique centers     2

      Symmetry unique atoms

     1    2



                                Z-matrix (autoz)
                                -------- 

 Units are Angstrom for bonds and degrees for angles

      Type          Name      I     J     K     L     M      Value
      ----------- --------  ----- ----- ----- ----- ----- ----------
    1 Stretch                  1     2                       0.96857
    2 Stretch                  1     3                       0.96857
    3 Bend                     2     1     3               103.99985


            XYZ format geometry
            -------------------
     3
 geometry
 O                     0.00000000     0.00000000     0.11926200
 H                    -0.76324000     0.00000000    -0.47704800
 H                     0.76324000     0.00000000    -0.47704800

 ==============================================================================
                                internuclear distances
 ------------------------------------------------------------------------------
       center one      |      center two      | atomic units |  angstroms
 ------------------------------------------------------------------------------
    2 H                |   1 O                |     1.83033  |     0.96857
    3 H                |   1 O                |     1.83033  |     0.96857
 ------------------------------------------------------------------------------
                         number of included internuclear distances:          2
 ==============================================================================



 ==============================================================================
                                 internuclear angles
 ------------------------------------------------------------------------------
        center 1       |       center 2       |       center 3       |  degrees
 ------------------------------------------------------------------------------
    2 H                |   1 O                |   3 H                |   104.00
 ------------------------------------------------------------------------------
                            number of included internuclear angles:          1
 ==============================================================================





 Summary of "ao basis" -> "" (cartesian)
 ------------------------------------------------------------------------------
       Tag                 Description            Shells   Functions and Types
 ---------------- ------------------------------  ------  ---------------------
 *                     6-311++G(3df,3pd)              on all atoms 



                                 NWChem DFT Module
                                 -----------------


                      Basis "ao basis" -> "ao basis" (cartesian)
                      -----
  O (Oxygen)
  ----------
            Exponent  Coefficients 
       -------------- ---------------------------------------------------------
  1 S  8.58850000E+03  0.001895
  1 S  1.29723000E+03  0.014386
  1 S  2.99296000E+02  0.070732
  1 S  8.73771000E+01  0.240001
  1 S  2.56789000E+01  0.594797
  1 S  3.74004000E+00  0.280802

  2 S  4.21175000E+01  0.113889
  2 S  9.62837000E+00  0.920811
  2 S  2.85332000E+00 -0.003274

  3 P  4.21175000E+01  0.036511
  3 P  9.62837000E+00  0.237153
  3 P  2.85332000E+00  0.819702

  4 S  9.05661000E-01  1.000000

  5 P  9.05661000E-01  1.000000

  6 S  2.55611000E-01  1.000000

  7 P  2.55611000E-01  1.000000

  8 S  8.45000000E-02  1.000000

  9 P  8.45000000E-02  1.000000

 10 D  5.16000000E+00  1.000000

 11 D  1.29200000E+00  1.000000

 12 D  3.22500000E-01  1.000000

 13 F  1.40000000E+00  1.000000

  H (Hydrogen)
  ------------
            Exponent  Coefficients 
       -------------- ---------------------------------------------------------
  1 S  3.38650000E+01  0.025494
  1 S  5.09479000E+00  0.190373
  1 S  1.15879000E+00  0.852161

  2 S  3.25840000E-01  1.000000

  3 S  1.02741000E-01  1.000000

  4 S  3.60000000E-02  1.000000

  5 P  3.00000000E+00  1.000000

  6 P  7.50000000E-01  1.000000

  7 P  1.87500000E-01  1.000000

  8 D  1.00000000E+00  1.000000



 Summary of "ao basis" -> "ao basis" (cartesian)
 ------------------------------------------------------------------------------
       Tag                 Description            Shells   Functions and Types
 ---------------- ------------------------------  ------  ---------------------
 O                     6-311++G(3df,3pd)            13       45   5s4p3d1f
 H                     6-311++G(3df,3pd)             8       19   4s3p1d




 Summary of "ao basis" -> "ao basis" (cartesian)
 ------------------------------------------------------------------------------
       Tag                 Description            Shells   Functions and Types
 ---------------- ------------------------------  ------  ---------------------
 O                     6-311++G(3df,3pd)            13       45   5s4p3d1f
 H                     6-311++G(3df,3pd)             8       19   4s3p1d


      Symmetry analysis of basis
      --------------------------

        a1         35
        a2          9
        b1         24
        b2         15

  Caching 1-el integrals 

            General Information
            -------------------
          SCF calculation type: DFT
          Wavefunction type:  closed shell.
          No. of atoms     :     3
          No. of electrons :    10
           Alpha electrons :     5
            Beta electrons :     5
          Charge           :     0
          Spin multiplicity:     1
          Use of symmetry is: on ; symmetry adaption is: on 
          Maximum number of iterations: ***
          AO basis - number of functions:    83
                     number of shells:    29
          Convergence on energy requested: 1.00D-06
          Convergence on density requested: 1.00D-05
          Convergence on gradient requested: 5.00D-04

              XC Information
              --------------
                  TPSS metaGGA Exchange Functional  1.000          
             TPSS03 metaGGA Correlation Functional  1.000          

             Grid Information
             ----------------
          Grid used for XC integration:  medium    
          Radial quadrature: Mura-Knowles        
          Angular quadrature: Lebedev. 
          Tag              B.-S. Rad. Rad. Pts. Rad. Cut. Ang. Pts.
          ---              ---------- --------- --------- ---------
          O                   0.60       49           8.0       434
          H                   0.35       45          11.0       434
          Grid pruning is: on 
          Number of quadrature shells:    94
          Spatial weights used:  Erf1

          Convergence Information
          -----------------------
          Convergence aids based upon iterative change in 
          total energy or number of iterations. 
          Levelshifting, if invoked, occurs when the 
          HOMO/LUMO gap drops below (HL_TOL): 1.00D-02
          DIIS, if invoked, will attempt to extrapolate 
          using up to (NFOCK): 10 stored Fock matrices.

                    Damping( 0%)  Levelshifting(0.5)       DIIS
                  --------------- ------------------- ---------------
          dE  on:    start            ASAP                start   
          dE off:    2 iters        *** iters           *** iters 


      Screening Tolerance Information
      -------------------------------
          Density screening/tol_rho: 1.00D-10
          AO Gaussian exp screening on grid/accAOfunc:  14
          CD Gaussian exp screening on grid/accCDfunc:  20
          XC Gaussian exp screening on grid/accXCfunc:  20
          Schwarz screening/accCoul: 1.00D-08


      Superposition of Atomic Density Guess
      -------------------------------------

 Sum of atomic energies:         -75.77742205

      Non-variational initial energy
      ------------------------------

 Total energy =     -75.918683
 1-e energy   =    -121.537839
 2-e energy   =      36.530875
 HOMO         =      -0.479167
 LUMO         =       0.014894


      Symmetry analysis of molecular orbitals - initial
      -------------------------------------------------

  Numbering of irreducible representations: 

     1 a1          2 a2          3 b1          4 b2      

  Orbital symmetries:

     1 a1          2 a1          3 b1          4 a1          5 b2      
     6 a1          7 b1          8 a1          9 a1         10 b1      
    11 b2         12 a1         13 b1         14 a1         15 a2      

   Time after variat. SCF:      0.3
   Time prior to 1st pass:      0.3

 Integral file          = ./H2O.aoints.0
 Record size in doubles =    65536    No. of integs per rec  =    43688
 Max. records in memory =       63    Max. records in file   = ********
 No. of bits per label  =        8    No. of bits per value  =       64


 #quartets = 5.952D+04 #integrals = 1.893D+06 #direct =  0.0% #cached =100.0%


 Grid_pts file          = ./H2O.gridpts.0
 Record size in doubles =  12289        No. of grid_pts per rec  =   3070
 Max. records in memory =     16        Max. recs in file   = 995253946


           Memory utilization after 1st SCF pass: 
           Heap Space remaining (MW):        8.78             8778860
          Stack Space remaining (MW):       13.11            13106644

   convergence    iter        energy       DeltaE   RMS-Dens  Diis-err    time
 ---------------- ----- ----------------- --------- --------- ---------  ------
 d= 0,ls=0.0,diis     1    -76.3888277063 -8.55D+01  9.31D-03  4.71D-01     1.2
 d= 0,ls=0.0,diis     2    -76.3206733493  6.82D-02  5.88D-03  1.20D+00     1.6
 d= 0,ls=0.0,diis     3    -76.4310182540 -1.10D-01  6.08D-04  2.57D-02     2.0
 d= 0,ls=0.0,diis     4    -76.4328072656 -1.79D-03  1.39D-04  7.13D-04     2.3
 d= 0,ls=0.0,diis     5    -76.4328752872 -6.80D-05  1.12D-05  8.00D-06     2.7
  Resetting Diis
 d= 0,ls=0.0,diis     6    -76.4328729088  2.38D-06  2.35D-06  8.52D-08     3.1
 d= 0,ls=0.0,diis     7    -76.4328731380 -2.29D-07  2.54D-07  5.32D-10     3.5


         Total DFT energy =      -76.432873137975
      One electron energy =     -122.783771861464
           Coulomb energy =       46.549049649230
          Exchange energy =       -8.947707950138
       Correlation energy =       -0.338724275933
 Nuclear repulsion energy =        9.088281300329

 Numeric. integr. density =       10.000001381274

     Total iterative time =      3.2s



                  Occupations of the irreducible representations
                  ----------------------------------------------

                     irrep           alpha         beta
                     --------     --------     --------
                     a1                3.0          3.0
                     a2                0.0          0.0
                     b1                1.0          1.0
                     b2                1.0          1.0


                       DFT Final Molecular Orbital Analysis
                       ------------------------------------

 Vector    1  Occ=2.000000D+00  E=-1.892567D+01  Symmetry=a1
              MO Center=  1.4D-17,  9.6D-27,  1.2D-01, r^2= 1.5D-02
   Bfn.  Coefficient  Atom+Function         Bfn.  Coefficient  Atom+Function  
  ----- ------------  ---------------      ----- ------------  ---------------
     1      0.552109  1 O  s                  2      0.470193  1 O  s          

 Vector    2  Occ=2.000000D+00  E=-9.548308D-01  Symmetry=a1
              MO Center= -1.3D-17, -3.6D-42, -8.0D-02, r^2= 5.0D-01
   Bfn.  Coefficient  Atom+Function         Bfn.  Coefficient  Atom+Function  
  ----- ------------  ---------------      ----- ------------  ---------------
     6      0.567413  1 O  s                 10      0.530511  1 O  s          
     2     -0.204229  1 O  s          

 Vector    3  Occ=2.000000D+00  E=-4.874335D-01  Symmetry=b1
              MO Center= -9.1D-18,  4.5D-34, -1.0D-01, r^2= 7.8D-01
   Bfn.  Coefficient  Atom+Function         Bfn.  Coefficient  Atom+Function  
  ----- ------------  ---------------      ----- ------------  ---------------
     7      0.339108  1 O  px                11      0.271450  1 O  px         
     3      0.242782  1 O  px                46     -0.156912  2 H  s          
    65      0.156912  3 H  s          

 Vector    4  Occ=2.000000D+00  E=-3.506054D-01  Symmetry=a1
              MO Center=  5.4D-16,  1.0D-15,  1.7D-01, r^2= 7.5D-01
   Bfn.  Coefficient  Atom+Function         Bfn.  Coefficient  Atom+Function  
  ----- ------------  ---------------      ----- ------------  ---------------
     9      0.362029  1 O  pz                10      0.356275  1 O  s          
    13      0.312664  1 O  pz                 5      0.260034  1 O  pz         
     6      0.220151  1 O  s          

 Vector    5  Occ=2.000000D+00  E=-2.705842D-01  Symmetry=b2
              MO Center=  2.4D-16, -8.0D-16,  7.8D-02, r^2= 7.1D-01
   Bfn.  Coefficient  Atom+Function         Bfn.  Coefficient  Atom+Function  
  ----- ------------  ---------------      ----- ------------  ---------------
     8      0.425766  1 O  py                12      0.387379  1 O  py         
     4      0.296856  1 O  py         

 Vector    6  Occ=0.000000D+00  E=-3.436748D-02  Symmetry=a1
              MO Center=  2.1D-14, -5.4D-15, -7.9D-01, r^2= 6.8D+00
   Bfn.  Coefficient  Atom+Function         Bfn.  Coefficient  Atom+Function  
  ----- ------------  ---------------      ----- ------------  ---------------
    14      0.901826  1 O  s                 49     -0.618920  2 H  s          
    68     -0.618920  3 H  s                 10      0.360374  1 O  s          
    48     -0.321449  2 H  s                 67     -0.321449  3 H  s          
    13     -0.166321  1 O  pz                 6      0.153940  1 O  s          

 Vector    7  Occ=0.000000D+00  E= 1.554814D-02  Symmetry=b1
              MO Center= -4.6D-14, -2.4D-16, -7.0D-01, r^2= 1.1D+01
   Bfn.  Coefficient  Atom+Function         Bfn.  Coefficient  Atom+Function  
  ----- ------------  ---------------      ----- ------------  ---------------
    49      2.148634  2 H  s                 68     -2.148634  3 H  s          
    15      0.373374  1 O  px         

 Vector    8  Occ=0.000000D+00  E= 1.196288D-01  Symmetry=a1
              MO Center=  1.9D-15,  4.1D-17, -6.1D-01, r^2= 7.7D+00
   Bfn.  Coefficient  Atom+Function         Bfn.  Coefficient  Atom+Function  
  ----- ------------  ---------------      ----- ------------  ---------------
    48      2.183445  2 H  s                 67      2.183445  3 H  s          
    14     -1.234238  1 O  s                 49     -0.927429  2 H  s          
    68     -0.927429  3 H  s                 17      0.475546  1 O  pz         
    10     -0.369116  1 O  s                 13      0.296549  1 O  pz         
     6     -0.276034  1 O  s                 33     -0.211164  1 O  dyy        

 Vector    9  Occ=0.000000D+00  E= 1.332034D-01  Symmetry=b1
              MO Center= -1.1D-15, -6.1D-31, -4.4D-02, r^2= 6.1D+00
   Bfn.  Coefficient  Atom+Function         Bfn.  Coefficient  Atom+Function  
  ----- ------------  ---------------      ----- ------------  ---------------
    48      4.029098  2 H  s                 67     -4.029098  3 H  s          
    15      1.975810  1 O  px                49     -1.337066  2 H  s          
    68      1.337066  3 H  s                 11      0.819698  1 O  px         
    56      0.416735  2 H  px                75      0.416735  3 H  px         
    47      0.345620  2 H  s                 66     -0.345620  3 H  s          

 Vector   10  Occ=0.000000D+00  E= 1.397290D-01  Symmetry=a1
              MO Center= -2.1D-16, -1.9D-18,  7.0D-01, r^2= 5.0D+00
   Bfn.  Coefficient  Atom+Function         Bfn.  Coefficient  Atom+Function  
  ----- ------------  ---------------      ----- ------------  ---------------
    17     -2.007042  1 O  pz                14      1.835387  1 O  s          
    48     -1.733737  2 H  s                 67     -1.733737  3 H  s          
    13      0.362005  1 O  pz                 6      0.245068  1 O  s          
    35      0.228056  1 O  dzz               33      0.209490  1 O  dyy        
    49      0.197438  2 H  s                 68      0.197438  3 H  s          

 Vector   11  Occ=0.000000D+00  E= 1.410887D-01  Symmetry=b2
              MO Center=  2.3D-18,  4.8D-15,  1.8D-01, r^2= 5.0D+00
   Bfn.  Coefficient  Atom+Function         Bfn.  Coefficient  Atom+Function  
  ----- ------------  ---------------      ----- ------------  ---------------
    16      1.308438  1 O  py                12     -0.455908  1 O  py         
     8     -0.166361  1 O  py         

 Vector   12  Occ=0.000000D+00  E= 1.919815D-01  Symmetry=a1
              MO Center=  1.8D-14,  2.8D-16, -2.4D-01, r^2= 6.3D+00
   Bfn.  Coefficient  Atom+Function         Bfn.  Coefficient  Atom+Function  
  ----- ------------  ---------------      ----- ------------  ---------------
    14     12.109018  1 O  s                 48     -6.262592  2 H  s          
    67     -6.262592  3 H  s                 17     -3.273791  1 O  pz         
    10      1.374468  1 O  s                 13     -0.821606  1 O  pz         
    56     -0.629628  2 H  px                75      0.629628  3 H  px         
    47     -0.575143  2 H  s                 66     -0.575143  3 H  s          

 Vector   13  Occ=0.000000D+00  E= 2.045618D-01  Symmetry=b1
              MO Center=  2.3D-14, -3.9D-16,  1.3D-01, r^2= 7.7D+00
   Bfn.  Coefficient  Atom+Function         Bfn.  Coefficient  Atom+Function  
  ----- ------------  ---------------      ----- ------------  ---------------
    15      3.111822  1 O  px                48      2.208560  2 H  s          
    67     -2.208560  3 H  s                 49      1.966593  2 H  s          
    68     -1.966593  3 H  s                 58      0.360616  2 H  pz         
    77     -0.360616  3 H  pz                47      0.333238  2 H  s          
    66     -0.333238  3 H  s                 56      0.320040  2 H  px         

 Vector   14  Occ=0.000000D+00  E= 3.159471D-01  Symmetry=a1
              MO Center= -1.5D-14,  1.8D-18, -3.1D-01, r^2= 3.6D+00
   Bfn.  Coefficient  Atom+Function         Bfn.  Coefficient  Atom+Function  
  ----- ------------  ---------------      ----- ------------  ---------------
    14      4.423291  1 O  s                 48     -2.615557  2 H  s          
    67     -2.615557  3 H  s                 17     -2.094914  1 O  pz         
    13     -0.828787  1 O  pz                56     -0.799025  2 H  px         
    75      0.799025  3 H  px                58      0.646470  2 H  pz         
    77      0.646470  3 H  pz                10      0.488606  1 O  s          

 Vector   15  Occ=0.000000D+00  E= 3.452010D-01  Symmetry=a2
              MO Center= -3.3D-16,  5.4D-16, -5.2D-01, r^2= 3.1D+00
   Bfn.  Coefficient  Atom+Function         Bfn.  Coefficient  Atom+Function  
  ----- ------------  ---------------      ----- ------------  ---------------
    57      1.036184  2 H  py                76     -1.036184  3 H  py         
    31      0.175813  1 O  dxy        

 Vector   16  Occ=0.000000D+00  E= 3.826976D-01  Symmetry=b2
              MO Center=  8.5D-17, -1.5D-15, -3.2D-01, r^2= 3.5D+00
   Bfn.  Coefficient  Atom+Function         Bfn.  Coefficient  Atom+Function  
  ----- ------------  ---------------      ----- ------------  ---------------
    57      1.185156  2 H  py                76      1.185156  3 H  py         
    16     -1.027272  1 O  py                12     -0.730256  1 O  py         

 Vector   17  Occ=0.000000D+00  E= 4.063968D-01  Symmetry=b1
              MO Center= -7.8D-14,  1.4D-16, -1.4D-01, r^2= 5.5D+00
   Bfn.  Coefficient  Atom+Function         Bfn.  Coefficient  Atom+Function  
  ----- ------------  ---------------      ----- ------------  ---------------
    48      7.340479  2 H  s                 67     -7.340479  3 H  s          
    15      2.834753  1 O  px                11      1.700146  1 O  px         
    56      1.513032  2 H  px                75      1.513032  3 H  px         
    58      1.289059  2 H  pz                77     -1.289059  3 H  pz         
    49     -1.242348  2 H  s                 68      1.242348  3 H  s          

 Vector   18  Occ=0.000000D+00  E= 4.675708D-01  Symmetry=a1
              MO Center=  1.2D-13,  1.5D-15, -4.0D-01, r^2= 4.6D+00
   Bfn.  Coefficient  Atom+Function         Bfn.  Coefficient  Atom+Function  
  ----- ------------  ---------------      ----- ------------  ---------------
    14      8.087392  1 O  s                 48     -6.935663  2 H  s          
    67     -6.935663  3 H  s                 17     -2.291362  1 O  pz         
    10      2.001426  1 O  s                 56     -1.264421  2 H  px         
    75      1.264421  3 H  px                58     -1.153348  2 H  pz         
    77     -1.153348  3 H  pz                30      1.071117  1 O  dxx        

 Vector   19  Occ=0.000000D+00  E= 5.442646D-01  Symmetry=b1
              MO Center= -1.0D-14,  1.1D-16, -5.0D-01, r^2= 4.0D+00
   Bfn.  Coefficient  Atom+Function         Bfn.  Coefficient  Atom+Function  
  ----- ------------  ---------------      ----- ------------  ---------------
    15      1.787122  1 O  px                58      1.279402  2 H  pz         
    77     -1.279402  3 H  pz                56     -1.266648  2 H  px         
    75     -1.266648  3 H  px                49      0.794364  2 H  s          
    68     -0.794364  3 H  s                 11      0.789151  1 O  px         
    47      0.562100  2 H  s                 66     -0.562100  3 H  s          


 center of mass
 --------------
 x =   0.00000000 y =   0.00000000 z =   0.09925980

 moments of inertia (a.u.)
 ------------------
           2.273063475243           0.000000000000           0.000000000000
           0.000000000000           6.466161739956           0.000000000000
           0.000000000000           0.000000000000           4.193098264713

     Multipole analysis of the density
     ---------------------------------

     L   x y z        total         alpha         beta         nuclear
     -   - - -        -----         -----         ----         -------
     0   0 0 0     -0.000000     -5.000000     -5.000000     10.000000

     1   1 0 0      0.000000      0.000000      0.000000      0.000000
     1   0 1 0      0.000000      0.000000      0.000000      0.000000
     1   0 0 1     -0.724639     -0.362320     -0.362320      0.000000

     2   2 0 0     -3.359589     -3.760065     -3.760065      4.160542
     2   1 1 0      0.000000      0.000000      0.000000      0.000000
     2   1 0 1     -0.000000     -0.000000     -0.000000      0.000000
     2   0 2 0     -5.820823     -2.910411     -2.910411      0.000000
     2   0 1 1      0.000000      0.000000      0.000000      0.000000
     2   0 0 2     -4.817178     -3.424444     -3.424444      2.031711


 Parallel integral file used      44 records with       0 large values


 Task  times  cpu:        3.4s     wall:        3.9s


                                NWChem Input Module
                                -------------------


 Summary of allocated global arrays
-----------------------------------
  No active global arrays



                         GA Statistics for process    0
                         ------------------------------

       create   destroy   get      put      acc     scatter   gather  read&inc
calls:  227      227     1.31e+04 5420     2082        0        0      433     
number of processes/call 1.00e+00 1.00e+00 1.00e+00 0.00e+00 0.00e+00
bytes total:             3.69e+07 1.19e+07 1.85e+07 0.00e+00 0.00e+00 3.46e+03
bytes remote:            0.00e+00 0.00e+00 0.00e+00 0.00e+00 0.00e+00 0.00e+00
Max memory consumed for GA by this process: 2149368 bytes

MA_summarize_allocated_blocks: starting scan ...
MA_summarize_allocated_blocks: scan completed: 0 heap blocks, 0 stack blocks
MA usage statistics:

	allocation statistics:
					      heap	     stack
					      ----	     -----
	current number of blocks	         0	         0
	maximum number of blocks	        24	        55
	current total bytes		         0	         0
	maximum total bytes		  34626152	  23477608
	maximum total K-bytes		     34627	     23478
	maximum total M-bytes		        35	        24


                                     CITATION
                                     --------
                Please cite the following reference when publishing
                           results obtained with NWChem:

                 M. Valiev, E.J. Bylaska, N. Govind, K. Kowalski,
              T.P. Straatsma, H.J.J. van Dam, D. Wang, J. Nieplocha,
                        E. Apra, T.L. Windus, W.A. de Jong
                 "NWChem: a comprehensive and scalable open-source
                  solution for large scale molecular simulations"
                      Comput. Phys. Commun. 181, 1477 (2010)
                           doi:10.1016/j.cpc.2010.04.018

                                      AUTHORS
                                      -------
          E. Apra, E. J. Bylaska, W. A. de Jong, N. Govind, K. Kowalski,
       T. P. Straatsma, M. Valiev, H. J. J. van Dam, D. Wang, T. L. Windus,
        J. Hammond, J. Autschbach, K. Bhaskaran-Nair, J. Brabec, K. Lopata,
       S. A. Fischer, S. Krishnamoorthy, W. Ma, M. Klemm, O. Villa, Y. Chen,
    V. Anisimov, F. Aquino, S. Hirata, M. T. Hackler, T. Risthaus, M. Malagoli,
       A. Marenich, A. Otero-de-la-Roza, J. Mullin, P. Nichols, R. Peverati,
     J. Pittner, Y. Zhao, P.-D. Fan, A. Fonari, M. Williamson, R. J. Harrison,
       J. R. Rehr, M. Dupuis, D. Silverstein, D. M. A. Smith, J. Nieplocha,
        V. Tipparaju, M. Krishnan, B. E. Van Kuiken, A. Vazquez-Mayagoitia,
        L. Jensen, M. Swart, Q. Wu, T. Van Voorhis, A. A. Auer, M. Nooijen,
      L. D. Crosby, E. Brown, G. Cisneros, G. I. Fann, H. Fruchtl, J. Garza,
        K. Hirao, R. A. Kendall, J. A. Nichols, K. Tsemekhman, K. Wolinski,
     J. Anchell, D. E. Bernholdt, P. Borowski, T. Clark, D. Clerc, H. Dachsel,
   M. J. O. Deegan, K. Dyall, D. Elwood, E. Glendening, M. Gutowski, A. C. Hess,
         J. Jaffe, B. G. Johnson, J. Ju, R. Kobayashi, R. Kutteh, Z. Lin,
   R. Littlefield, X. Long, B. Meng, T. Nakajima, S. Niu, L. Pollack, M. Rosing,
   K. Glaesemann, G. Sandrone, M. Stave, H. Taylor, G. Thomas, J. H. van Lenthe,
                               A. T. Wong, Z. Zhang.

 Total times  cpu:        3.5s     wall:        4.2s
