[1537886393.112978] [r8n3:31287:0]         sys.c:744  MXM  WARN  Conflicting CPU frequencies detected, using: 2515.53
[1537886393.119544] [r8n3:31287:0]         mxm.c:196  MXM  WARN  The 'ulimit -s' on the system is set to 'unlimited'. This may have negative performance implications. Please set the stack size to the default value (10240) 
[1537886393.121798] [r8n3:31287:0]         mxm.c:196  MXM  WARN  The 'ulimit -s' on the system is set to 'unlimited'. This may have negative performance implications. Please set the stack size to the default value (10240) 
 argument  1 = /storage/home/bikashp/nwchem_run/rabeet/hb6/nwrevtpss/HCN.nw
                                         
                                         


              Northwest Computational Chemistry Package (NWChem) 6.6
              ------------------------------------------------------


                    Environmental Molecular Sciences Laboratory
                       Pacific Northwest National Laboratory
                                Richland, WA 99352

                              Copyright (c) 1994-2015
                       Pacific Northwest National Laboratory
                            Battelle Memorial Institute

             NWChem is an open-source computational chemistry package
                        distributed under the terms of the
                      Educational Community License (ECL) 2.0
             A copy of the license is included with this distribution
                              in the LICENSE.TXT file

                                  ACKNOWLEDGMENT
                                  --------------

            This software and its documentation were developed at the
            EMSL at Pacific Northwest National Laboratory, a multiprogram
            national laboratory, operated for the U.S. Department of Energy
            by Battelle under Contract Number DE-AC05-76RL01830. Support
            for this work was provided by the Department of Energy Office
            of Biological and Environmental Research, Office of Basic
            Energy Sciences, and the Office of Advanced Scientific Computing.


           Job information
           ---------------

    hostname        = r8n3.niserhpc.org
    program         = /home/bikashp/Code/nwchem-6.6_revtpss/bin/LINUX64/nwchem
    date            = Tue Sep 25 20:09:53 2018

    compiled        = Tue_Sep_25_17:05:19_2018
    source          = /home/bikashp/Code/nwchem-6.6_revtpss
    nwchem branch   = 6.6
    nwchem revision = 27746
    ga revision     = 10594
    input           = /storage/home/bikashp/nwchem_run/rabeet/hb6/nwrevtpss/HCN.nw
    prefix          = HCN.
    data base       = ./HCN.db
    status          = startup
    nproc           =        1
    time left       =     -1s



           Memory information
           ------------------

    heap     =   13107196 doubles =    100.0 Mbytes
    stack    =   13107201 doubles =    100.0 Mbytes
    global   =   26214400 doubles =    200.0 Mbytes (distinct from heap & stack)
    total    =   52428797 doubles =    400.0 Mbytes
    verify   = yes
    hardfail = no 


           Directory information
           ---------------------

  0 permanent = .
  0 scratch   = .




                                NWChem Input Module
                                -------------------



 Scaling coordinates for geometry "geometry" by  1.889725989
 (inverse scale =  0.529177249)

 ORDER OF PRIMARY AXIS IS BEING SET TO 4
 C4V symmetry detected

          ------
          auto-z
          ------
  autoz: insufficient variables                     2                    3
     1 autoz failed with cvr_scaling = 1.2 changing to 1.3
  autoz: insufficient variables                     2                    3
     2 autoz failed with cvr_scaling = 1.3 changing to 1.4
  autoz: insufficient variables                     2                    3
     3 autoz failed with cvr_scaling = 1.4 changing to 1.5
  autoz: insufficient variables                     2                    3
     4 autoz failed with cvr_scaling = 1.5 changing to 1.6
  autoz: insufficient variables                     2                    3
     5 autoz failed with cvr_scaling = 1.6 changing to 1.7
  autoz: insufficient variables                     2                    3

 AUTOZ failed to generate good internal coordinates.
 Cartesian coordinates will be used in optimizations.



                             Geometry "geometry" -> ""
                             -------------------------

 Output coordinates in angstroms (scale by  1.889725989 to convert to a.u.)

  No.       Tag          Charge          X              Y              Z
 ---- ---------------- ---------- -------------- -------------- --------------
    1 C                    6.0000     0.00000000     0.00000000    -0.50269143
    2 N                    7.0000     0.00000000     0.00000000     0.65540857
    3 H                    1.0000     0.00000000     0.00000000    -1.57171143

      Atomic Mass 
      ----------- 

      C                 12.000000
      N                 14.003070
      H                  1.007825


 Effective nuclear repulsion energy (a.u.)      23.8246117958

            Nuclear Dipole moment (a.u.) 
            ----------------------------
        X                 Y               Z
 ---------------- ---------------- ----------------
     0.0000000000     0.0000000000    -0.0000000000

      Symmetry information
      --------------------

 Group name             C4v       
 Group number             18
 Group order               8
 No. of unique centers     3

      Symmetry unique atoms

     1    2    3


            XYZ format geometry
            -------------------
     3
 geometry
 C                     0.00000000     0.00000000    -0.50269143
 N                     0.00000000     0.00000000     0.65540857
 H                     0.00000000     0.00000000    -1.57171143

 ==============================================================================
                                internuclear distances
 ------------------------------------------------------------------------------
       center one      |      center two      | atomic units |  angstroms
 ------------------------------------------------------------------------------
    2 N                |   1 C                |     2.18849  |     1.15810
    3 H                |   1 C                |     2.02015  |     1.06902
 ------------------------------------------------------------------------------
                         number of included internuclear distances:          2
 ==============================================================================



 ==============================================================================
                                 internuclear angles
 ------------------------------------------------------------------------------
        center 1       |       center 2       |       center 3       |  degrees
 ------------------------------------------------------------------------------
    2 N                |   1 C                |   3 H                |   180.00
 ------------------------------------------------------------------------------
                            number of included internuclear angles:          1
 ==============================================================================





 Summary of "ao basis" -> "" (cartesian)
 ------------------------------------------------------------------------------
       Tag                 Description            Shells   Functions and Types
 ---------------- ------------------------------  ------  ---------------------
 *                     6-311++G(3df,3pd)              on all atoms 



                                 NWChem DFT Module
                                 -----------------


                      Basis "ao basis" -> "ao basis" (cartesian)
                      -----
  C (Carbon)
  ----------
            Exponent  Coefficients 
       -------------- ---------------------------------------------------------
  1 S  4.56324000E+03  0.001967
  1 S  6.82024000E+02  0.015231
  1 S  1.54973000E+02  0.076127
  1 S  4.44553000E+01  0.260801
  1 S  1.30290000E+01  0.616462
  1 S  1.82773000E+00  0.221006

  2 S  2.09642000E+01  0.114660
  2 S  4.80331000E+00  0.919999
  2 S  1.45933000E+00 -0.003031

  3 P  2.09642000E+01  0.040249
  3 P  4.80331000E+00  0.237594
  3 P  1.45933000E+00  0.815854

  4 S  4.83456000E-01  1.000000

  5 P  4.83456000E-01  1.000000

  6 S  1.45585000E-01  1.000000

  7 P  1.45585000E-01  1.000000

  8 S  4.38000000E-02  1.000000

  9 P  4.38000000E-02  1.000000

 10 D  2.50400000E+00  1.000000

 11 D  6.26000000E-01  1.000000

 12 D  1.56500000E-01  1.000000

 13 F  8.00000000E-01  1.000000

  N (Nitrogen)
  ------------
            Exponent  Coefficients 
       -------------- ---------------------------------------------------------
  1 S  6.29348000E+03  0.001970
  1 S  9.49044000E+02  0.014961
  1 S  2.18776000E+02  0.073501
  1 S  6.36916000E+01  0.248937
  1 S  1.88282000E+01  0.602460
  1 S  2.72023000E+00  0.256202

  2 S  3.06331000E+01  0.111906
  2 S  7.02614000E+00  0.921666
  2 S  2.11205000E+00 -0.002569

  3 P  3.06331000E+01  0.038312
  3 P  7.02614000E+00  0.237403
  3 P  2.11205000E+00  0.817592

  4 S  6.84009000E-01  1.000000

  5 P  6.84009000E-01  1.000000

  6 S  2.00878000E-01  1.000000

  7 P  2.00878000E-01  1.000000

  8 S  6.39000000E-02  1.000000

  9 P  6.39000000E-02  1.000000

 10 D  3.65200000E+00  1.000000

 11 D  9.13000000E-01  1.000000

 12 D  2.28250000E-01  1.000000

 13 F  1.00000000E+00  1.000000

  H (Hydrogen)
  ------------
            Exponent  Coefficients 
       -------------- ---------------------------------------------------------
  1 S  3.38650000E+01  0.025494
  1 S  5.09479000E+00  0.190373
  1 S  1.15879000E+00  0.852161

  2 S  3.25840000E-01  1.000000

  3 S  1.02741000E-01  1.000000

  4 S  3.60000000E-02  1.000000

  5 P  3.00000000E+00  1.000000

  6 P  7.50000000E-01  1.000000

  7 P  1.87500000E-01  1.000000

  8 D  1.00000000E+00  1.000000



 Summary of "ao basis" -> "ao basis" (cartesian)
 ------------------------------------------------------------------------------
       Tag                 Description            Shells   Functions and Types
 ---------------- ------------------------------  ------  ---------------------
 C                     6-311++G(3df,3pd)            13       45   5s4p3d1f
 N                     6-311++G(3df,3pd)            13       45   5s4p3d1f
 H                     6-311++G(3df,3pd)             8       19   4s3p1d




 Summary of "ao basis" -> "ao basis" (cartesian)
 ------------------------------------------------------------------------------
       Tag                 Description            Shells   Functions and Types
 ---------------- ------------------------------  ------  ---------------------
 C                     6-311++G(3df,3pd)            13       45   5s4p3d1f
 N                     6-311++G(3df,3pd)            13       45   5s4p3d1f
 H                     6-311++G(3df,3pd)             8       19   4s3p1d


      Symmetry analysis of basis
      --------------------------

        a1         43
        a2          0
        b1          9
        b2          9
        e          48

  Caching 1-el integrals 

            General Information
            -------------------
          SCF calculation type: DFT
          Wavefunction type:  closed shell.
          No. of atoms     :     3
          No. of electrons :    14
           Alpha electrons :     7
            Beta electrons :     7
          Charge           :     0
          Spin multiplicity:     1
          Use of symmetry is: on ; symmetry adaption is: on 
          Maximum number of iterations: ***
          AO basis - number of functions:   109
                     number of shells:    34
          Convergence on energy requested: 1.00D-06
          Convergence on density requested: 1.00D-05
          Convergence on gradient requested: 5.00D-04

              XC Information
              --------------
                  TPSS metaGGA Exchange Functional  1.000          
             TPSS03 metaGGA Correlation Functional  1.000          

             Grid Information
             ----------------
          Grid used for XC integration:  medium    
          Radial quadrature: Mura-Knowles        
          Angular quadrature: Lebedev. 
          Tag              B.-S. Rad. Rad. Pts. Rad. Cut. Ang. Pts.
          ---              ---------- --------- --------- ---------
          C                   0.70       49          10.0       434
          N                   0.65       49          11.0       434
          H                   0.35       45          11.0       434
          Grid pruning is: on 
          Number of quadrature shells:   143
          Spatial weights used:  Erf1

          Convergence Information
          -----------------------
          Convergence aids based upon iterative change in 
          total energy or number of iterations. 
          Levelshifting, if invoked, occurs when the 
          HOMO/LUMO gap drops below (HL_TOL): 1.00D-02
          DIIS, if invoked, will attempt to extrapolate 
          using up to (NFOCK): 10 stored Fock matrices.

                    Damping( 0%)  Levelshifting(0.5)       DIIS
                  --------------- ------------------- ---------------
          dE  on:    start            ASAP                start   
          dE off:    2 iters        *** iters           *** iters 


      Screening Tolerance Information
      -------------------------------
          Density screening/tol_rho: 1.00D-10
          AO Gaussian exp screening on grid/accAOfunc:  14
          CD Gaussian exp screening on grid/accCDfunc:  20
          XC Gaussian exp screening on grid/accXCfunc:  20
          Schwarz screening/accCoul: 1.00D-08


      Superposition of Atomic Density Guess
      -------------------------------------

 Sum of atomic energies:         -92.47690406

      Non-variational initial energy
      ------------------------------

 Total energy =     -93.078161
 1-e energy   =    -171.161518
 2-e energy   =      54.258746
 HOMO         =      -0.456347
 LUMO         =       0.025346


      Symmetry analysis of molecular orbitals - initial
      -------------------------------------------------

  Numbering of irreducible representations: 

     1 a1          2 a2          3 b1          4 b2          5 e       

  Orbital symmetries:

     1 a1          2 a1          3 a1          4 a1          5 a1      
     6 e           7 e           8 e           9 e          10 a1      
    11 a1         12 e          13 e          14 a1         15 a1      
    16 e          17 e       

   Time after variat. SCF:      0.6
   Time prior to 1st pass:      0.6

 Integral file          = ./HCN.aoints.0
 Record size in doubles =    65536    No. of integs per rec  =    43688
 Max. records in memory =       92    Max. records in file   = ********
 No. of bits per label  =        8    No. of bits per value  =       64


 #quartets = 1.748D+05 #integrals = 4.755D+06 #direct =  0.0% #cached =100.0%


 Grid_pts file          = ./HCN.gridpts.0
 Record size in doubles =  12289        No. of grid_pts per rec  =   3070
 Max. records in memory =     24        Max. recs in file   = 995244594


           Memory utilization after 1st SCF pass: 
           Heap Space remaining (MW):        6.78             6779652
          Stack Space remaining (MW):       13.11            13106516

   convergence    iter        energy       DeltaE   RMS-Dens  Diis-err    time
 ---------------- ----- ----------------- --------- --------- ---------  ------
 d= 0,ls=0.0,diis     1    -93.3778977000 -1.17D+02  9.01D-03  5.76D-01     2.7
 d= 0,ls=0.0,diis     2    -92.9508071028  4.27D-01  7.64D-03  4.04D+00     3.2
 d= 0,ls=0.0,diis     3    -93.4425341205 -4.92D-01  8.63D-04  3.16D-02     3.6
 d= 0,ls=0.0,diis     4    -93.4449987774 -2.46D-03  2.70D-04  2.03D-03     4.0
 d= 0,ls=0.0,diis     5    -93.4453096755 -3.11D-04  8.46D-05  2.42D-04     4.5
  Resetting Diis
 d= 0,ls=0.0,diis     6    -93.4453211848 -1.15D-05  1.41D-05  1.05D-06     5.0
 d= 0,ls=0.0,diis     7    -93.4453208714  3.13D-07  2.56D-06  3.32D-08     5.4


         Total DFT energy =      -93.445320871446
      One electron energy =     -172.671403373342
           Coulomb energy =       67.988467989653
          Exchange energy =      -12.127070164417
       Correlation energy =       -0.459927119139
 Nuclear repulsion energy =       23.824611795800

 Numeric. integr. density =       14.000000375253

     Total iterative time =      4.8s



                  Occupations of the irreducible representations
                  ----------------------------------------------

                     irrep           alpha         beta
                     --------     --------     --------
                     a1                5.0          5.0
                     a2                0.0          0.0
                     b1                0.0          0.0
                     b2                0.0          0.0
                     e                 2.0          2.0


                       DFT Final Molecular Orbital Analysis
                       ------------------------------------

 Vector    1  Occ=2.000000D+00  E=-1.415550D+01  Symmetry=a1
              MO Center= -9.4D-26,  6.2D-26,  6.6D-01, r^2= 2.0D-02
   Bfn.  Coefficient  Atom+Function         Bfn.  Coefficient  Atom+Function  
  ----- ------------  ---------------      ----- ------------  ---------------
    46      0.558137  2 N  s                 47      0.466846  2 N  s          

 Vector    2  Occ=2.000000D+00  E=-1.006654D+01  Symmetry=a1
              MO Center=  8.3D-18,  2.8D-17, -5.0D-01, r^2= 2.8D-02
   Bfn.  Coefficient  Atom+Function         Bfn.  Coefficient  Atom+Function  
  ----- ------------  ---------------      ----- ------------  ---------------
     1      0.563649  1 C  s                  2      0.465038  1 C  s          

 Vector    3  Occ=2.000000D+00  E=-8.637649D-01  Symmetry=a1
              MO Center=  1.4D-15, -1.4D-15,  1.8D-01, r^2= 5.5D-01
   Bfn.  Coefficient  Atom+Function         Bfn.  Coefficient  Atom+Function  
  ----- ------------  ---------------      ----- ------------  ---------------
    51      0.446942  2 N  s                 55      0.399576  2 N  s          
     6      0.304447  1 C  s                 47     -0.170258  2 N  s          

 Vector    4  Occ=2.000000D+00  E=-5.734865D-01  Symmetry=a1
              MO Center= -1.6D-16,  1.0D-15, -1.1D+00, r^2= 8.2D-01
   Bfn.  Coefficient  Atom+Function         Bfn.  Coefficient  Atom+Function  
  ----- ------------  ---------------      ----- ------------  ---------------
     6      0.316910  1 C  s                 10      0.302180  1 C  s          
    92      0.256026  3 H  s                 55     -0.241903  2 N  s          
    51     -0.190980  2 N  s                 91      0.190406  3 H  s          
     9     -0.175420  1 C  pz                 5     -0.160549  1 C  pz         

 Vector    5  Occ=2.000000D+00  E=-3.465715D-01  Symmetry=a1
              MO Center=  3.8D-15,  3.4D-15,  8.0D-01, r^2= 8.9D-01
   Bfn.  Coefficient  Atom+Function         Bfn.  Coefficient  Atom+Function  
  ----- ------------  ---------------      ----- ------------  ---------------
    58      0.410481  2 N  pz                54      0.336812  2 N  pz         
    10      0.326405  1 C  s                 51      0.285251  2 N  s          
    50      0.237301  2 N  pz                13      0.187803  1 C  pz         
     6     -0.151793  1 C  s          

 Vector    6  Occ=2.000000D+00  E=-3.327937D-01  Symmetry=e
              MO Center= -4.8D-15, -1.6D-15,  1.1D-01, r^2= 1.1D+00
   Bfn.  Coefficient  Atom+Function         Bfn.  Coefficient  Atom+Function  
  ----- ------------  ---------------      ----- ------------  ---------------
    52      0.277003  2 N  px                56      0.270503  2 N  px         
     7      0.251170  1 C  px                48      0.197149  2 N  px         
     3      0.179421  1 C  px         

 Vector    7  Occ=2.000000D+00  E=-3.327937D-01  Symmetry=e
              MO Center= -8.4D-17, -5.6D-16,  1.1D-01, r^2= 1.1D+00
   Bfn.  Coefficient  Atom+Function         Bfn.  Coefficient  Atom+Function  
  ----- ------------  ---------------      ----- ------------  ---------------
    53      0.277003  2 N  py                57      0.270503  2 N  py         
     8      0.251170  1 C  py                49      0.197149  2 N  py         
     4      0.179421  1 C  py         

 Vector    8  Occ=0.000000D+00  E=-3.367583D-02  Symmetry=e
              MO Center= -2.9D-15, -3.0D-15, -3.2D-01, r^2= 2.8D+00
   Bfn.  Coefficient  Atom+Function         Bfn.  Coefficient  Atom+Function  
  ----- ------------  ---------------      ----- ------------  ---------------
    16      0.397377  1 C  py                15      0.368857  1 C  px         
    61     -0.323296  2 N  py                12      0.308700  1 C  py         
    60     -0.300092  2 N  px                11      0.286544  1 C  px         
    57     -0.267765  2 N  py                56     -0.248547  2 N  px         
    53     -0.218281  2 N  py                52     -0.202615  2 N  px         

 Vector    9  Occ=0.000000D+00  E=-3.367583D-02  Symmetry=e
              MO Center= -4.0D-15,  3.2D-15, -3.2D-01, r^2= 2.8D+00
   Bfn.  Coefficient  Atom+Function         Bfn.  Coefficient  Atom+Function  
  ----- ------------  ---------------      ----- ------------  ---------------
    15      0.397377  1 C  px                16     -0.368857  1 C  py         
    60     -0.323296  2 N  px                11      0.308700  1 C  px         
    61      0.300092  2 N  py                12     -0.286544  1 C  py         
    56     -0.267765  2 N  px                57      0.248547  2 N  py         
    52     -0.218281  2 N  px                53      0.202615  2 N  py         

 Vector   10  Occ=0.000000D+00  E=-1.916149D-02  Symmetry=a1
              MO Center=  9.5D-15,  1.6D-15, -2.7D+00, r^2= 7.4D+00
   Bfn.  Coefficient  Atom+Function         Bfn.  Coefficient  Atom+Function  
  ----- ------------  ---------------      ----- ------------  ---------------
    94      3.575171  3 H  s                 14     -2.739649  1 C  s          
    17      1.067812  1 C  pz                10     -0.851981  1 C  s          
    55      0.518263  2 N  s                 13     -0.380288  1 C  pz         
    58     -0.293757  2 N  pz                59     -0.253867  2 N  s          
    62     -0.204977  2 N  pz         

 Vector   11  Occ=0.000000D+00  E= 1.208960D-02  Symmetry=a1
              MO Center= -5.9D-15, -4.2D-15,  1.9D-01, r^2= 9.2D+00
   Bfn.  Coefficient  Atom+Function         Bfn.  Coefficient  Atom+Function  
  ----- ------------  ---------------      ----- ------------  ---------------
    59     -4.441684  2 N  s                 14      4.069747  1 C  s          
    17      1.686400  1 C  pz                10      1.393181  1 C  s          
    55     -1.028398  2 N  s                 62      0.750016  2 N  pz         
    13      0.573362  1 C  pz                58      0.386339  2 N  pz         
    93     -0.358345  3 H  s                 35      0.353158  1 C  dzz        

 Vector   12  Occ=0.000000D+00  E= 5.203122D-02  Symmetry=e
              MO Center=  9.3D-16,  1.8D-15, -6.3D-01, r^2= 9.1D+00
   Bfn.  Coefficient  Atom+Function         Bfn.  Coefficient  Atom+Function  
  ----- ------------  ---------------      ----- ------------  ---------------
    16      1.260547  1 C  py                12     -0.531975  1 C  py         
    15      0.367479  1 C  px                57      0.212073  2 N  py         
    61     -0.195455  2 N  py                11     -0.155083  1 C  px         
     8     -0.153709  1 C  py         

 Vector   13  Occ=0.000000D+00  E= 5.203122D-02  Symmetry=e
              MO Center=  2.7D-15, -1.1D-15, -6.3D-01, r^2= 9.1D+00
   Bfn.  Coefficient  Atom+Function         Bfn.  Coefficient  Atom+Function  
  ----- ------------  ---------------      ----- ------------  ---------------
    15      1.260547  1 C  px                11     -0.531975  1 C  px         
    16     -0.367479  1 C  py                56      0.212073  2 N  px         
    60     -0.195455  2 N  px                12      0.155083  1 C  py         
     7     -0.153709  1 C  px         

 Vector   14  Occ=0.000000D+00  E= 8.845037D-02  Symmetry=a1
              MO Center= -3.6D-16,  2.3D-15,  6.2D-01, r^2= 1.1D+01
   Bfn.  Coefficient  Atom+Function         Bfn.  Coefficient  Atom+Function  
  ----- ------------  ---------------      ----- ------------  ---------------
    93     -4.632022  3 H  s                 94     -4.622849  3 H  s          
    14      4.336618  1 C  s                 17     -4.163575  1 C  pz         
    59      3.485888  2 N  s                 10      1.997576  1 C  s          
    13     -1.499372  1 C  pz                92     -0.965777  3 H  s          
    62     -0.737898  2 N  pz               103     -0.644262  3 H  pz         

 Vector   15  Occ=0.000000D+00  E= 9.641550D-02  Symmetry=a1
              MO Center=  1.0D-15,  3.7D-16, -2.8D+00, r^2= 8.0D+00
   Bfn.  Coefficient  Atom+Function         Bfn.  Coefficient  Atom+Function  
  ----- ------------  ---------------      ----- ------------  ---------------
    14     10.010196  1 C  s                 94     -6.917173  3 H  s          
    59     -3.665392  2 N  s                 55     -2.969472  2 N  s          
    13      2.945149  1 C  pz                10      2.698370  1 C  s          
    17     -1.964833  1 C  pz                62      1.617278  2 N  pz         
    58      1.345448  2 N  pz                93      1.340083  3 H  s          

 Vector   16  Occ=0.000000D+00  E= 1.586637D-01  Symmetry=e
              MO Center=  4.0D-16, -2.5D-15,  6.3D-01, r^2= 8.5D+00
   Bfn.  Coefficient  Atom+Function         Bfn.  Coefficient  Atom+Function  
  ----- ------------  ---------------      ----- ------------  ---------------
    61      2.302999  2 N  py                16     -1.475500  1 C  py         
    34     -1.005685  1 C  dyz               60     -0.554158  2 N  px         
    79     -0.420797  2 N  dyz               15      0.355042  1 C  px         
   102     -0.306911  3 H  py                12     -0.266612  1 C  py         
    32      0.241993  1 C  dxz               53     -0.184038  2 N  py         

 Vector   17  Occ=0.000000D+00  E= 1.586637D-01  Symmetry=e
              MO Center=  4.8D-15,  2.1D-15,  6.3D-01, r^2= 8.5D+00
   Bfn.  Coefficient  Atom+Function         Bfn.  Coefficient  Atom+Function  
  ----- ------------  ---------------      ----- ------------  ---------------
    60      2.302999  2 N  px                15     -1.475500  1 C  px         
    32     -1.005685  1 C  dxz               61      0.554158  2 N  py         
    77     -0.420797  2 N  dxz               16     -0.355042  1 C  py         
   101     -0.306911  3 H  px                11     -0.266612  1 C  px         
    34     -0.241993  1 C  dyz               52     -0.184038  2 N  px         

 Vector   18  Occ=0.000000D+00  E= 1.711675D-01  Symmetry=a1
              MO Center=  3.7D-16, -7.0D-16,  9.2D-01, r^2= 9.8D+00
   Bfn.  Coefficient  Atom+Function         Bfn.  Coefficient  Atom+Function  
  ----- ------------  ---------------      ----- ------------  ---------------
    17      5.303860  1 C  pz                94      4.840885  3 H  s          
    59     -3.757245  2 N  s                 14     -3.179071  1 C  s          
    10     -2.842234  1 C  s                 93      2.527713  3 H  s          
    62     -2.326743  2 N  pz                55      1.651893  2 N  s          
    35     -0.742787  1 C  dzz               13     -0.737348  1 C  pz         

 Vector   19  Occ=0.000000D+00  E= 2.009089D-01  Symmetry=a1
              MO Center= -6.4D-15, -5.8D-16, -3.7D-01, r^2= 1.0D+01
   Bfn.  Coefficient  Atom+Function         Bfn.  Coefficient  Atom+Function  
  ----- ------------  ---------------      ----- ------------  ---------------
    14     12.486880  1 C  s                 59    -10.547886  2 N  s          
    10      9.017160  1 C  s                 93     -6.500038  3 H  s          
    94     -4.083492  3 H  s                 55     -4.013564  2 N  s          
    62      3.890690  2 N  pz                35      3.173276  1 C  dzz        
    17     -1.811639  1 C  pz                58      1.548314  2 N  pz         

 Vector   20  Occ=0.000000D+00  E= 3.094149D-01  Symmetry=b2
              MO Center= -4.5D-16, -2.3D-15, -4.4D-01, r^2= 3.1D+00
   Bfn.  Coefficient  Atom+Function         Bfn.  Coefficient  Atom+Function  
  ----- ------------  ---------------      ----- ------------  ---------------
    31      1.645762  1 C  dxy        

 Vector   21  Occ=0.000000D+00  E= 3.094150D-01  Symmetry=b1
              MO Center=  6.8D-16,  8.0D-16, -4.4D-01, r^2= 3.1D+00
   Bfn.  Coefficient  Atom+Function         Bfn.  Coefficient  Atom+Function  
  ----- ------------  ---------------      ----- ------------  ---------------
    30      0.822881  1 C  dxx               33     -0.822881  1 C  dyy        

 Vector   22  Occ=0.000000D+00  E= 3.189564D-01  Symmetry=a1
              MO Center= -3.2D-15,  1.3D-15, -3.4D-01, r^2= 9.1D+00
   Bfn.  Coefficient  Atom+Function         Bfn.  Coefficient  Atom+Function  
  ----- ------------  ---------------      ----- ------------  ---------------
    93     10.785018  3 H  s                 59     -8.901434  2 N  s          
    17      5.493417  1 C  pz                10     -4.511441  1 C  s          
    13      4.264494  1 C  pz                94      2.989011  3 H  s          
    35     -2.000787  1 C  dzz              103      1.954528  3 H  pz         
    92      1.619467  3 H  s                 58      1.061227  2 N  pz         

 Vector   23  Occ=0.000000D+00  E= 3.755702D-01  Symmetry=e
              MO Center=  1.2D-16,  4.6D-17, -1.3D+00, r^2= 3.5D+00
   Bfn.  Coefficient  Atom+Function         Bfn.  Coefficient  Atom+Function  
  ----- ------------  ---------------      ----- ------------  ---------------
   101      1.151800  3 H  px                15     -0.712819  1 C  px         
    11     -0.602969  1 C  px                32     -0.571551  1 C  dxz        
    60      0.530239  2 N  px                56      0.458904  2 N  px         
     7     -0.326446  1 C  px               102      0.208982  3 H  py         

 Vector   24  Occ=0.000000D+00  E= 3.755702D-01  Symmetry=e
              MO Center= -9.8D-17,  2.9D-16, -1.3D+00, r^2= 3.5D+00
   Bfn.  Coefficient  Atom+Function         Bfn.  Coefficient  Atom+Function  
  ----- ------------  ---------------      ----- ------------  ---------------
   102      1.151800  3 H  py                16     -0.712819  1 C  py         
    12     -0.602969  1 C  py                34     -0.571551  1 C  dyz        
    61      0.530239  2 N  py                57      0.458904  2 N  py         
     8     -0.326446  1 C  py               101     -0.208982  3 H  px         

 Vector   25  Occ=0.000000D+00  E= 4.406239D-01  Symmetry=a1
              MO Center=  3.4D-15, -1.0D-15, -1.6D+00, r^2= 6.3D+00
   Bfn.  Coefficient  Atom+Function         Bfn.  Coefficient  Atom+Function  
  ----- ------------  ---------------      ----- ------------  ---------------
    10      8.041315  1 C  s                 55     -7.722015  2 N  s          
    13      6.972547  1 C  pz                14      4.680466  1 C  s          
    93      4.167636  3 H  s                 58      3.942305  2 N  pz         
    94     -3.924308  3 H  s                 30     -3.118549  1 C  dxx        
    33     -3.118549  1 C  dyy               17     -1.443097  1 C  pz         

 Vector   26  Occ=0.000000D+00  E= 5.017373D-01  Symmetry=e
              MO Center=  8.0D-16, -5.8D-16, -3.0D-02, r^2= 4.3D+00
   Bfn.  Coefficient  Atom+Function         Bfn.  Coefficient  Atom+Function  
  ----- ------------  ---------------      ----- ------------  ---------------
    34      3.067031  1 C  dyz               12      3.007876  1 C  py         
    57     -1.871665  2 N  py                79      1.500048  2 N  dyz        
    61     -0.868266  2 N  py                 8     -0.702052  1 C  py         
   102      0.342141  3 H  py                16     -0.204953  1 C  py         
     4     -0.176012  1 C  py         


 center of mass
 --------------
 x =   0.00000000 y =   0.00000000 z =   0.10923982

 moments of inertia (a.u.)
 ------------------
          40.877592667933           0.000000000000           0.000000000000
           0.000000000000          40.877592667933           0.000000000000
           0.000000000000           0.000000000000           0.000000000000

     Multipole analysis of the density
     ---------------------------------

     L   x y z        total         alpha         beta         nuclear
     -   - - -        -----         -----         ----         -------
     0   0 0 0     -0.000000     -7.000000     -7.000000     14.000000

     1   1 0 0      0.000000      0.000000      0.000000      0.000000
     1   0 1 0      0.000000      0.000000      0.000000      0.000000
     1   0 0 1     -1.165208     -0.582604     -0.582604     -0.000000

     2   2 0 0     -8.786000     -4.393000     -4.393000      0.000000
     2   1 1 0      0.000000      0.000000      0.000000      0.000000
     2   1 0 1      0.000000      0.000000      0.000000      0.000000
     2   0 2 0     -8.786000     -4.393000     -4.393000      0.000000
     2   0 1 1      0.000000      0.000000      0.000000      0.000000
     2   0 0 2     -7.366448    -16.170149    -16.170149     24.973851


------------------------------------------------------------
EAF file 0: "./HCN.aoints.0" size=8912896 bytes
------------------------------------------------------------
               write      read    awrite     aread      wait
               -----      ----    ------     -----      ----
     calls:       17         6         0        96        96
   data(b): 8.91e+06  3.15e+06  0.00e+00  5.03e+07
   time(s): 0.00e+00  0.00e+00  0.00e+00  0.00e+00  0.00e+00
rate(mb/s): 0.00e+00  0.00e+00
------------------------------------------------------------


 Parallel integral file used     109 records with       0 large values


 Task  times  cpu:        5.4s     wall:        6.0s


                                NWChem Input Module
                                -------------------


 Summary of allocated global arrays
-----------------------------------
  No active global arrays



                         GA Statistics for process    0
                         ------------------------------

       create   destroy   get      put      acc     scatter   gather  read&inc
calls:  227      227     1.90e+04 7908     2758        0        0      516     
number of processes/call 1.00e+00 1.00e+00 1.00e+00 0.00e+00 0.00e+00
bytes total:             6.79e+07 2.12e+07 3.96e+07 0.00e+00 0.00e+00 4.13e+03
bytes remote:            0.00e+00 0.00e+00 0.00e+00 0.00e+00 0.00e+00 0.00e+00
Max memory consumed for GA by this process: 3706872 bytes

MA_summarize_allocated_blocks: starting scan ...
MA_summarize_allocated_blocks: scan completed: 0 heap blocks, 0 stack blocks
MA usage statistics:

	allocation statistics:
					      heap	     stack
					      ----	     -----
	current number of blocks	         0	         0
	maximum number of blocks	        24	        55
	current total bytes		         0	         0
	maximum total bytes		  50620216	  24081064
	maximum total K-bytes		     50621	     24082
	maximum total M-bytes		        51	        25


                                     CITATION
                                     --------
                Please cite the following reference when publishing
                           results obtained with NWChem:

                 M. Valiev, E.J. Bylaska, N. Govind, K. Kowalski,
              T.P. Straatsma, H.J.J. van Dam, D. Wang, J. Nieplocha,
                        E. Apra, T.L. Windus, W.A. de Jong
                 "NWChem: a comprehensive and scalable open-source
                  solution for large scale molecular simulations"
                      Comput. Phys. Commun. 181, 1477 (2010)
                           doi:10.1016/j.cpc.2010.04.018

                                      AUTHORS
                                      -------
          E. Apra, E. J. Bylaska, W. A. de Jong, N. Govind, K. Kowalski,
       T. P. Straatsma, M. Valiev, H. J. J. van Dam, D. Wang, T. L. Windus,
        J. Hammond, J. Autschbach, K. Bhaskaran-Nair, J. Brabec, K. Lopata,
       S. A. Fischer, S. Krishnamoorthy, W. Ma, M. Klemm, O. Villa, Y. Chen,
    V. Anisimov, F. Aquino, S. Hirata, M. T. Hackler, T. Risthaus, M. Malagoli,
       A. Marenich, A. Otero-de-la-Roza, J. Mullin, P. Nichols, R. Peverati,
     J. Pittner, Y. Zhao, P.-D. Fan, A. Fonari, M. Williamson, R. J. Harrison,
       J. R. Rehr, M. Dupuis, D. Silverstein, D. M. A. Smith, J. Nieplocha,
        V. Tipparaju, M. Krishnan, B. E. Van Kuiken, A. Vazquez-Mayagoitia,
        L. Jensen, M. Swart, Q. Wu, T. Van Voorhis, A. A. Auer, M. Nooijen,
      L. D. Crosby, E. Brown, G. Cisneros, G. I. Fann, H. Fruchtl, J. Garza,
        K. Hirao, R. A. Kendall, J. A. Nichols, K. Tsemekhman, K. Wolinski,
     J. Anchell, D. E. Bernholdt, P. Borowski, T. Clark, D. Clerc, H. Dachsel,
   M. J. O. Deegan, K. Dyall, D. Elwood, E. Glendening, M. Gutowski, A. C. Hess,
         J. Jaffe, B. G. Johnson, J. Ju, R. Kobayashi, R. Kutteh, Z. Lin,
   R. Littlefield, X. Long, B. Meng, T. Nakajima, S. Niu, L. Pollack, M. Rosing,
   K. Glaesemann, G. Sandrone, M. Stave, H. Taylor, G. Thomas, J. H. van Lenthe,
                               A. T. Wong, Z. Zhang.

 Total times  cpu:        5.5s     wall:        6.2s
