[1537887320.620297] [r8n3:32143:0]         sys.c:744  MXM  WARN  Conflicting CPU frequencies detected, using: 2499.99
[1537887320.627825] [r8n3:32143:0]         mxm.c:196  MXM  WARN  The 'ulimit -s' on the system is set to 'unlimited'. This may have negative performance implications. Please set the stack size to the default value (10240) 
[1537887320.630268] [r8n3:32143:0]         mxm.c:196  MXM  WARN  The 'ulimit -s' on the system is set to 'unlimited'. This may have negative performance implications. Please set the stack size to the default value (10240) 
 argument  1 = /storage/home/bikashp/nwchem_run/rabeet/hb6/nwrevtpss/HCOOH-HCOOH.nw
                                         
                                         


              Northwest Computational Chemistry Package (NWChem) 6.6
              ------------------------------------------------------


                    Environmental Molecular Sciences Laboratory
                       Pacific Northwest National Laboratory
                                Richland, WA 99352

                              Copyright (c) 1994-2015
                       Pacific Northwest National Laboratory
                            Battelle Memorial Institute

             NWChem is an open-source computational chemistry package
                        distributed under the terms of the
                      Educational Community License (ECL) 2.0
             A copy of the license is included with this distribution
                              in the LICENSE.TXT file

                                  ACKNOWLEDGMENT
                                  --------------

            This software and its documentation were developed at the
            EMSL at Pacific Northwest National Laboratory, a multiprogram
            national laboratory, operated for the U.S. Department of Energy
            by Battelle under Contract Number DE-AC05-76RL01830. Support
            for this work was provided by the Department of Energy Office
            of Biological and Environmental Research, Office of Basic
            Energy Sciences, and the Office of Advanced Scientific Computing.


           Job information
           ---------------

    hostname        = r8n3.niserhpc.org
    program         = /home/bikashp/Code/nwchem-6.6_revtpss/bin/LINUX64/nwchem
    date            = Tue Sep 25 20:25:20 2018

    compiled        = Tue_Sep_25_17:05:19_2018
    source          = /home/bikashp/Code/nwchem-6.6_revtpss
    nwchem branch   = 6.6
    nwchem revision = 27746
    ga revision     = 10594
    input           = /storage/home/bikashp/nwchem_run/rabeet/hb6/nwrevtpss/HCOOH-HCOOH.nw
    prefix          = HCOOH-HCOOH.
    data base       = ./HCOOH-HCOOH.db
    status          = startup
    nproc           =        1
    time left       =     -1s



           Memory information
           ------------------

    heap     =   13107196 doubles =    100.0 Mbytes
    stack    =   13107201 doubles =    100.0 Mbytes
    global   =   26214400 doubles =    200.0 Mbytes (distinct from heap & stack)
    total    =   52428797 doubles =    400.0 Mbytes
    verify   = yes
    hardfail = no 


           Directory information
           ---------------------

  0 permanent = .
  0 scratch   = .




                                NWChem Input Module
                                -------------------



 Scaling coordinates for geometry "geometry" by  1.889725989
 (inverse scale =  0.529177249)

 C2H symmetry detected

          ------
          auto-z
          ------
  autoz: The atoms group into disjoint clusters
 cluster   1:    1    2    3    4    5
 cluster   2:    6    7    8    9   10
 Connecting clusters   1   2 via atoms    3    9 r = 1.71
  autoz: regenerating connections with new bonds


                             Geometry "geometry" -> ""
                             -------------------------

 Output coordinates in angstroms (scale by  1.889725989 to convert to a.u.)

  No.       Tag          Charge          X              Y              Z
 ---- ---------------- ---------- -------------- -------------- --------------
    1 C                    6.0000    -0.17291715     1.91003112     0.00000000
    2 H                    1.0000    -0.25007015     3.00126976     0.00000000
    3 O                    8.0000    -1.15507227     1.18960921     0.00000000
    4 O                    8.0000     1.08064655     1.51083538     0.00000000
    5 H                    1.0000     1.11367946     0.51989930     0.00000000
    6 O                    8.0000     1.15507227    -1.18960921     0.00000000
    7 C                    6.0000     0.17291715    -1.91003112     0.00000000
    8 O                    8.0000    -1.08064655    -1.51083538     0.00000000
    9 H                    1.0000    -1.11367946    -0.51989930     0.00000000
   10 H                    1.0000     0.25007015    -3.00126976     0.00000000

      Atomic Mass 
      ----------- 

      C                 12.000000
      H                  1.007825
      O                 15.994910


 Effective nuclear repulsion energy (a.u.)     235.0301257731

            Nuclear Dipole moment (a.u.) 
            ----------------------------
        X                 Y               Z
 ---------------- ---------------- ----------------
     0.0000000000     0.0000000000     0.0000000000

      Symmetry information
      --------------------

 Group name             C2h       
 Group number             21
 Group order               4
 No. of unique centers     5

      Symmetry unique atoms

     1    2    3    4    5



                                Z-matrix (autoz)
                                -------- 

 Units are Angstrom for bonds and degrees for angles

      Type          Name      I     J     K     L     M      Value
      ----------- --------  ----- ----- ----- ----- ----- ----------
    1 Stretch                  1     2                       1.09396
    2 Stretch                  1     3                       1.21805
    3 Stretch                  1     4                       1.31559
    4 Stretch                  3     9                       1.71001
    5 Stretch                  4     5                       0.99149
    6 Stretch                  6     7                       1.21805
    7 Stretch                  7     8                       1.31559
    8 Stretch                  7    10                       1.09396
    9 Stretch                  8     9                       0.99149
   10 Bend                     1     3     9               124.87342
   11 Bend                     1     4     5               109.57326
   12 Bend                     2     1     3               122.21626
   13 Bend                     2     1     4               111.70822
   14 Bend                     3     8     7               109.24271
   15 Bend                     3     1     4               126.07552
   16 Bend                     6     7     8               126.07552
   17 Bend                     6     7    10               122.21626
   18 Bend                     7     8     9               109.57326
   19 Bend                     8     7    10               111.70822
   20 Bend                     8     3     1               124.68177
   21 Torsion                  1     3     8     7           0.00000
   22 Torsion                  3     1     9     8         180.00000
   23 Torsion                  2     1     3     9         180.00000
   24 Torsion                  2     1     4     5         180.00000
   25 Torsion                  3     1     4     5           0.00000
   26 Torsion                  4     1     3     9           0.00000
   27 Torsion                  6     7     8     9          -0.00000
   28 Torsion                  3     9     7     8         180.00000
   29 Torsion                  9     8     7    10         180.00000


            XYZ format geometry
            -------------------
    10
 geometry
 C                    -0.17291715     1.91003112     0.00000000
 H                    -0.25007015     3.00126976     0.00000000
 O                    -1.15507227     1.18960921     0.00000000
 O                     1.08064655     1.51083538     0.00000000
 H                     1.11367946     0.51989930     0.00000000
 O                     1.15507227    -1.18960921     0.00000000
 C                     0.17291715    -1.91003112     0.00000000
 O                    -1.08064655    -1.51083538     0.00000000
 H                    -1.11367946    -0.51989930     0.00000000
 H                     0.25007015    -3.00126976     0.00000000

 ==============================================================================
                                internuclear distances
 ------------------------------------------------------------------------------
       center one      |      center two      | atomic units |  angstroms
 ------------------------------------------------------------------------------
    2 H                |   1 C                |     2.06729  |     1.09396
    3 O                |   1 C                |     2.30177  |     1.21805
    4 O                |   1 C                |     2.48611  |     1.31559
    5 H                |   4 O                |     1.87364  |     0.99149
    7 C                |   6 O                |     2.30177  |     1.21805
    8 O                |   7 C                |     2.48611  |     1.31559
    9 H                |   8 O                |     1.87364  |     0.99149
   10 H                |   7 C                |     2.06729  |     1.09396
 ------------------------------------------------------------------------------
                         number of included internuclear distances:          8
 ==============================================================================



 ==============================================================================
                                 internuclear angles
 ------------------------------------------------------------------------------
        center 1       |       center 2       |       center 3       |  degrees
 ------------------------------------------------------------------------------
    2 H                |   1 C                |   3 O                |   122.22
    2 H                |   1 C                |   4 O                |   111.71
    3 O                |   1 C                |   4 O                |   126.08
    1 C                |   4 O                |   5 H                |   109.57
    6 O                |   7 C                |   8 O                |   126.08
    6 O                |   7 C                |  10 H                |   122.22
    8 O                |   7 C                |  10 H                |   111.71
    7 C                |   8 O                |   9 H                |   109.57
 ------------------------------------------------------------------------------
                            number of included internuclear angles:          8
 ==============================================================================





 Summary of "ao basis" -> "" (cartesian)
 ------------------------------------------------------------------------------
       Tag                 Description            Shells   Functions and Types
 ---------------- ------------------------------  ------  ---------------------
 *                     6-311++G(3df,3pd)              on all atoms 



                                 NWChem DFT Module
                                 -----------------


                      Basis "ao basis" -> "ao basis" (cartesian)
                      -----
  C (Carbon)
  ----------
            Exponent  Coefficients 
       -------------- ---------------------------------------------------------
  1 S  4.56324000E+03  0.001967
  1 S  6.82024000E+02  0.015231
  1 S  1.54973000E+02  0.076127
  1 S  4.44553000E+01  0.260801
  1 S  1.30290000E+01  0.616462
  1 S  1.82773000E+00  0.221006

  2 S  2.09642000E+01  0.114660
  2 S  4.80331000E+00  0.919999
  2 S  1.45933000E+00 -0.003031

  3 P  2.09642000E+01  0.040249
  3 P  4.80331000E+00  0.237594
  3 P  1.45933000E+00  0.815854

  4 S  4.83456000E-01  1.000000

  5 P  4.83456000E-01  1.000000

  6 S  1.45585000E-01  1.000000

  7 P  1.45585000E-01  1.000000

  8 S  4.38000000E-02  1.000000

  9 P  4.38000000E-02  1.000000

 10 D  2.50400000E+00  1.000000

 11 D  6.26000000E-01  1.000000

 12 D  1.56500000E-01  1.000000

 13 F  8.00000000E-01  1.000000

  H (Hydrogen)
  ------------
            Exponent  Coefficients 
       -------------- ---------------------------------------------------------
  1 S  3.38650000E+01  0.025494
  1 S  5.09479000E+00  0.190373
  1 S  1.15879000E+00  0.852161

  2 S  3.25840000E-01  1.000000

  3 S  1.02741000E-01  1.000000

  4 S  3.60000000E-02  1.000000

  5 P  3.00000000E+00  1.000000

  6 P  7.50000000E-01  1.000000

  7 P  1.87500000E-01  1.000000

  8 D  1.00000000E+00  1.000000

  O (Oxygen)
  ----------
            Exponent  Coefficients 
       -------------- ---------------------------------------------------------
  1 S  8.58850000E+03  0.001895
  1 S  1.29723000E+03  0.014386
  1 S  2.99296000E+02  0.070732
  1 S  8.73771000E+01  0.240001
  1 S  2.56789000E+01  0.594797
  1 S  3.74004000E+00  0.280802

  2 S  4.21175000E+01  0.113889
  2 S  9.62837000E+00  0.920811
  2 S  2.85332000E+00 -0.003274

  3 P  4.21175000E+01  0.036511
  3 P  9.62837000E+00  0.237153
  3 P  2.85332000E+00  0.819702

  4 S  9.05661000E-01  1.000000

  5 P  9.05661000E-01  1.000000

  6 S  2.55611000E-01  1.000000

  7 P  2.55611000E-01  1.000000

  8 S  8.45000000E-02  1.000000

  9 P  8.45000000E-02  1.000000

 10 D  5.16000000E+00  1.000000

 11 D  1.29200000E+00  1.000000

 12 D  3.22500000E-01  1.000000

 13 F  1.40000000E+00  1.000000



 Summary of "ao basis" -> "ao basis" (cartesian)
 ------------------------------------------------------------------------------
       Tag                 Description            Shells   Functions and Types
 ---------------- ------------------------------  ------  ---------------------
 C                     6-311++G(3df,3pd)            13       45   5s4p3d1f
 H                     6-311++G(3df,3pd)             8       19   4s3p1d
 O                     6-311++G(3df,3pd)            13       45   5s4p3d1f




 Summary of "ao basis" -> "ao basis" (cartesian)
 ------------------------------------------------------------------------------
       Tag                 Description            Shells   Functions and Types
 ---------------- ------------------------------  ------  ---------------------
 C                     6-311++G(3df,3pd)            13       45   5s4p3d1f
 H                     6-311++G(3df,3pd)             8       19   4s3p1d
 O                     6-311++G(3df,3pd)            13       45   5s4p3d1f


      Symmetry analysis of basis
      --------------------------

        ag        121
        au         52
        bg         52
        bu        121

  Caching 1-el integrals 

            General Information
            -------------------
          SCF calculation type: DFT
          Wavefunction type:  closed shell.
          No. of atoms     :    10
          No. of electrons :    48
           Alpha electrons :    24
            Beta electrons :    24
          Charge           :     0
          Spin multiplicity:     1
          Use of symmetry is: on ; symmetry adaption is: on 
          Maximum number of iterations: ***
          AO basis - number of functions:   346
                     number of shells:   110
          Convergence on energy requested: 1.00D-06
          Convergence on density requested: 1.00D-05
          Convergence on gradient requested: 5.00D-04

              XC Information
              --------------
                  TPSS metaGGA Exchange Functional  1.000          
             TPSS03 metaGGA Correlation Functional  1.000          

             Grid Information
             ----------------
          Grid used for XC integration:  medium    
          Radial quadrature: Mura-Knowles        
          Angular quadrature: Lebedev. 
          Tag              B.-S. Rad. Rad. Pts. Rad. Cut. Ang. Pts.
          ---              ---------- --------- --------- ---------
          C                   0.70       49          16.0       434
          H                   0.35       45          17.0       434
          O                   0.60       49          14.0       434
          Grid pruning is: on 
          Number of quadrature shells:   237
          Spatial weights used:  Erf1

          Convergence Information
          -----------------------
          Convergence aids based upon iterative change in 
          total energy or number of iterations. 
          Levelshifting, if invoked, occurs when the 
          HOMO/LUMO gap drops below (HL_TOL): 1.00D-02
          DIIS, if invoked, will attempt to extrapolate 
          using up to (NFOCK): 10 stored Fock matrices.

                    Damping( 0%)  Levelshifting(0.5)       DIIS
                  --------------- ------------------- ---------------
          dE  on:    start            ASAP                start   
          dE off:    2 iters        *** iters           *** iters 


      Screening Tolerance Information
      -------------------------------
          Density screening/tol_rho: 1.00D-10
          AO Gaussian exp screening on grid/accAOfunc:  14
          CD Gaussian exp screening on grid/accCDfunc:  20
          XC Gaussian exp screening on grid/accXCfunc:  20
          Schwarz screening/accCoul: 1.00D-08


      Superposition of Atomic Density Guess
      -------------------------------------

 Sum of atomic energies:        -376.44865127

      Non-variational initial energy
      ------------------------------

 Total energy =    -378.905320
 1-e energy   =    -982.031395
 2-e energy   =     368.095950
 HOMO         =      -0.386176
 LUMO         =       0.011795


      Symmetry analysis of molecular orbitals - initial
      -------------------------------------------------

  Numbering of irreducible representations: 

     1 ag          2 au          3 bg          4 bu      

  Orbital symmetries:

     1 ag          2 bu          3 ag          4 bu          5 ag      
     6 bu          7 ag          8 bu          9 bu         10 ag      
    11 ag         12 bu         13 bu         14 ag         15 bu      
    16 ag         17 au         18 bg         19 ag         20 bu      
    21 bg         22 au         23 ag         24 bu         25 au      
    26 bg         27 ag         28 bu         29 ag         30 bu      
    31 au         32 ag         33 ag         34 bu      

   Time after variat. SCF:      7.4
   Time prior to 1st pass:      7.4

 Integral file          = ./HCOOH-HCOOH.aoints.0
 Record size in doubles =    65536    No. of integs per rec  =    32766
 Max. records in memory =        0    Max. records in file   = ********
 No. of bits per label  =       16    No. of bits per value  =       64


 #quartets = 6.954D+06 #integrals = 2.466D+08 #direct =  0.0% #cached =100.0%


 Grid_pts file          = ./HCOOH-HCOOH.gridpts.0
 Record size in doubles =  12289        No. of grid_pts per rec  =   3070
 Max. records in memory =     38        Max. recs in file   = 995165145


           Memory utilization after 1st SCF pass: 
           Heap Space remaining (MW):       12.63            12632172
          Stack Space remaining (MW):       13.11            13105252

   convergence    iter        energy       DeltaE   RMS-Dens  Diis-err    time
 ---------------- ----- ----------------- --------- --------- ---------  ------
 d= 0,ls=0.0,diis     1   -379.3970427486 -6.14D+02  4.73D-03  2.31D+00    88.7
 d= 0,ls=0.0,diis     2   -378.7089572459  6.88D-01  3.66D-03  9.67D+00   104.3
 d= 0,ls=0.0,diis     3   -379.5692797562 -8.60D-01  1.35D-03  5.21D-01   119.7
 d= 0,ls=0.0,diis     4   -379.5865620217 -1.73D-02  6.10D-04  3.41D-01   134.0
 d= 0,ls=0.0,diis     5   -379.6163697875 -2.98D-02  9.38D-05  3.19D-03   149.0
  Resetting Diis
 d= 0,ls=0.0,diis     6   -379.6167379670 -3.68D-04  2.91D-05  2.29D-04   164.1
 d= 0,ls=0.0,diis     7   -379.6167316515  6.32D-06  1.10D-05  1.13D-05   179.1
 d= 0,ls=0.0,diis     8   -379.6167380673 -6.42D-06  5.73D-06  1.08D-05   194.4
 d= 0,ls=0.0,diis     9   -379.6167350558  3.01D-06  6.68D-07  1.53D-07   208.5
 d= 0,ls=0.0,diis    10   -379.6167353956 -3.40D-07  2.44D-07  4.36D-08   223.4


         Total DFT energy =     -379.616735395587
      One electron energy =     -985.472341129242
           Coulomb energy =      417.432192091416
          Exchange energy =      -44.927711129397
       Correlation energy =       -1.679001001418
 Nuclear repulsion energy =      235.030125773053

 Numeric. integr. density =       48.000001691988

     Total iterative time =    216.0s



                  Occupations of the irreducible representations
                  ----------------------------------------------

                     irrep           alpha         beta
                     --------     --------     --------
                     ag               10.0         10.0
                     au                2.0          2.0
                     bg                2.0          2.0
                     bu               10.0         10.0


                       DFT Final Molecular Orbital Analysis
                       ------------------------------------

 Vector    6  Occ=2.000000D+00  E=-1.015709D+01  Symmetry=ag
              MO Center= -1.5D-17,  8.9D-16,  2.4D-35, r^2= 3.7D+00
   Bfn.  Coefficient  Atom+Function         Bfn.  Coefficient  Atom+Function  
  ----- ------------  ---------------      ----- ------------  ---------------
     1      0.398786   1 C  s               219      0.398786   7 C  s         
     2      0.328829   1 C  s               220      0.328829   7 C  s         

 Vector    7  Occ=2.000000D+00  E=-1.066606D+00  Symmetry=ag
              MO Center= -1.1D-14, -3.2D-14,  4.1D-16, r^2= 3.2D+00
   Bfn.  Coefficient  Atom+Function         Bfn.  Coefficient  Atom+Function  
  ----- ------------  ---------------      ----- ------------  ---------------
   115      0.293356   4 O  s               269      0.293356   8 O  s         
   119      0.265182   4 O  s               273      0.265182   8 O  s         
    70      0.200092   3 O  s               179      0.200092   6 O  s         
     6      0.191105   1 C  s               224      0.191105   7 C  s         
    74      0.176851   3 O  s               183      0.176851   6 O  s         

 Vector    8  Occ=2.000000D+00  E=-1.056750D+00  Symmetry=bu
              MO Center=  6.3D-15,  3.3D-14, -2.0D-30, r^2= 3.3D+00
   Bfn.  Coefficient  Atom+Function         Bfn.  Coefficient  Atom+Function  
  ----- ------------  ---------------      ----- ------------  ---------------
   115      0.306566   4 O  s               269     -0.306566   8 O  s         
   119      0.279778   4 O  s               273     -0.279778   8 O  s         
     6      0.195055   1 C  s               224     -0.195055   7 C  s         
    70      0.187121   3 O  s               179     -0.187121   6 O  s         
    74      0.168110   3 O  s               183     -0.168110   6 O  s         

 Vector    9  Occ=2.000000D+00  E=-9.841775D-01  Symmetry=bu
              MO Center=  2.0D-14, -7.6D-14,  4.5D-16, r^2= 3.3D+00
   Bfn.  Coefficient  Atom+Function         Bfn.  Coefficient  Atom+Function  
  ----- ------------  ---------------      ----- ------------  ---------------
    70      0.317945   3 O  s               179     -0.317945   6 O  s         
    74      0.295040   3 O  s               183     -0.295040   6 O  s         
   115     -0.234745   4 O  s               269      0.234745   8 O  s         
   119     -0.214096   4 O  s               273      0.214096   8 O  s         

 Vector   10  Occ=2.000000D+00  E=-9.734983D-01  Symmetry=ag
              MO Center= -1.7D-14,  7.5D-14,  3.1D-16, r^2= 3.4D+00
   Bfn.  Coefficient  Atom+Function         Bfn.  Coefficient  Atom+Function  
  ----- ------------  ---------------      ----- ------------  ---------------
    70      0.310679   3 O  s               179      0.310679   6 O  s         
    74      0.288224   3 O  s               183      0.288224   6 O  s         
   115     -0.253645   4 O  s               269     -0.253645   8 O  s         
   119     -0.237076   4 O  s               273     -0.237076   8 O  s         

 Vector   11  Occ=2.000000D+00  E=-6.405649D-01  Symmetry=ag
              MO Center=  6.9D-16,  5.0D-16,  7.1D-31, r^2= 4.6D+00
   Bfn.  Coefficient  Atom+Function         Bfn.  Coefficient  Atom+Function  
  ----- ------------  ---------------      ----- ------------  ---------------
     6      0.246279   1 C  s               224      0.246279   7 C  s         

 Vector   12  Occ=2.000000D+00  E=-6.164268D-01  Symmetry=bu
              MO Center= -5.6D-16,  6.7D-16,  7.3D-32, r^2= 4.9D+00
   Bfn.  Coefficient  Atom+Function         Bfn.  Coefficient  Atom+Function  
  ----- ------------  ---------------      ----- ------------  ---------------
     6      0.226024   1 C  s               224     -0.226024   7 C  s         

 Vector   13  Occ=2.000000D+00  E=-5.140258D-01  Symmetry=bu
              MO Center= -1.2D-16, -3.9D-16, -9.7D-32, r^2= 4.5D+00
   Bfn.  Coefficient  Atom+Function         Bfn.  Coefficient  Atom+Function  
  ----- ------------  ---------------      ----- ------------  ---------------
    74      0.171367   3 O  s               183     -0.171367   6 O  s         

 Vector   14  Occ=2.000000D+00  E=-4.855720D-01  Symmetry=ag
              MO Center= -5.3D-16,  4.4D-16,  1.1D-31, r^2= 5.1D+00
   Bfn.  Coefficient  Atom+Function         Bfn.  Coefficient  Atom+Function  
  ----- ------------  ---------------      ----- ------------  ---------------
   116      0.163170   4 O  px              270     -0.163170   8 O  px        

 Vector   15  Occ=2.000000D+00  E=-4.680420D-01  Symmetry=bu
              MO Center=  7.8D-16,  5.6D-17,  1.7D-31, r^2= 4.3D+00
   Bfn.  Coefficient  Atom+Function         Bfn.  Coefficient  Atom+Function  
  ----- ------------  ---------------      ----- ------------  ---------------
    74      0.199335   3 O  s               183     -0.199335   6 O  s         
   119      0.190876   4 O  s               273     -0.190876   8 O  s         
    71     -0.151901   3 O  px              180     -0.151901   6 O  px        

 Vector   16  Occ=2.000000D+00  E=-4.506205D-01  Symmetry=ag
              MO Center= -1.8D-14, -8.3D-17, -9.7D-16, r^2= 3.7D+00
   Bfn.  Coefficient  Atom+Function         Bfn.  Coefficient  Atom+Function  
  ----- ------------  ---------------      ----- ------------  ---------------
    74      0.286113   3 O  s               183      0.286113   6 O  s         
    70      0.194334   3 O  s               179      0.194334   6 O  s         
    71     -0.162224   3 O  px              180      0.162224   6 O  px        

 Vector   17  Occ=2.000000D+00  E=-4.271706D-01  Symmetry=au
              MO Center=  8.5D-15, -1.4D-13, -5.5D-16, r^2= 3.9D+00
   Bfn.  Coefficient  Atom+Function         Bfn.  Coefficient  Atom+Function  
  ----- ------------  ---------------      ----- ------------  ---------------
   118      0.168945   4 O  pz              272      0.168945   8 O  pz        
     9      0.165921   1 C  pz              227      0.165921   7 C  pz        
    73      0.151546   3 O  pz              122      0.150883   4 O  pz        
   182      0.151546   6 O  pz              276      0.150883   8 O  pz        

 Vector   18  Occ=2.000000D+00  E=-4.197657D-01  Symmetry=bg
              MO Center= -8.9D-16,  1.4D-13, -3.2D-17, r^2= 3.9D+00
   Bfn.  Coefficient  Atom+Function         Bfn.  Coefficient  Atom+Function  
  ----- ------------  ---------------      ----- ------------  ---------------
   118      0.172275   4 O  pz              272     -0.172275   8 O  pz        
     9      0.170517   1 C  pz              227     -0.170517   7 C  pz        
   122      0.156171   4 O  pz              276     -0.156171   8 O  pz        
    73      0.151372   3 O  pz              182     -0.151372   6 O  pz        

 Vector   19  Occ=2.000000D+00  E=-3.927062D-01  Symmetry=ag
              MO Center= -3.8D-15, -9.1D-15, -6.6D-16, r^2= 4.8D+00
   Bfn.  Coefficient  Atom+Function         Bfn.  Coefficient  Atom+Function  
  ----- ------------  ---------------      ----- ------------  ---------------
   119      0.255628   4 O  s               273      0.255628   8 O  s         
   115      0.151649   4 O  s               269      0.151649   8 O  s         

 Vector   20  Occ=2.000000D+00  E=-3.525357D-01  Symmetry=bu
              MO Center=  2.3D-14,  2.2D-14,  3.5D-15, r^2= 4.5D+00
   Bfn.  Coefficient  Atom+Function         Bfn.  Coefficient  Atom+Function  
  ----- ------------  ---------------      ----- ------------  ---------------
   121      0.177326   4 O  py              275      0.177326   8 O  py        
   117      0.175621   4 O  py              271      0.175621   8 O  py        
   119      0.158408   4 O  s               273     -0.158408   8 O  s         

 Vector   21  Occ=2.000000D+00  E=-3.125839D-01  Symmetry=bg
              MO Center= -7.0D-15,  2.9D-13, -2.9D-15, r^2= 3.7D+00
   Bfn.  Coefficient  Atom+Function         Bfn.  Coefficient  Atom+Function  
  ----- ------------  ---------------      ----- ------------  ---------------
   118     -0.223069   4 O  pz              272      0.223069   8 O  pz        
   122     -0.215570   4 O  pz              276      0.215570   8 O  pz        
    73      0.208092   3 O  pz              182     -0.208092   6 O  pz        
    77      0.199613   3 O  pz              186     -0.199613   6 O  pz        
   114     -0.155644   4 O  pz              268      0.155644   8 O  pz        

 Vector   22  Occ=2.000000D+00  E=-3.032372D-01  Symmetry=au
              MO Center= -2.2D-15, -2.9D-13, -3.3D-15, r^2= 3.7D+00
   Bfn.  Coefficient  Atom+Function         Bfn.  Coefficient  Atom+Function  
  ----- ------------  ---------------      ----- ------------  ---------------
   118     -0.230856   4 O  pz              272     -0.230856   8 O  pz        
   122     -0.221673   4 O  pz              276     -0.221673   8 O  pz        
    73      0.210352   3 O  pz              182      0.210352   6 O  pz        
    77      0.198072   3 O  pz              186      0.198072   6 O  pz        
   114     -0.160725   4 O  pz              268     -0.160725   8 O  pz        

 Vector   23  Occ=2.000000D+00  E=-2.801086D-01  Symmetry=ag
              MO Center= -3.4D-14,  4.0D-14,  4.5D-15, r^2= 4.0D+00
   Bfn.  Coefficient  Atom+Function         Bfn.  Coefficient  Atom+Function  
  ----- ------------  ---------------      ----- ------------  ---------------
    76      0.214119   3 O  py              185     -0.214119   6 O  py        
    72      0.191256   3 O  py              181     -0.191256   6 O  py        
    75     -0.183197   3 O  px              184      0.183197   6 O  px        
    71     -0.176999   3 O  px              180      0.176999   6 O  px        

 Vector   24  Occ=2.000000D+00  E=-2.673677D-01  Symmetry=bu
              MO Center=  3.3D-14, -5.1D-14, -2.6D-16, r^2= 4.3D+00
   Bfn.  Coefficient  Atom+Function         Bfn.  Coefficient  Atom+Function  
  ----- ------------  ---------------      ----- ------------  ---------------
    76      0.276860   3 O  py              185      0.276860   6 O  py        
    72      0.233245   3 O  py              181      0.233245   6 O  py        
    68      0.165524   3 O  py              177      0.165524   6 O  py        
    75     -0.150701   3 O  px              184     -0.150701   6 O  px        

 Vector   25  Occ=0.000000D+00  E=-6.057424D-02  Symmetry=au
              MO Center=  2.6D-15,  6.8D-16, -2.0D-16, r^2= 5.0D+00
   Bfn.  Coefficient  Atom+Function         Bfn.  Coefficient  Atom+Function  
  ----- ------------  ---------------      ----- ------------  ---------------
    13      0.381673   1 C  pz              231      0.381673   7 C  pz        
     9      0.257498   1 C  pz              227      0.257498   7 C  pz        
    77     -0.197672   3 O  pz              186     -0.197672   6 O  pz        
     5      0.181087   1 C  pz              223      0.181087   7 C  pz        
    73     -0.170387   3 O  pz               81     -0.170895   3 O  pz        

 Vector   26  Occ=0.000000D+00  E=-5.095541D-02  Symmetry=bg
              MO Center= -7.5D-16, -4.9D-16,  1.8D-16, r^2= 5.2D+00
   Bfn.  Coefficient  Atom+Function         Bfn.  Coefficient  Atom+Function  
  ----- ------------  ---------------      ----- ------------  ---------------
    13      0.353081   1 C  pz              231     -0.353081   7 C  pz        
     9      0.255225   1 C  pz              227     -0.255225   7 C  pz        
    17      0.221811   1 C  pz              235     -0.221811   7 C  pz        
    77     -0.211863   3 O  pz              186      0.211863   6 O  pz        
    73     -0.183253   3 O  pz              182      0.183253   6 O  pz        

 Vector   27  Occ=0.000000D+00  E=-1.496311D-02  Symmetry=ag
              MO Center=  1.3D-15, -2.2D-15,  4.9D-16, r^2= 2.0D+01
   Bfn.  Coefficient  Atom+Function         Bfn.  Coefficient  Atom+Function  
  ----- ------------  ---------------      ----- ------------  ---------------
    14      1.749082   1 C  s               232      1.749082   7 C  s         
    49     -1.702346   2 H  s               331     -1.702346  10 H  s         
   158     -0.897178   5 H  s               312     -0.897178   9 H  s         
   157     -0.596932   5 H  s               311     -0.596932   9 H  s         
   123      0.405323   4 O  s               277      0.405323   8 O  s         

 Vector   28  Occ=0.000000D+00  E=-8.470237D-03  Symmetry=bu
              MO Center= -2.0D-13,  1.5D-12, -5.2D-15, r^2= 2.6D+01
   Bfn.  Coefficient  Atom+Function         Bfn.  Coefficient  Atom+Function  
  ----- ------------  ---------------      ----- ------------  ---------------
    49      3.305898   2 H  s               331     -3.305898  10 H  s         
    14     -2.156323   1 C  s               232      2.156323   7 C  s         
    16     -1.682073   1 C  py              234     -1.682073   7 C  py        
    48      0.496685   2 H  s               330     -0.496685  10 H  s         
    10     -0.476767   1 C  s               228      0.476767   7 C  s         

 Vector   29  Occ=0.000000D+00  E= 8.626805D-03  Symmetry=ag
              MO Center=  1.2D-14, -1.3D-12, -2.5D-15, r^2= 1.8D+01
   Bfn.  Coefficient  Atom+Function         Bfn.  Coefficient  Atom+Function  
  ----- ------------  ---------------      ----- ------------  ---------------
    49      2.512855   2 H  s               331      2.512855  10 H  s         
   158     -1.773750   5 H  s               312     -1.773750   9 H  s         
    14     -1.543422   1 C  s               232     -1.543422   7 C  s         
    16     -1.107593   1 C  py              234      1.107593   7 C  py        
    48      0.731280   2 H  s               330      0.731280  10 H  s         

 Vector   30  Occ=0.000000D+00  E= 1.763676D-02  Symmetry=bu
              MO Center=  4.7D-13,  1.6D-13, -5.7D-15, r^2= 1.6D+01
   Bfn.  Coefficient  Atom+Function         Bfn.  Coefficient  Atom+Function  
  ----- ------------  ---------------      ----- ------------  ---------------
   158     -1.909470   5 H  s               312      1.909470   9 H  s         
   123      1.844268   4 O  s               277     -1.844268   8 O  s         
   157     -1.381037   5 H  s               311      1.381037   9 H  s         
    78     -1.166982   3 O  s               187      1.166982   6 O  s         
   125     -0.499353   4 O  py              279     -0.499353   8 O  py        

 Vector   31  Occ=0.000000D+00  E= 2.784630D-02  Symmetry=au
              MO Center=  1.6D-15, -4.7D-14, -3.8D-14, r^2= 1.4D+01
   Bfn.  Coefficient  Atom+Function         Bfn.  Coefficient  Atom+Function  
  ----- ------------  ---------------      ----- ------------  ---------------
    17      0.906759   1 C  pz              235      0.906759   7 C  pz        
    81     -0.195966   3 O  pz              190     -0.195966   6 O  pz        
    13     -0.155697   1 C  pz              231     -0.155697   7 C  pz        
   126     -0.154469   4 O  pz              280     -0.154469   8 O  pz        

 Vector   32  Occ=0.000000D+00  E= 4.775267D-02  Symmetry=ag
              MO Center=  2.1D-14, -1.1D-13,  1.1D-16, r^2= 2.0D+01
   Bfn.  Coefficient  Atom+Function         Bfn.  Coefficient  Atom+Function  
  ----- ------------  ---------------      ----- ------------  ---------------
   123     -1.820743   4 O  s               277     -1.820743   8 O  s         
    78      1.758651   3 O  s               187      1.758651   6 O  s         
    15      1.726007   1 C  px              233     -1.726007   7 C  px        
    14     -0.820493   1 C  s               232     -0.820493   7 C  s         
   157      0.805488   5 H  s               311      0.805488   9 H  s         

 Vector   33  Occ=0.000000D+00  E= 5.822819D-02  Symmetry=bg
              MO Center= -1.0D-15,  4.1D-14, -9.6D-14, r^2= 1.6D+01
   Bfn.  Coefficient  Atom+Function         Bfn.  Coefficient  Atom+Function  
  ----- ------------  ---------------      ----- ------------  ---------------
    17      1.229765   1 C  pz              235     -1.229765   7 C  pz        
    81     -0.253846   3 O  pz              190      0.253846   6 O  pz        
   126     -0.245026   4 O  pz              280      0.245026   8 O  pz        
    13     -0.214503   1 C  pz              231      0.214503   7 C  pz        

 Vector   34  Occ=0.000000D+00  E= 6.439611D-02  Symmetry=ag
              MO Center=  1.5D-11, -2.2D-11,  3.6D-14, r^2= 1.5D+01
   Bfn.  Coefficient  Atom+Function         Bfn.  Coefficient  Atom+Function  
  ----- ------------  ---------------      ----- ------------  ---------------
    14      6.188139   1 C  s               232      6.188139   7 C  s         
   158     -5.192727   5 H  s               312     -5.192727   9 H  s         
    16     -3.284840   1 C  py              234      3.284840   7 C  py        
    78     -2.952567   3 O  s               187     -2.952567   6 O  s         
   123     -2.695309   4 O  s               277     -2.695309   8 O  s         

 Vector   35  Occ=0.000000D+00  E= 6.548042D-02  Symmetry=bu
              MO Center= -2.6D-11,  1.5D-11,  1.0D-13, r^2= 1.6D+01
   Bfn.  Coefficient  Atom+Function         Bfn.  Coefficient  Atom+Function  
  ----- ------------  ---------------      ----- ------------  ---------------
    14      5.446309   1 C  s               232     -5.446309   7 C  s         
    78     -2.541751   3 O  s               187      2.541751   6 O  s         
    10      2.163659   1 C  s                49     -2.167151   2 H  s         
   228     -2.163659   7 C  s               331      2.167151  10 H  s         
   123     -2.121036   4 O  s               277      2.121036   8 O  s         

 Vector   36  Occ=0.000000D+00  E= 7.840846D-02  Symmetry=bu
              MO Center=  1.0D-11,  7.2D-12,  3.6D-15, r^2= 2.0D+01
   Bfn.  Coefficient  Atom+Function         Bfn.  Coefficient  Atom+Function  
  ----- ------------  ---------------      ----- ------------  ---------------
   158      4.889959   5 H  s               312     -4.889959   9 H  s         
    14     -3.711408   1 C  s               232      3.711408   7 C  s         
    15     -2.781874   1 C  px              233     -2.781874   7 C  px        
   123      1.734247   4 O  s               277     -1.734247   8 O  s         
    10     -1.002424   1 C  s               228      1.002424   7 C  s         

 Vector   37  Occ=0.000000D+00  E= 1.028809D-01  Symmetry=bu
              MO Center=  1.1D-12, -1.2D-11,  3.2D-16, r^2= 2.8D+01
   Bfn.  Coefficient  Atom+Function         Bfn.  Coefficient  Atom+Function  
  ----- ------------  ---------------      ----- ------------  ---------------
    49      7.756689   2 H  s               331     -7.756689  10 H  s         
    14     -6.123709   1 C  s                16     -6.113974   1 C  py        
   232      6.123709   7 C  s               234     -6.113974   7 C  py        
    48      1.670344   2 H  s               330     -1.670344  10 H  s         
    10     -1.269537   1 C  s               228      1.269537   7 C  s         

 Vector   38  Occ=0.000000D+00  E= 1.057794D-01  Symmetry=ag
              MO Center= -1.1D-12,  1.3D-11,  9.2D-16, r^2= 2.7D+01
   Bfn.  Coefficient  Atom+Function         Bfn.  Coefficient  Atom+Function  
  ----- ------------  ---------------      ----- ------------  ---------------
    14      7.020647   1 C  s               232      7.020647   7 C  s         
    49     -6.623063   2 H  s               331     -6.623063  10 H  s         
    16      3.877160   1 C  py              234     -3.877160   7 C  py        
   157     -1.141267   5 H  s               311     -1.141267   9 H  s         
   158      1.087149   5 H  s               312      1.087149   9 H  s         

 Vector   39  Occ=0.000000D+00  E= 1.473946D-01  Symmetry=bg
              MO Center=  2.2D-15,  1.1D-16,  4.3D-15, r^2= 9.5D+00
   Bfn.  Coefficient  Atom+Function         Bfn.  Coefficient  Atom+Function  
  ----- ------------  ---------------      ----- ------------  ---------------
   126      0.913601   4 O  pz              280     -0.913601   8 O  pz        
    81     -0.783523   3 O  pz              190      0.783523   6 O  pz        
    32     -0.409636   1 C  dxz             250     -0.409636   7 C  dxz       
   167     -0.194035   5 H  pz              321      0.194035   9 H  pz        
    34     -0.164665   1 C  dyz             252     -0.164665   7 C  dyz       

 Vector   40  Occ=0.000000D+00  E= 1.522188D-01  Symmetry=bu
              MO Center=  3.8D-12,  1.6D-12, -1.6D-16, r^2= 9.2D+00
   Bfn.  Coefficient  Atom+Function         Bfn.  Coefficient  Atom+Function  
  ----- ------------  ---------------      ----- ------------  ---------------
   123      3.896417   4 O  s               277     -3.896417   8 O  s         
   157     -2.301489   5 H  s               311      2.301489   9 H  s         
   158     -1.708658   5 H  s               312      1.708658   9 H  s         
    78     -1.470557   3 O  s               187      1.470557   6 O  s         
   125     -1.053426   4 O  py              279     -1.053426   8 O  py        

 Vector   41  Occ=0.000000D+00  E= 1.535466D-01  Symmetry=ag
              MO Center= -2.9D-12, -1.1D-12,  1.4D-15, r^2= 8.6D+00
   Bfn.  Coefficient  Atom+Function         Bfn.  Coefficient  Atom+Function  
  ----- ------------  ---------------      ----- ------------  ---------------
   123      3.515246   4 O  s               277      3.515246   8 O  s         
    78      3.022980   3 O  s               187      3.022980   6 O  s         
   157     -2.324459   5 H  s               311     -2.324459   9 H  s         
    16      1.322624   1 C  py              234     -1.322624   7 C  py        
    10     -1.282935   1 C  s               228     -1.282935   7 C  s         

 Vector   42  Occ=0.000000D+00  E= 1.631882D-01  Symmetry=ag
              MO Center= -6.2D-13, -2.4D-13,  1.1D-15, r^2= 1.3D+01
   Bfn.  Coefficient  Atom+Function         Bfn.  Coefficient  Atom+Function  
  ----- ------------  ---------------      ----- ------------  ---------------
    14      5.525509   1 C  s               232      5.525509   7 C  s         
    48     -4.786521   2 H  s               330     -4.786521  10 H  s         
    10      3.066669   1 C  s               228      3.066669   7 C  s         
    49     -2.741614   2 H  s               331     -2.741614  10 H  s         
    16      2.678963   1 C  py              234     -2.678963   7 C  py        

 Vector   43  Occ=0.000000D+00  E= 1.775807D-01  Symmetry=bu
              MO Center= -1.1D-12, -2.0D-12, -3.8D-15, r^2= 1.3D+01
   Bfn.  Coefficient  Atom+Function         Bfn.  Coefficient  Atom+Function  
  ----- ------------  ---------------      ----- ------------  ---------------
   123      4.534603   4 O  s               277     -4.534603   8 O  s         
   157     -4.254191   5 H  s               311      4.254191   9 H  s         
   125     -2.379720   4 O  py              279     -2.379720   8 O  py        
    16      2.297675   1 C  py              234      2.297675   7 C  py        
    78      1.400120   3 O  s               187     -1.400120   6 O  s         

 Vector   44  Occ=0.000000D+00  E= 1.788073D-01  Symmetry=au
              MO Center=  1.1D-16,  6.9D-16, -2.0D-15, r^2= 9.4D+00
   Bfn.  Coefficient  Atom+Function         Bfn.  Coefficient  Atom+Function  
  ----- ------------  ---------------      ----- ------------  ---------------
    17      1.007361   1 C  pz              235      1.007361   7 C  pz        
    81     -0.951296   3 O  pz              190     -0.951296   6 O  pz        
   126     -0.889182   4 O  pz              280     -0.889182   8 O  pz        
    77      0.251562   3 O  pz              186      0.251562   6 O  pz        
   122      0.237169   4 O  pz              276      0.237169   8 O  pz        

 Vector   45  Occ=0.000000D+00  E= 1.884622D-01  Symmetry=ag
              MO Center=  4.7D-13,  1.7D-12, -1.6D-16, r^2= 1.1D+01
   Bfn.  Coefficient  Atom+Function         Bfn.  Coefficient  Atom+Function  
  ----- ------------  ---------------      ----- ------------  ---------------
   157      4.895418   5 H  s               311      4.895418   9 H  s         
    48     -3.362531   2 H  s               330     -3.362531  10 H  s         
   158      3.275025   5 H  s               312      3.275025   9 H  s         
    16      2.331301   1 C  py              234     -2.331301   7 C  py        
   123     -2.220822   4 O  s               277     -2.220822   8 O  s         

 Vector   46  Occ=0.000000D+00  E= 2.121555D-01  Symmetry=au
              MO Center= -3.4D-15,  4.4D-16,  1.1D-15, r^2= 1.1D+01
   Bfn.  Coefficient  Atom+Function         Bfn.  Coefficient  Atom+Function  
  ----- ------------  ---------------      ----- ------------  ---------------
   126      1.250159   4 O  pz              280      1.250159   8 O  pz        
    81     -0.995783   3 O  pz              190     -0.995783   6 O  pz        
    32     -0.332223   1 C  dxz             250      0.332223   7 C  dxz       
    77      0.187138   3 O  pz              186      0.187138   6 O  pz        
   122     -0.159161   4 O  pz              276     -0.159161   8 O  pz        

 Vector   47  Occ=0.000000D+00  E= 2.156007D-01  Symmetry=bu
              MO Center= -2.8D-11,  3.1D-11, -1.9D-15, r^2= 1.2D+01
   Bfn.  Coefficient  Atom+Function         Bfn.  Coefficient  Atom+Function  
  ----- ------------  ---------------      ----- ------------  ---------------
    78      6.726762   3 O  s               187     -6.726762   6 O  s         
    16      3.801251   1 C  py              234      3.801251   7 C  py        
    14     -2.285442   1 C  s               232      2.285442   7 C  s         
    79      2.201884   3 O  px              188      2.201884   6 O  px        
    49     -2.028820   2 H  s               331      2.028820  10 H  s         

 Vector   48  Occ=0.000000D+00  E= 2.164129D-01  Symmetry=ag
              MO Center=  2.7D-11, -3.2D-11,  3.0D-16, r^2= 1.3D+01
   Bfn.  Coefficient  Atom+Function         Bfn.  Coefficient  Atom+Function  
  ----- ------------  ---------------      ----- ------------  ---------------
    78      5.735952   3 O  s               187      5.735952   6 O  s         
   157     -4.982724   5 H  s               311     -4.982724   9 H  s         
   123      3.072530   4 O  s               277      3.072530   8 O  s         
    14     -2.938922   1 C  s               232     -2.938922   7 C  s         
   125     -2.470602   4 O  py              279      2.470602   8 O  py        

 Vector   49  Occ=0.000000D+00  E= 2.188226D-01  Symmetry=bu
              MO Center= -2.4D-12, -4.0D-13, -4.7D-15, r^2= 1.1D+01
   Bfn.  Coefficient  Atom+Function         Bfn.  Coefficient  Atom+Function  
  ----- ------------  ---------------      ----- ------------  ---------------
   123      9.664585   4 O  s               277     -9.664585   8 O  s         
   157     -8.041084   5 H  s               311      8.041084   9 H  s         
    14     -3.729625   1 C  s               232      3.729625   7 C  s         
   125     -2.510193   4 O  py              279     -2.510193   8 O  py        
    79     -1.851622   3 O  px              188     -1.851622   6 O  px        

 Vector   50  Occ=0.000000D+00  E= 2.373113D-01  Symmetry=bu
              MO Center=  4.2D-13,  4.1D-13, -5.7D-17, r^2= 1.9D+01
   Bfn.  Coefficient  Atom+Function         Bfn.  Coefficient  Atom+Function  
  ----- ------------  ---------------      ----- ------------  ---------------
    16      8.569672   1 C  py              234      8.569672   7 C  py        
    48     -7.642501   2 H  s               330      7.642501  10 H  s         
    49     -7.059008   2 H  s               331      7.059008  10 H  s         
    14      3.891037   1 C  s               232     -3.891037   7 C  s         
    10      3.707560   1 C  s               228     -3.707560   7 C  s         

 Vector   51  Occ=0.000000D+00  E= 2.465099D-01  Symmetry=ag
              MO Center=  1.9D-12, -1.6D-13, -2.0D-16, r^2= 1.6D+01
   Bfn.  Coefficient  Atom+Function         Bfn.  Coefficient  Atom+Function  
  ----- ------------  ---------------      ----- ------------  ---------------
   123      8.353381   4 O  s               277      8.353381   8 O  s         
   157     -7.053810   5 H  s               311     -7.053810   9 H  s         
    16      5.781691   1 C  py              234     -5.781691   7 C  py        
    49     -4.707886   2 H  s               331     -4.707886  10 H  s         
   158      4.204509   5 H  s               312      4.204509   9 H  s         

 Vector   52  Occ=0.000000D+00  E= 2.465882D-01  Symmetry=bu
              MO Center=  7.6D-13, -9.5D-13, -9.6D-16, r^2= 1.4D+01
   Bfn.  Coefficient  Atom+Function         Bfn.  Coefficient  Atom+Function  
  ----- ------------  ---------------      ----- ------------  ---------------
   157      5.953474   5 H  s               311     -5.953474   9 H  s         
   158      5.450334   5 H  s               312     -5.450334   9 H  s         
    14     -5.128327   1 C  s               232      5.128327   7 C  s         
    10     -3.412191   1 C  s               228      3.412191   7 C  s         
   125      2.956448   4 O  py              279      2.956448   8 O  py        

 Vector   53  Occ=0.000000D+00  E= 2.510489D-01  Symmetry=ag
              MO Center= -3.8D-13, -3.3D-14,  3.0D-15, r^2= 1.1D+01
   Bfn.  Coefficient  Atom+Function         Bfn.  Coefficient  Atom+Function  
  ----- ------------  ---------------      ----- ------------  ---------------
    14      8.809906   1 C  s               232      8.809906   7 C  s         
   123     -4.240121   4 O  s               277     -4.240121   8 O  s         
    10      4.123696   1 C  s               228      4.123696   7 C  s         
    78     -3.809327   3 O  s               187     -3.809327   6 O  s         
   158     -2.900497   5 H  s               312     -2.900497   9 H  s         

 Vector   54  Occ=0.000000D+00  E= 2.567301D-01  Symmetry=ag
              MO Center=  6.8D-13, -9.0D-13,  2.2D-16, r^2= 1.5D+01
   Bfn.  Coefficient  Atom+Function         Bfn.  Coefficient  Atom+Function  
  ----- ------------  ---------------      ----- ------------  ---------------
    14      2.951473   1 C  s               232      2.951473   7 C  s         
   124      2.149839   4 O  px              278     -2.149839   8 O  px        
    78     -1.786964   3 O  s               187     -1.786964   6 O  s         
    15     -1.769261   1 C  px              233      1.769261   7 C  px        
   158     -1.672245   5 H  s               312     -1.672245   9 H  s         

 Vector   55  Occ=0.000000D+00  E= 2.659613D-01  Symmetry=bg
              MO Center=  1.2D-14, -3.4D-14, -7.5D-16, r^2= 1.3D+01
   Bfn.  Coefficient  Atom+Function         Bfn.  Coefficient  Atom+Function  
  ----- ------------  ---------------      ----- ------------  ---------------
    81      1.548410   3 O  pz              190     -1.548410   6 O  pz        
   126      1.384800   4 O  pz              280     -1.384800   8 O  pz        
    17     -1.342915   1 C  pz              235      1.342915   7 C  pz        
    34      0.484781   1 C  dyz             252      0.484781   7 C  dyz       
    13     -0.454625   1 C  pz              231      0.454625   7 C  pz        

 Vector   56  Occ=0.000000D+00  E= 2.877220D-01  Symmetry=au
              MO Center= -9.1D-15,  3.8D-14, -2.4D-15, r^2= 9.1D+00
   Bfn.  Coefficient  Atom+Function         Bfn.  Coefficient  Atom+Function  
  ----- ------------  ---------------      ----- ------------  ---------------
    34      1.209098   1 C  dyz             252     -1.209098   7 C  dyz       
    81      1.018978   3 O  pz              190      1.018978   6 O  pz        
    17     -0.843598   1 C  pz              235     -0.843598   7 C  pz        
   126      0.697032   4 O  pz              280      0.697032   8 O  pz        
    13     -0.469613   1 C  pz              231     -0.469613   7 C  pz        

 Vector   57  Occ=0.000000D+00  E= 2.922475D-01  Symmetry=bu
              MO Center= -1.0D-14,  8.0D-14, -3.9D-15, r^2= 1.4D+01
   Bfn.  Coefficient  Atom+Function         Bfn.  Coefficient  Atom+Function  
  ----- ------------  ---------------      ----- ------------  ---------------
    78      5.961879   3 O  s               187     -5.961879   6 O  s         
   123     -5.077568   4 O  s               277      5.077568   8 O  s         
   157      3.778894   5 H  s               311     -3.778894   9 H  s         
    14     -3.165058   1 C  s               232      3.165058   7 C  s         
    10     -3.015968   1 C  s               228      3.015968   7 C  s         

 Vector   58  Occ=0.000000D+00  E= 3.060870D-01  Symmetry=ag
              MO Center=  4.4D-13,  1.5D-12, -1.6D-16, r^2= 1.1D+01
   Bfn.  Coefficient  Atom+Function         Bfn.  Coefficient  Atom+Function  
  ----- ------------  ---------------      ----- ------------  ---------------
   123     12.741337   4 O  s               277     12.741337   8 O  s         
   157     -6.877260   5 H  s               311     -6.877260   9 H  s         
    78     -3.488771   3 O  s               187     -3.488771   6 O  s         
   125     -2.965057   4 O  py              279      2.965057   8 O  py        
   124     -2.713577   4 O  px              278      2.713577   8 O  px        

 Vector   59  Occ=0.000000D+00  E= 3.061993D-01  Symmetry=bu
              MO Center= -1.7D-12, -2.2D-12,  7.3D-15, r^2= 1.3D+01
   Bfn.  Coefficient  Atom+Function         Bfn.  Coefficient  Atom+Function  
  ----- ------------  ---------------      ----- ------------  ---------------
    14      6.909655   1 C  s               232     -6.909655   7 C  s         
   123     -6.495024   4 O  s               277      6.495024   8 O  s         
    10      5.038797   1 C  s               228     -5.038797   7 C  s         
    49     -3.268462   2 H  s               331      3.268462  10 H  s         
    78     -2.224942   3 O  s               187      2.224942   6 O  s         

 Vector   60  Occ=0.000000D+00  E= 3.428994D-01  Symmetry=bg
              MO Center=  1.5D-15, -1.9D-14,  2.9D-16, r^2= 9.3D+00
   Bfn.  Coefficient  Atom+Function         Bfn.  Coefficient  Atom+Function  
  ----- ------------  ---------------      ----- ------------  ---------------
    34      0.682468   1 C  dyz             252      0.682468   7 C  dyz       
    58      0.560340   2 H  pz              340     -0.560340  10 H  pz        
    17     -0.508368   1 C  pz              235      0.508368   7 C  pz        
    13     -0.387282   1 C  pz              231      0.387282   7 C  pz        
   126      0.253174   4 O  pz              280     -0.253174   8 O  pz        

 Vector   61  Occ=0.000000D+00  E= 3.461553D-01  Symmetry=ag
              MO Center=  1.1D-12,  2.0D-12,  4.6D-16, r^2= 7.4D+00
   Bfn.  Coefficient  Atom+Function         Bfn.  Coefficient  Atom+Function  
  ----- ------------  ---------------      ----- ------------  ---------------
    78      5.228056   3 O  s               187      5.228056   6 O  s         
    10     -4.177580   1 C  s               228     -4.177580   7 C  s         
   123      3.696261   4 O  s               277      3.696261   8 O  s         
    14     -3.400649   1 C  s               232     -3.400649   7 C  s         
   157     -3.142438   5 H  s               311     -3.142438   9 H  s         

 Vector   62  Occ=0.000000D+00  E= 3.730811D-01  Symmetry=ag
              MO Center= -5.8D-13, -2.3D-13, -6.3D-16, r^2= 1.2D+01
   Bfn.  Coefficient  Atom+Function         Bfn.  Coefficient  Atom+Function  
  ----- ------------  ---------------      ----- ------------  ---------------
    48      6.678480   2 H  s               330      6.678480  10 H  s         
   157      5.820432   5 H  s               311      5.820432   9 H  s         
    14     -5.573497   1 C  s               232     -5.573497   7 C  s         
    10     -4.231079   1 C  s               228     -4.231079   7 C  s         
    16     -3.802737   1 C  py              234      3.802737   7 C  py        

 Vector   63  Occ=0.000000D+00  E= 3.774901D-01  Symmetry=bu
              MO Center=  3.5D-13,  4.4D-13,  1.4D-15, r^2= 9.9D+00
   Bfn.  Coefficient  Atom+Function         Bfn.  Coefficient  Atom+Function  
  ----- ------------  ---------------      ----- ------------  ---------------
    80      3.202985   3 O  py              189      3.202985   6 O  py        
    16     -2.446173   1 C  py               49      2.451964   2 H  s         
   234     -2.446173   7 C  py              331     -2.451964  10 H  s         
   166      1.980289   5 H  py              320      1.980289   9 H  py        
   125      1.955373   4 O  py              279      1.955373   8 O  py        

 Vector   64  Occ=0.000000D+00  E= 3.923151D-01  Symmetry=bg
              MO Center= -6.2D-14, -6.1D-14,  1.6D-15, r^2= 6.6D+00
   Bfn.  Coefficient  Atom+Function         Bfn.  Coefficient  Atom+Function  
  ----- ------------  ---------------      ----- ------------  ---------------
    32      1.363579   1 C  dxz             250      1.363579   7 C  dxz       
   167     -0.763267   5 H  pz              321      0.763267   9 H  pz        
    77      0.292353   3 O  pz              186     -0.292353   6 O  pz        
    17      0.153903   1 C  pz              235     -0.153903   7 C  pz        

 Vector   65  Occ=0.000000D+00  E= 3.975272D-01  Symmetry=au
              MO Center=  5.7D-14,  1.1D-13, -3.5D-15, r^2= 9.4D+00
   Bfn.  Coefficient  Atom+Function         Bfn.  Coefficient  Atom+Function  
  ----- ------------  ---------------      ----- ------------  ---------------
    58      1.044757   2 H  pz              340      1.044757  10 H  pz        
    34     -0.795880   1 C  dyz             252      0.795880   7 C  dyz       
   167      0.632394   5 H  pz              321      0.632394   9 H  pz        
    81     -0.457750   3 O  pz              190     -0.457750   6 O  pz        
   126     -0.430571   4 O  pz              280     -0.430571   8 O  pz        

 Vector   66  Occ=0.000000D+00  E= 4.016283D-01  Symmetry=ag
              MO Center= -7.5D-14, -1.7D-13,  6.5D-15, r^2= 8.5D+00
   Bfn.  Coefficient  Atom+Function         Bfn.  Coefficient  Atom+Function  
  ----- ------------  ---------------      ----- ------------  ---------------
    78      6.598792   3 O  s               187      6.598792   6 O  s         
   157     -4.069857   5 H  s               311     -4.069857   9 H  s         
   123      3.142022   4 O  s               277      3.142022   8 O  s         
    10     -2.888397   1 C  s               228     -2.888397   7 C  s         
   125     -2.526204   4 O  py              279      2.526204   8 O  py        

 Vector   67  Occ=0.000000D+00  E= 4.032271D-01  Symmetry=bu
              MO Center=  8.8D-14,  2.9D-13, -1.0D-15, r^2= 7.8D+00
   Bfn.  Coefficient  Atom+Function         Bfn.  Coefficient  Atom+Function  
  ----- ------------  ---------------      ----- ------------  ---------------
   123      4.974460   4 O  s               277     -4.974460   8 O  s         
   157     -4.783557   5 H  s               311      4.783557   9 H  s         
    78      3.222544   3 O  s               187     -3.222544   6 O  s         
    10     -3.110049   1 C  s               228      3.110049   7 C  s         
   125     -2.510058   4 O  py              279     -2.510058   8 O  py        

 Vector   68  Occ=0.000000D+00  E= 4.537572D-01  Symmetry=ag
              MO Center=  2.0D-13, -3.3D-13, -3.1D-15, r^2= 1.4D+01
   Bfn.  Coefficient  Atom+Function         Bfn.  Coefficient  Atom+Function  
  ----- ------------  ---------------      ----- ------------  ---------------
    48      3.300085   2 H  s               330      3.300085  10 H  s         
   123      2.948729   4 O  s               277      2.948729   8 O  s         
    49     -2.632915   2 H  s               331     -2.632915  10 H  s         
   157     -2.611681   5 H  s               311     -2.611681   9 H  s         
    14      2.349741   1 C  s               232      2.349741   7 C  s         

 Vector   69  Occ=0.000000D+00  E= 4.572233D-01  Symmetry=bu
              MO Center=  6.9D-14, -3.1D-13, -6.0D-16, r^2= 1.5D+01
   Bfn.  Coefficient  Atom+Function         Bfn.  Coefficient  Atom+Function  
  ----- ------------  ---------------      ----- ------------  ---------------
    48     10.670268   2 H  s               330    -10.670268  10 H  s         
    16     -9.092669   1 C  py              234     -9.092669   7 C  py        
   123     -7.237417   4 O  s               277      7.237417   8 O  s         
    78     -6.159755   3 O  s               187      6.159755   6 O  s         
    49      5.821652   2 H  s               331     -5.821652  10 H  s         

 Vector   70  Occ=0.000000D+00  E= 4.745102D-01  Symmetry=ag
              MO Center=  6.8D-13,  1.6D-12, -3.1D-15, r^2= 1.0D+01
   Bfn.  Coefficient  Atom+Function         Bfn.  Coefficient  Atom+Function  
  ----- ------------  ---------------      ----- ------------  ---------------
    48      5.439944   2 H  s               330      5.439944  10 H  s         
    78     -5.397549   3 O  s               187     -5.397549   6 O  s         
   157     -5.260557   5 H  s               311     -5.260557   9 H  s         
    16     -4.091295   1 C  py              234      4.091295   7 C  py        
   158     -3.960742   5 H  s               312     -3.960742   9 H  s         

 Vector   71  Occ=0.000000D+00  E= 5.055074D-01  Symmetry=bu
              MO Center= -1.8D-13, -7.0D-13,  2.0D-16, r^2= 1.2D+01
   Bfn.  Coefficient  Atom+Function         Bfn.  Coefficient  Atom+Function  
  ----- ------------  ---------------      ----- ------------  ---------------
    48      3.577907   2 H  s               330     -3.577907  10 H  s         
    35     -3.251342   1 C  dzz             253      3.251342   7 C  dzz       
    33     -3.068042   1 C  dyy             251      3.068042   7 C  dyy       
    78      2.515975   3 O  s               187     -2.515975   6 O  s         
   123      2.432703   4 O  s               277     -2.432703   8 O  s         


 center of mass
 --------------
 x =   0.00000000 y =  -0.00000000 z =   0.00000000

 moments of inertia (a.u.)
 ------------------
         801.882617372477          -0.000000000000           0.000000000000
          -0.000000000000         297.761792013422           0.000000000000
           0.000000000000           0.000000000000        1099.644409385899

     Multipole analysis of the density
     ---------------------------------

     L   x y z        total         alpha         beta         nuclear
     -   - - -        -----         -----         ----         -------
     0   0 0 0     -0.000000    -24.000000    -24.000000     48.000000

     1   1 0 0      0.000000      0.000000      0.000000      0.000000
     1   0 1 0     -0.000000     -0.000000     -0.000000      0.000000
     1   0 0 1      0.000000      0.000000      0.000000      0.000000

     2   2 0 0    -30.898400    -92.220406    -92.220406    153.542412
     2   1 1 0     -0.658441     -0.027701     -0.027701     -0.603040
     2   1 0 1      0.000000      0.000000      0.000000      0.000000
     2   0 2 0    -20.177534   -227.029416   -227.029416    433.881297
     2   0 1 1      0.000000      0.000000      0.000000      0.000000
     2   0 0 2    -25.377388    -12.688694    -12.688694      0.000000


------------------------------------------------------------
EAF file 0: "./HCOOH-HCOOH.aoints.0" size=3945267200 bytes
------------------------------------------------------------
               write      read    awrite     aread      wait
               -----      ----    ------     -----      ----
     calls:     7525         9         0     67716     67716
   data(b): 3.95e+09  4.72e+06  0.00e+00  3.55e+10
   time(s): 0.00e+00  0.00e+00  0.00e+00  0.00e+00  0.00e+00
rate(mb/s): 0.00e+00  0.00e+00
------------------------------------------------------------


 Parallel integral file used    7525 records with       0 large values


 Task  times  cpu:      225.9s     wall:      255.3s


                                NWChem Input Module
                                -------------------


 Summary of allocated global arrays
-----------------------------------
  No active global arrays



                         GA Statistics for process    0
                         ------------------------------

       create   destroy   get      put      acc     scatter   gather  read&inc
calls:  284      284     1.33e+05 3.57e+04 5.45e+04    0        0     3956     
number of processes/call 1.00e+00 1.00e+00 1.00e+00 0.00e+00 0.00e+00
bytes total:             1.29e+09 2.78e+08 7.84e+08 0.00e+00 0.00e+00 3.16e+04
bytes remote:            0.00e+00 0.00e+00 0.00e+00 0.00e+00 0.00e+00 0.00e+00
Max memory consumed for GA by this process: 37351392 bytes

MA_summarize_allocated_blocks: starting scan ...
MA_summarize_allocated_blocks: scan completed: 0 heap blocks, 0 stack blocks
MA usage statistics:

	allocation statistics:
					      heap	     stack
					      ----	     -----
	current number of blocks	         0	         0
	maximum number of blocks	        23	        55
	current total bytes		         0	         0
	maximum total bytes		   3798568	  35071208
	maximum total K-bytes		      3799	     35072
	maximum total M-bytes		         4	        36


                                     CITATION
                                     --------
                Please cite the following reference when publishing
                           results obtained with NWChem:

                 M. Valiev, E.J. Bylaska, N. Govind, K. Kowalski,
              T.P. Straatsma, H.J.J. van Dam, D. Wang, J. Nieplocha,
                        E. Apra, T.L. Windus, W.A. de Jong
                 "NWChem: a comprehensive and scalable open-source
                  solution for large scale molecular simulations"
                      Comput. Phys. Commun. 181, 1477 (2010)
                           doi:10.1016/j.cpc.2010.04.018

                                      AUTHORS
                                      -------
          E. Apra, E. J. Bylaska, W. A. de Jong, N. Govind, K. Kowalski,
       T. P. Straatsma, M. Valiev, H. J. J. van Dam, D. Wang, T. L. Windus,
        J. Hammond, J. Autschbach, K. Bhaskaran-Nair, J. Brabec, K. Lopata,
       S. A. Fischer, S. Krishnamoorthy, W. Ma, M. Klemm, O. Villa, Y. Chen,
    V. Anisimov, F. Aquino, S. Hirata, M. T. Hackler, T. Risthaus, M. Malagoli,
       A. Marenich, A. Otero-de-la-Roza, J. Mullin, P. Nichols, R. Peverati,
     J. Pittner, Y. Zhao, P.-D. Fan, A. Fonari, M. Williamson, R. J. Harrison,
       J. R. Rehr, M. Dupuis, D. Silverstein, D. M. A. Smith, J. Nieplocha,
        V. Tipparaju, M. Krishnan, B. E. Van Kuiken, A. Vazquez-Mayagoitia,
        L. Jensen, M. Swart, Q. Wu, T. Van Voorhis, A. A. Auer, M. Nooijen,
      L. D. Crosby, E. Brown, G. Cisneros, G. I. Fann, H. Fruchtl, J. Garza,
        K. Hirao, R. A. Kendall, J. A. Nichols, K. Tsemekhman, K. Wolinski,
     J. Anchell, D. E. Bernholdt, P. Borowski, T. Clark, D. Clerc, H. Dachsel,
   M. J. O. Deegan, K. Dyall, D. Elwood, E. Glendening, M. Gutowski, A. C. Hess,
         J. Jaffe, B. G. Johnson, J. Ju, R. Kobayashi, R. Kutteh, Z. Lin,
   R. Littlefield, X. Long, B. Meng, T. Nakajima, S. Niu, L. Pollack, M. Rosing,
   K. Glaesemann, G. Sandrone, M. Stave, H. Taylor, G. Thomas, J. H. van Lenthe,
                               A. T. Wong, Z. Zhang.

 Total times  cpu:      226.0s     wall:      255.5s
