[1537887259.575869] [r8n3:31746:0]         sys.c:744  MXM  WARN  Conflicting CPU frequencies detected, using: 2499.99
[1537887259.582511] [r8n3:31746:0]         mxm.c:196  MXM  WARN  The 'ulimit -s' on the system is set to 'unlimited'. This may have negative performance implications. Please set the stack size to the default value (10240) 
[1537887259.584962] [r8n3:31746:0]         mxm.c:196  MXM  WARN  The 'ulimit -s' on the system is set to 'unlimited'. This may have negative performance implications. Please set the stack size to the default value (10240) 
 argument  1 = /storage/home/bikashp/nwchem_run/rabeet/hb6/nwrevtpss/HCOOH.nw
                                         
                                         


              Northwest Computational Chemistry Package (NWChem) 6.6
              ------------------------------------------------------


                    Environmental Molecular Sciences Laboratory
                       Pacific Northwest National Laboratory
                                Richland, WA 99352

                              Copyright (c) 1994-2015
                       Pacific Northwest National Laboratory
                            Battelle Memorial Institute

             NWChem is an open-source computational chemistry package
                        distributed under the terms of the
                      Educational Community License (ECL) 2.0
             A copy of the license is included with this distribution
                              in the LICENSE.TXT file

                                  ACKNOWLEDGMENT
                                  --------------

            This software and its documentation were developed at the
            EMSL at Pacific Northwest National Laboratory, a multiprogram
            national laboratory, operated for the U.S. Department of Energy
            by Battelle under Contract Number DE-AC05-76RL01830. Support
            for this work was provided by the Department of Energy Office
            of Biological and Environmental Research, Office of Basic
            Energy Sciences, and the Office of Advanced Scientific Computing.


           Job information
           ---------------

    hostname        = r8n3.niserhpc.org
    program         = /home/bikashp/Code/nwchem-6.6_revtpss/bin/LINUX64/nwchem
    date            = Tue Sep 25 20:24:19 2018

    compiled        = Tue_Sep_25_17:05:19_2018
    source          = /home/bikashp/Code/nwchem-6.6_revtpss
    nwchem branch   = 6.6
    nwchem revision = 27746
    ga revision     = 10594
    input           = /storage/home/bikashp/nwchem_run/rabeet/hb6/nwrevtpss/HCOOH.nw
    prefix          = HCOOH.
    data base       = ./HCOOH.db
    status          = startup
    nproc           =        1
    time left       =     -1s



           Memory information
           ------------------

    heap     =   13107196 doubles =    100.0 Mbytes
    stack    =   13107201 doubles =    100.0 Mbytes
    global   =   26214400 doubles =    200.0 Mbytes (distinct from heap & stack)
    total    =   52428797 doubles =    400.0 Mbytes
    verify   = yes
    hardfail = no 


           Directory information
           ---------------------

  0 permanent = .
  0 scratch   = .




                                NWChem Input Module
                                -------------------



 Scaling coordinates for geometry "geometry" by  1.889725989
 (inverse scale =  0.529177249)

 CS  symmetry detected

          ------
          auto-z
          ------


                             Geometry "geometry" -> ""
                             -------------------------

 Output coordinates in angstroms (scale by  1.889725989 to convert to a.u.)

  No.       Tag          Charge          X              Y              Z
 ---- ---------------- ---------- -------------- -------------- --------------
    1 C                    6.0000     0.40572897     0.12054281     0.00000000
    2 O                    8.0000    -0.22462860     1.14284372     0.00000000
    3 O                    8.0000    -0.13026429    -1.11479582     0.00000000
    4 H                    1.0000     1.49832554     0.05509628     0.00000000
    5 H                    1.0000    -1.09355627    -1.00273637     0.00000000

      Atomic Mass 
      ----------- 

      C                 12.000000
      O                 15.994910
      H                  1.007825


 Effective nuclear repulsion energy (a.u.)      70.1674223329

            Nuclear Dipole moment (a.u.) 
            ----------------------------
        X                 Y               Z
 ---------------- ---------------- ----------------
     0.0000000000     0.0000000000     0.0000000000

      Symmetry information
      --------------------

 Group name             Cs        
 Group number              2
 Group order               2
 No. of unique centers     5

      Symmetry unique atoms

     1    2    3    4    5



                                Z-matrix (autoz)
                                -------- 

 Units are Angstrom for bonds and degrees for angles

      Type          Name      I     J     K     L     M      Value
      ----------- --------  ----- ----- ----- ----- ----- ----------
    1 Stretch                  1     2                       1.20102
    2 Stretch                  1     3                       1.34661
    3 Stretch                  1     4                       1.09455
    4 Stretch                  3     5                       0.96979
    5 Bend                     1     3     5               106.81986
    6 Bend                     2     1     3               124.88650
    7 Bend                     2     1     4               125.08618
    8 Bend                     3     1     4               110.02731
    9 Torsion                  2     1     3     5           0.00000
   10 Torsion                  4     1     3     5         180.00000


            XYZ format geometry
            -------------------
     5
 geometry
 C                     0.40572897     0.12054281     0.00000000
 O                    -0.22462860     1.14284372     0.00000000
 O                    -0.13026429    -1.11479582     0.00000000
 H                     1.49832554     0.05509628     0.00000000
 H                    -1.09355627    -1.00273637     0.00000000

 ==============================================================================
                                internuclear distances
 ------------------------------------------------------------------------------
       center one      |      center two      | atomic units |  angstroms
 ------------------------------------------------------------------------------
    2 O                |   1 C                |     2.26960  |     1.20102
    3 O                |   1 C                |     2.54472  |     1.34661
    4 H                |   1 C                |     2.06841  |     1.09455
    5 H                |   3 O                |     1.83263  |     0.96979
 ------------------------------------------------------------------------------
                         number of included internuclear distances:          4
 ==============================================================================



 ==============================================================================
                                 internuclear angles
 ------------------------------------------------------------------------------
        center 1       |       center 2       |       center 3       |  degrees
 ------------------------------------------------------------------------------
    2 O                |   1 C                |   3 O                |   124.89
    2 O                |   1 C                |   4 H                |   125.09
    3 O                |   1 C                |   4 H                |   110.03
    1 C                |   3 O                |   5 H                |   106.82
 ------------------------------------------------------------------------------
                            number of included internuclear angles:          4
 ==============================================================================





 Summary of "ao basis" -> "" (cartesian)
 ------------------------------------------------------------------------------
       Tag                 Description            Shells   Functions and Types
 ---------------- ------------------------------  ------  ---------------------
 *                     6-311++G(3df,3pd)              on all atoms 



                                 NWChem DFT Module
                                 -----------------


                      Basis "ao basis" -> "ao basis" (cartesian)
                      -----
  C (Carbon)
  ----------
            Exponent  Coefficients 
       -------------- ---------------------------------------------------------
  1 S  4.56324000E+03  0.001967
  1 S  6.82024000E+02  0.015231
  1 S  1.54973000E+02  0.076127
  1 S  4.44553000E+01  0.260801
  1 S  1.30290000E+01  0.616462
  1 S  1.82773000E+00  0.221006

  2 S  2.09642000E+01  0.114660
  2 S  4.80331000E+00  0.919999
  2 S  1.45933000E+00 -0.003031

  3 P  2.09642000E+01  0.040249
  3 P  4.80331000E+00  0.237594
  3 P  1.45933000E+00  0.815854

  4 S  4.83456000E-01  1.000000

  5 P  4.83456000E-01  1.000000

  6 S  1.45585000E-01  1.000000

  7 P  1.45585000E-01  1.000000

  8 S  4.38000000E-02  1.000000

  9 P  4.38000000E-02  1.000000

 10 D  2.50400000E+00  1.000000

 11 D  6.26000000E-01  1.000000

 12 D  1.56500000E-01  1.000000

 13 F  8.00000000E-01  1.000000

  O (Oxygen)
  ----------
            Exponent  Coefficients 
       -------------- ---------------------------------------------------------
  1 S  8.58850000E+03  0.001895
  1 S  1.29723000E+03  0.014386
  1 S  2.99296000E+02  0.070732
  1 S  8.73771000E+01  0.240001
  1 S  2.56789000E+01  0.594797
  1 S  3.74004000E+00  0.280802

  2 S  4.21175000E+01  0.113889
  2 S  9.62837000E+00  0.920811
  2 S  2.85332000E+00 -0.003274

  3 P  4.21175000E+01  0.036511
  3 P  9.62837000E+00  0.237153
  3 P  2.85332000E+00  0.819702

  4 S  9.05661000E-01  1.000000

  5 P  9.05661000E-01  1.000000

  6 S  2.55611000E-01  1.000000

  7 P  2.55611000E-01  1.000000

  8 S  8.45000000E-02  1.000000

  9 P  8.45000000E-02  1.000000

 10 D  5.16000000E+00  1.000000

 11 D  1.29200000E+00  1.000000

 12 D  3.22500000E-01  1.000000

 13 F  1.40000000E+00  1.000000

  H (Hydrogen)
  ------------
            Exponent  Coefficients 
       -------------- ---------------------------------------------------------
  1 S  3.38650000E+01  0.025494
  1 S  5.09479000E+00  0.190373
  1 S  1.15879000E+00  0.852161

  2 S  3.25840000E-01  1.000000

  3 S  1.02741000E-01  1.000000

  4 S  3.60000000E-02  1.000000

  5 P  3.00000000E+00  1.000000

  6 P  7.50000000E-01  1.000000

  7 P  1.87500000E-01  1.000000

  8 D  1.00000000E+00  1.000000



 Summary of "ao basis" -> "ao basis" (cartesian)
 ------------------------------------------------------------------------------
       Tag                 Description            Shells   Functions and Types
 ---------------- ------------------------------  ------  ---------------------
 C                     6-311++G(3df,3pd)            13       45   5s4p3d1f
 O                     6-311++G(3df,3pd)            13       45   5s4p3d1f
 H                     6-311++G(3df,3pd)             8       19   4s3p1d




 Summary of "ao basis" -> "ao basis" (cartesian)
 ------------------------------------------------------------------------------
       Tag                 Description            Shells   Functions and Types
 ---------------- ------------------------------  ------  ---------------------
 C                     6-311++G(3df,3pd)            13       45   5s4p3d1f
 O                     6-311++G(3df,3pd)            13       45   5s4p3d1f
 H                     6-311++G(3df,3pd)             8       19   4s3p1d


      Symmetry analysis of basis
      --------------------------

        a'        121
        a"         52

  Caching 1-el integrals 

            General Information
            -------------------
          SCF calculation type: DFT
          Wavefunction type:  closed shell.
          No. of atoms     :     5
          No. of electrons :    24
           Alpha electrons :    12
            Beta electrons :    12
          Charge           :     0
          Spin multiplicity:     1
          Use of symmetry is: on ; symmetry adaption is: on 
          Maximum number of iterations: ***
          AO basis - number of functions:   173
                     number of shells:    55
          Convergence on energy requested: 1.00D-06
          Convergence on density requested: 1.00D-05
          Convergence on gradient requested: 5.00D-04

              XC Information
              --------------
                  TPSS metaGGA Exchange Functional  1.000          
             TPSS03 metaGGA Correlation Functional  1.000          

             Grid Information
             ----------------
          Grid used for XC integration:  medium    
          Radial quadrature: Mura-Knowles        
          Angular quadrature: Lebedev. 
          Tag              B.-S. Rad. Rad. Pts. Rad. Cut. Ang. Pts.
          ---              ---------- --------- --------- ---------
          C                   0.70       49          11.0       434
          O                   0.60       49          11.0       434
          H                   0.35       45          12.0       434
          Grid pruning is: on 
          Number of quadrature shells:   237
          Spatial weights used:  Erf1

          Convergence Information
          -----------------------
          Convergence aids based upon iterative change in 
          total energy or number of iterations. 
          Levelshifting, if invoked, occurs when the 
          HOMO/LUMO gap drops below (HL_TOL): 1.00D-02
          DIIS, if invoked, will attempt to extrapolate 
          using up to (NFOCK): 10 stored Fock matrices.

                    Damping( 0%)  Levelshifting(0.5)       DIIS
                  --------------- ------------------- ---------------
          dE  on:    start            ASAP                start   
          dE off:    2 iters        *** iters           *** iters 


      Screening Tolerance Information
      -------------------------------
          Density screening/tol_rho: 1.00D-10
          AO Gaussian exp screening on grid/accAOfunc:  14
          CD Gaussian exp screening on grid/accCDfunc:  20
          XC Gaussian exp screening on grid/accXCfunc:  20
          Schwarz screening/accCoul: 1.00D-08


      Superposition of Atomic Density Guess
      -------------------------------------

 Sum of atomic energies:        -188.22432563

      Non-variational initial energy
      ------------------------------

 Total energy =    -189.366358
 1-e energy   =    -396.306915
 2-e energy   =     136.773135
 HOMO         =      -0.407614
 LUMO         =       0.015208


      Symmetry analysis of molecular orbitals - initial
      -------------------------------------------------

  Numbering of irreducible representations: 

     1 a'          2 a"      

  Orbital symmetries:

     1 a'          2 a'          3 a'          4 a'          5 a'      
     6 a'          7 a'          8 a'          9 a"         10 a'      
    11 a"         12 a'         13 a"         14 a'         15 a'      
    16 a'         17 a"         18 a'         19 a'         20 a'      
    21 a'         22 a'      

   Time after variat. SCF:      1.8
   Time prior to 1st pass:      1.8

 Integral file          = ./HCOOH.aoints.0
 Record size in doubles =    65536    No. of integs per rec  =    43688
 Max. records in memory =        0    Max. records in file   = ********
 No. of bits per label  =        8    No. of bits per value  =       64


 #quartets = 1.126D+06 #integrals = 5.146D+07 #direct =  0.0% #cached =100.0%


 Grid_pts file          = ./HCOOH.gridpts.0
 Record size in doubles =  12289        No. of grid_pts per rec  =   3070
 Max. records in memory =     38        Max. recs in file   = 995200335


           Memory utilization after 1st SCF pass: 
           Heap Space remaining (MW):       12.64            12635652
          Stack Space remaining (MW):       13.11            13106172

   convergence    iter        energy       DeltaE   RMS-Dens  Diis-err    time
 ---------------- ----- ----------------- --------- --------- ---------  ------
 d= 0,ls=0.0,diis     1   -189.6705024110 -2.60D+02  8.25D-03  1.26D+00    18.4
 d= 0,ls=0.0,diis     2   -189.1202480523  5.50D-01  6.65D-03  6.88D+00    22.2
 d= 0,ls=0.0,diis     3   -189.7632820772 -6.43D-01  1.94D-03  3.51D-01    26.1
 d= 0,ls=0.0,diis     4   -189.7825558571 -1.93D-02  7.64D-04  1.52D-01    29.9
 d= 0,ls=0.0,diis     5   -189.7956890737 -1.31D-02  1.41D-04  1.73D-03    33.9
  Resetting Diis
 d= 0,ls=0.0,diis     6   -189.7958907329 -2.02D-04  4.72D-05  1.69D-04    38.1
 d= 0,ls=0.0,diis     7   -189.7958871353  3.60D-06  1.53D-05  6.08D-06    42.2
 d= 0,ls=0.0,diis     8   -189.7958908757 -3.74D-06  8.42D-06  5.63D-06    46.2
 d= 0,ls=0.0,diis     9   -189.7958889779  1.90D-06  1.98D-06  5.91D-07    50.3
 d= 0,ls=0.0,diis    10   -189.7958891873 -2.09D-07  6.16D-07  7.17D-08    54.4


         Total DFT energy =     -189.795889187309
      One electron energy =     -398.148758577641
           Coulomb energy =      161.467834925378
          Exchange energy =      -22.448494381900
       Correlation energy =       -0.833893486082
 Nuclear repulsion energy =       70.167422332936

 Numeric. integr. density =       24.000003136304

     Total iterative time =     52.6s



                  Occupations of the irreducible representations
                  ----------------------------------------------

                     irrep           alpha         beta
                     --------     --------     --------
                     a'               10.0         10.0
                     a"                2.0          2.0


                       DFT Final Molecular Orbital Analysis
                       ------------------------------------

 Vector    2  Occ=2.000000D+00  E=-1.892530D+01  Symmetry=a'
              MO Center= -2.2D-01,  1.1D+00,  9.0D-18, r^2= 1.5D-02
   Bfn.  Coefficient  Atom+Function         Bfn.  Coefficient  Atom+Function  
  ----- ------------  ---------------      ----- ------------  ---------------
    46      0.552069  2 O  s                 47      0.470236  2 O  s          

 Vector    3  Occ=2.000000D+00  E=-1.014811D+01  Symmetry=a'
              MO Center=  4.1D-01,  1.2D-01,  1.4D-17, r^2= 2.8D-02
   Bfn.  Coefficient  Atom+Function         Bfn.  Coefficient  Atom+Function  
  ----- ------------  ---------------      ----- ------------  ---------------
     1      0.563954  1 C  s                  2      0.465030  1 C  s          

 Vector    4  Occ=2.000000D+00  E=-1.059263D+00  Symmetry=a'
              MO Center= -1.3D-01, -3.8D-01, -5.0D-15, r^2= 1.1D+00
   Bfn.  Coefficient  Atom+Function         Bfn.  Coefficient  Atom+Function  
  ----- ------------  ---------------      ----- ------------  ---------------
    96      0.444119  3 O  s                100      0.408460  3 O  s          
     6      0.258731  1 C  s                 51      0.253309  2 O  s          
    55      0.220785  2 O  s                 92     -0.161051  3 O  s          

 Vector    5  Occ=2.000000D+00  E=-9.748015D-01  Symmetry=a'
              MO Center= -9.5D-02,  3.2D-01,  1.5D-15, r^2= 1.3D+00
   Bfn.  Coefficient  Atom+Function         Bfn.  Coefficient  Atom+Function  
  ----- ------------  ---------------      ----- ------------  ---------------
    51      0.452338  2 O  s                 55      0.412429  2 O  s          
    96     -0.328789  3 O  s                100     -0.312772  3 O  s          
    47     -0.165383  2 O  s          

 Vector    6  Occ=2.000000D+00  E=-6.275812D-01  Symmetry=a'
              MO Center=  1.9D-01, -5.1D-01,  1.3D-16, r^2= 1.4D+00
   Bfn.  Coefficient  Atom+Function         Bfn.  Coefficient  Atom+Function  
  ----- ------------  ---------------      ----- ------------  ---------------
     6      0.329295  1 C  s                 97      0.217621  3 O  px         
   101      0.177667  3 O  px                93      0.156529  3 O  px         
    55     -0.155080  2 O  s          

 Vector    7  Occ=2.000000D+00  E=-4.852943D-01  Symmetry=a'
              MO Center=  3.6D-01, -1.2D-01,  2.5D-16, r^2= 1.6D+00
   Bfn.  Coefficient  Atom+Function         Bfn.  Coefficient  Atom+Function  
  ----- ------------  ---------------      ----- ------------  ---------------
     7      0.208103  1 C  px                98     -0.182911  3 O  py         
   137      0.180066  4 H  s                  3      0.161107  1 C  px         

 Vector    8  Occ=2.000000D+00  E=-4.532105D-01  Symmetry=a'
              MO Center= -1.7D-01,  2.1D-01,  3.1D-15, r^2= 2.0D+00
   Bfn.  Coefficient  Atom+Function         Bfn.  Coefficient  Atom+Function  
  ----- ------------  ---------------      ----- ------------  ---------------
    55      0.374571  2 O  s                 51      0.257601  2 O  s          
   100      0.243700  3 O  s                 53      0.221229  2 O  py         
     6     -0.208551  1 C  s                 57      0.182522  2 O  py         
    96      0.170311  3 O  s                 97      0.168635  3 O  px         
    49      0.162002  2 O  py               101      0.154303  3 O  px         

 Vector    9  Occ=2.000000D+00  E=-4.171191D-01  Symmetry=a"
              MO Center=  2.0D-02, -8.5D-02, -1.9D-16, r^2= 1.5D+00
   Bfn.  Coefficient  Atom+Function         Bfn.  Coefficient  Atom+Function  
  ----- ------------  ---------------      ----- ------------  ---------------
    99      0.253334  3 O  pz                 9      0.234958  1 C  pz         
   103      0.226362  3 O  pz                54      0.205581  2 O  pz         
    95      0.177906  3 O  pz                58      0.175435  2 O  pz         
     5      0.168721  1 C  pz         

 Vector   10  Occ=2.000000D+00  E=-3.742464D-01  Symmetry=a'
              MO Center= -3.3D-02, -1.3D-01,  2.1D-15, r^2= 2.2D+00
   Bfn.  Coefficient  Atom+Function         Bfn.  Coefficient  Atom+Function  
  ----- ------------  ---------------      ----- ------------  ---------------
   100      0.251822  3 O  s                 98     -0.201530  3 O  py         
    53     -0.197814  2 O  py               102     -0.190512  3 O  py         
    97      0.170041  3 O  px                57     -0.168855  2 O  py         
   101      0.163094  3 O  px                96      0.160793  3 O  s          
    55     -0.151612  2 O  s          

 Vector   11  Occ=2.000000D+00  E=-3.048166D-01  Symmetry=a"
              MO Center= -1.5D-01, -4.2D-02, -1.4D-15, r^2= 1.8D+00
   Bfn.  Coefficient  Atom+Function         Bfn.  Coefficient  Atom+Function  
  ----- ------------  ---------------      ----- ------------  ---------------
    99      0.321319  3 O  pz               103      0.307755  3 O  pz         
    54     -0.292047  2 O  pz                58     -0.269364  2 O  pz         
    95      0.223669  3 O  pz                50     -0.205229  2 O  pz         

 Vector   12  Occ=2.000000D+00  E=-2.603682D-01  Symmetry=a'
              MO Center= -6.0D-02,  7.3D-01, -8.2D-16, r^2= 1.5D+00
   Bfn.  Coefficient  Atom+Function         Bfn.  Coefficient  Atom+Function  
  ----- ------------  ---------------      ----- ------------  ---------------
    52      0.332635  2 O  px                56      0.331931  2 O  px         
    48      0.233932  2 O  px                57      0.215089  2 O  py         
    53      0.202890  2 O  py                98      0.166048  3 O  py         
   102      0.166426  3 O  py               137     -0.156457  4 H  s          
   138     -0.150053  4 H  s          

 Vector   13  Occ=0.000000D+00  E=-4.863292D-02  Symmetry=a"
              MO Center=  3.0D-01,  2.4D-01,  4.0D-16, r^2= 1.9D+00
   Bfn.  Coefficient  Atom+Function         Bfn.  Coefficient  Atom+Function  
  ----- ------------  ---------------      ----- ------------  ---------------
    13      0.524867  1 C  pz                 9      0.354365  1 C  pz         
    58     -0.301350  2 O  pz                17      0.272904  1 C  pz         
    54     -0.267265  2 O  pz                62     -0.248500  2 O  pz         
     5      0.246550  1 C  pz               103     -0.194686  3 O  pz         
    50     -0.182529  2 O  pz                99     -0.177501  3 O  pz         

 Vector   14  Occ=0.000000D+00  E=-2.426583D-02  Symmetry=a'
              MO Center= -1.6D+00, -1.2D+00,  3.5D-14, r^2= 6.6D+00
   Bfn.  Coefficient  Atom+Function         Bfn.  Coefficient  Atom+Function  
  ----- ------------  ---------------      ----- ------------  ---------------
   158      1.545444  5 H  s                 14     -0.644850  1 C  s          
   138     -0.436219  4 H  s                139      0.318633  4 H  s          
   100     -0.202473  3 O  s                105      0.175385  3 O  px         
    10      0.160443  1 C  s                 59     -0.157724  2 O  s          

 Vector   15  Occ=0.000000D+00  E=-6.232137D-03  Symmetry=a'
              MO Center=  2.5D+00, -3.4D-02, -3.1D-14, r^2= 8.2D+00
   Bfn.  Coefficient  Atom+Function         Bfn.  Coefficient  Atom+Function  
  ----- ------------  ---------------      ----- ------------  ---------------
   139      3.633178  4 H  s                 14     -2.410888  1 C  s          
    15     -1.117004  1 C  px               158     -0.742833  5 H  s          
   157     -0.354234  5 H  s                104      0.302498  3 O  s          
    10     -0.211518  1 C  s                 60      0.193217  2 O  px         
    30      0.190816  1 C  dxx              100      0.151800  3 O  s          

 Vector   16  Occ=0.000000D+00  E= 3.331999D-02  Symmetry=a'
              MO Center=  2.6D-01,  7.0D-01,  2.3D-14, r^2= 1.2D+01
   Bfn.  Coefficient  Atom+Function         Bfn.  Coefficient  Atom+Function  
  ----- ------------  ---------------      ----- ------------  ---------------
    59      3.090065  2 O  s                 14     -1.763954  1 C  s          
    16     -1.676862  1 C  py                15      1.019882  1 C  px         
    12     -0.864061  1 C  py                10     -0.752154  1 C  s          
   104     -0.688764  3 O  s                 55      0.671906  2 O  s          
   158      0.526701  5 H  s                 61     -0.388858  2 O  py         

 Vector   17  Occ=0.000000D+00  E= 4.081894D-02  Symmetry=a"
              MO Center=  6.0D-01,  6.6D-02, -2.1D-15, r^2= 9.9D+00
   Bfn.  Coefficient  Atom+Function         Bfn.  Coefficient  Atom+Function  
  ----- ------------  ---------------      ----- ------------  ---------------
    17      1.423004  1 C  pz                13     -0.299222  1 C  pz         
    62     -0.296709  2 O  pz               107     -0.189880  3 O  pz         

 Vector   18  Occ=0.000000D+00  E= 5.960929D-02  Symmetry=a'
              MO Center= -1.2D-01, -6.3D-01, -2.7D-14, r^2= 1.3D+01
   Bfn.  Coefficient  Atom+Function         Bfn.  Coefficient  Atom+Function  
  ----- ------------  ---------------      ----- ------------  ---------------
    14      7.343577  1 C  s                104     -3.770252  3 O  s          
   158     -3.257063  5 H  s                 10      2.399823  1 C  s          
    16     -1.938130  1 C  py                59     -1.860252  2 O  s          
    15     -1.612613  1 C  px               139     -1.004409  4 H  s          
   106     -0.952656  3 O  py               138     -0.913436  4 H  s          

 Vector   19  Occ=0.000000D+00  E= 8.148810D-02  Symmetry=a'
              MO Center=  4.6D-02, -7.3D-01,  3.1D-15, r^2= 1.2D+01
   Bfn.  Coefficient  Atom+Function         Bfn.  Coefficient  Atom+Function  
  ----- ------------  ---------------      ----- ------------  ---------------
   139     -6.335234  4 H  s                 14      6.158370  1 C  s          
    15      4.698266  1 C  px               138     -3.319102  4 H  s          
   157     -3.239170  5 H  s                 10      2.786890  1 C  s          
   158      2.520143  5 H  s                104      2.091023  3 O  s          
   105     -1.388362  3 O  px                59     -0.749012  2 O  s          

 Vector   20  Occ=0.000000D+00  E= 1.113389D-01  Symmetry=a'
              MO Center=  4.4D-01, -2.9D-01,  5.4D-15, r^2= 1.2D+01
   Bfn.  Coefficient  Atom+Function         Bfn.  Coefficient  Atom+Function  
  ----- ------------  ---------------      ----- ------------  ---------------
    14      6.234384  1 C  s                139     -5.568828  4 H  s          
    15      3.161888  1 C  px               157      3.010779  5 H  s          
   104     -1.287322  3 O  s                 30     -0.686204  1 C  dxx        
   100     -0.451593  3 O  s                 31     -0.443142  1 C  dxy        
    35     -0.379688  1 C  dzz               60     -0.354107  2 O  px         

 Vector   21  Occ=0.000000D+00  E= 1.260984D-01  Symmetry=a'
              MO Center=  5.8D-01, -4.6D-02,  3.2D-15, r^2= 1.0D+01
   Bfn.  Coefficient  Atom+Function         Bfn.  Coefficient  Atom+Function  
  ----- ------------  ---------------      ----- ------------  ---------------
   138      3.543359  4 H  s                 14      2.396528  1 C  s          
   139     -1.993179  4 H  s                 11     -1.713743  1 C  px         
   104     -1.666723  3 O  s                 59     -1.375052  2 O  s          
    10     -1.247178  1 C  s                105      0.705053  3 O  px         
   137      0.687053  4 H  s                 15     -0.629429  1 C  px         

 Vector   22  Occ=0.000000D+00  E= 1.541568D-01  Symmetry=a'
              MO Center= -2.6D-01,  2.1D-01,  1.0D-14, r^2= 9.4D+00
   Bfn.  Coefficient  Atom+Function         Bfn.  Coefficient  Atom+Function  
  ----- ------------  ---------------      ----- ------------  ---------------
   104      3.401882  3 O  s                157     -2.835262  5 H  s          
    59      2.205733  2 O  s                 10     -2.132810  1 C  s          
   106      2.062782  3 O  py                14     -1.701352  1 C  s          
    11      1.534991  1 C  px                61     -1.533706  2 O  py         
   138     -1.121873  4 H  s                105     -1.087783  3 O  px         

 Vector   23  Occ=0.000000D+00  E= 1.694511D-01  Symmetry=a"
              MO Center= -1.8D-01, -6.9D-01,  2.0D-14, r^2= 7.6D+00
   Bfn.  Coefficient  Atom+Function         Bfn.  Coefficient  Atom+Function  
  ----- ------------  ---------------      ----- ------------  ---------------
   107      1.791235  3 O  pz                62     -0.649807  2 O  pz         
    17     -0.592301  1 C  pz                34      0.545539  1 C  dyz        
   103     -0.303137  3 O  pz                13     -0.185545  1 C  pz         

 Vector   24  Occ=0.000000D+00  E= 1.974742D-01  Symmetry=a'
              MO Center=  3.2D-01, -9.9D-01,  4.5D-15, r^2= 9.3D+00
   Bfn.  Coefficient  Atom+Function         Bfn.  Coefficient  Atom+Function  
  ----- ------------  ---------------      ----- ------------  ---------------
   138      6.202801  4 H  s                157     -5.071078  5 H  s          
    15     -3.452545  1 C  px               105     -3.386189  3 O  px         
   139      3.085872  4 H  s                 14     -2.918685  1 C  s          
   104      2.930316  3 O  s                 10     -2.643930  1 C  s          
   158     -2.286827  5 H  s                 11     -1.858924  1 C  px         

 Vector   25  Occ=0.000000D+00  E= 2.096854D-01  Symmetry=a"
              MO Center= -2.1D-01,  6.4D-01, -5.7D-14, r^2= 7.2D+00
   Bfn.  Coefficient  Atom+Function         Bfn.  Coefficient  Atom+Function  
  ----- ------------  ---------------      ----- ------------  ---------------
    62      1.885174  2 O  pz                17     -1.366897  1 C  pz         
   107      0.774846  3 O  pz                13     -0.382633  1 C  pz         
    58     -0.371581  2 O  pz               103     -0.314844  3 O  pz         
    34     -0.247232  1 C  dyz              167      0.219671  5 H  pz         

 Vector   26  Occ=0.000000D+00  E= 2.159934D-01  Symmetry=a'
              MO Center=  7.8D-02, -1.8D-01,  4.2D-14, r^2= 7.6D+00
   Bfn.  Coefficient  Atom+Function         Bfn.  Coefficient  Atom+Function  
  ----- ------------  ---------------      ----- ------------  ---------------
    59      7.075889  2 O  s                104     -6.531763  3 O  s          
   157      3.349725  5 H  s                 12     -3.321586  1 C  py         
    61     -2.825258  2 O  py               106     -2.727700  3 O  py         
    31      2.501734  1 C  dxy              105      1.746343  3 O  px         
    55      1.498349  2 O  s                 10     -1.488286  1 C  s          

 Vector   27  Occ=0.000000D+00  E= 2.262599D-01  Symmetry=a'
              MO Center= -9.9D-02, -6.1D-02, -2.5D-14, r^2= 7.6D+00
   Bfn.  Coefficient  Atom+Function         Bfn.  Coefficient  Atom+Function  
  ----- ------------  ---------------      ----- ------------  ---------------
    14      8.135784  1 C  s                 10      5.835837  1 C  s          
    59     -5.811592  2 O  s                104     -4.023026  3 O  s          
   138     -2.852530  4 H  s                158     -2.070090  5 H  s          
   106     -1.601332  3 O  py               105     -1.369661  3 O  px         
    33      1.266304  1 C  dyy               30      1.019357  1 C  dxx        

 Vector   28  Occ=0.000000D+00  E= 2.476545D-01  Symmetry=a'
              MO Center=  1.4D-01,  3.1D-01,  6.2D-15, r^2= 9.9D+00
   Bfn.  Coefficient  Atom+Function         Bfn.  Coefficient  Atom+Function  
  ----- ------------  ---------------      ----- ------------  ---------------
    14      5.149721  1 C  s                139     -3.754088  4 H  s          
    15      3.411012  1 C  px                10      2.372861  1 C  s          
   105     -2.352354  3 O  px                61      2.192049  2 O  py         
    16     -2.098104  1 C  py               104     -1.803720  3 O  s          
    60     -1.699394  2 O  px               138     -1.680898  4 H  s          

 Vector   29  Occ=0.000000D+00  E= 2.610894D-01  Symmetry=a'
              MO Center=  4.5D-01,  9.8D-01,  2.8D-15, r^2= 8.2D+00
   Bfn.  Coefficient  Atom+Function         Bfn.  Coefficient  Atom+Function  
  ----- ------------  ---------------      ----- ------------  ---------------
    14      7.593924  1 C  s                104     -5.575270  3 O  s          
   139     -4.920390  4 H  s                 15      3.549286  1 C  px         
    59     -3.423468  2 O  s                 60     -2.913583  2 O  px         
    10      2.804102  1 C  s                106     -2.044763  3 O  py         
   157      2.054958  5 H  s                 33      1.604780  1 C  dyy        

 Vector   30  Occ=0.000000D+00  E= 2.840893D-01  Symmetry=a'
              MO Center= -1.3D-01, -4.5D-01, -3.2D-15, r^2= 8.0D+00
   Bfn.  Coefficient  Atom+Function         Bfn.  Coefficient  Atom+Function  
  ----- ------------  ---------------      ----- ------------  ---------------
   104     13.929385  3 O  s                157     -6.905700  5 H  s          
    15      3.285496  1 C  px                14     -3.249148  1 C  s          
   106      2.820827  3 O  py                12      2.533924  1 C  py         
   158      2.290526  5 H  s                 16      2.136002  1 C  py         
    60     -1.770271  2 O  px               105     -1.657364  3 O  px         

 Vector   31  Occ=0.000000D+00  E= 3.089340D-01  Symmetry=a"
              MO Center=  4.1D-01, -8.6D-02, -1.1D-14, r^2= 5.3D+00
   Bfn.  Coefficient  Atom+Function         Bfn.  Coefficient  Atom+Function  
  ----- ------------  ---------------      ----- ------------  ---------------
    32      1.381379  1 C  dxz               17     -1.215968  1 C  pz         
   107      1.153674  3 O  pz                62      1.116862  2 O  pz         
   167     -0.696019  5 H  pz                13     -0.572993  1 C  pz         
   103      0.279891  3 O  pz               148      0.230608  4 H  pz         
     9     -0.211192  1 C  pz                58      0.180922  2 O  pz         

 Vector   32  Occ=0.000000D+00  E= 3.559611D-01  Symmetry=a'
              MO Center= -9.4D-02, -2.6D-01,  3.5D-15, r^2= 6.8D+00
   Bfn.  Coefficient  Atom+Function         Bfn.  Coefficient  Atom+Function  
  ----- ------------  ---------------      ----- ------------  ---------------
   157      6.294623  5 H  s                138      5.573526  4 H  s          
    59     -4.192722  2 O  s                 10     -3.844890  1 C  s          
    15     -3.169549  1 C  px               105      2.784291  3 O  px         
   104     -2.367075  3 O  s                139      2.219966  4 H  s          
    14     -2.055937  1 C  s                 11     -1.921993  1 C  px         

 Vector   33  Occ=0.000000D+00  E= 3.861431D-01  Symmetry=a'
              MO Center=  1.8D-01,  1.4D-01,  4.7D-15, r^2= 4.7D+00
   Bfn.  Coefficient  Atom+Function         Bfn.  Coefficient  Atom+Function  
  ----- ------------  ---------------      ----- ------------  ---------------
    10      6.727321  1 C  s                 14      5.626963  1 C  s          
    59     -5.632981  2 O  s                138     -3.787546  4 H  s          
   157      2.388952  5 H  s                139     -2.337959  4 H  s          
   104     -1.586899  3 O  s                 15      1.422033  1 C  px         
    61      1.363457  2 O  py                12      1.102445  1 C  py         

 Vector   34  Occ=0.000000D+00  E= 3.887085D-01  Symmetry=a"
              MO Center=  7.6D-02, -4.0D-01, -3.6D-15, r^2= 4.8D+00
   Bfn.  Coefficient  Atom+Function         Bfn.  Coefficient  Atom+Function  
  ----- ------------  ---------------      ----- ------------  ---------------
   167      1.191313  5 H  pz                34      1.125946  1 C  dyz        
   148      0.849316  4 H  pz               107     -0.481148  3 O  pz         
    62     -0.376343  2 O  pz                58     -0.188629  2 O  pz         
   122      0.173281  3 O  dxz                9     -0.155498  1 C  pz         

 Vector   35  Occ=0.000000D+00  E= 4.178035D-01  Symmetry=a'
              MO Center= -7.3D-01, -5.4D-01, -3.7D-15, r^2= 6.8D+00
   Bfn.  Coefficient  Atom+Function         Bfn.  Coefficient  Atom+Function  
  ----- ------------  ---------------      ----- ------------  ---------------
   157      8.895797  5 H  s                138     -5.741742  4 H  s          
    11      3.711492  1 C  px                59      3.132026  2 O  s          
    15      2.880766  1 C  px               104     -2.701817  3 O  s          
   165      2.251887  5 H  px               105      2.208289  3 O  px         
   139     -1.909344  4 H  s                 14      1.572374  1 C  s          

 Vector   36  Occ=0.000000D+00  E= 4.345702D-01  Symmetry=a'
              MO Center=  1.2D+00,  8.1D-02, -6.5D-16, r^2= 5.8D+00
   Bfn.  Coefficient  Atom+Function         Bfn.  Coefficient  Atom+Function  
  ----- ------------  ---------------      ----- ------------  ---------------
   138      5.545465  4 H  s                 30     -3.330470  1 C  dxx        
    35     -3.213340  1 C  dzz              104      3.047662  3 O  s          
    11     -2.776565  1 C  px               139     -2.119682  4 H  s          
    14      1.971151  1 C  s                 59      1.968901  2 O  s          
   157     -1.695965  5 H  s                 55     -1.564577  2 O  s          

 Vector   37  Occ=0.000000D+00  E= 4.624053D-01  Symmetry=a"
              MO Center=  6.8D-01,  1.7D-02, -1.2D-15, r^2= 3.8D+00
   Bfn.  Coefficient  Atom+Function         Bfn.  Coefficient  Atom+Function  
  ----- ------------  ---------------      ----- ------------  ---------------
    34      2.550548  1 C  dyz               32      1.316195  1 C  dxz        
   148     -1.149389  4 H  pz               107      0.781202  3 O  pz         
   103      0.678824  3 O  pz                58     -0.452904  2 O  pz         
     9      0.282758  1 C  pz                62     -0.263501  2 O  pz         
   124      0.244338  3 O  dyz              167     -0.185368  5 H  pz         

 Vector   38  Occ=0.000000D+00  E= 5.183418D-01  Symmetry=a'
              MO Center= -2.6D-01, -3.6D-01,  1.3D-14, r^2= 6.3D+00
   Bfn.  Coefficient  Atom+Function         Bfn.  Coefficient  Atom+Function  
  ----- ------------  ---------------      ----- ------------  ---------------
   138     -4.670871  4 H  s                 59      4.483286  2 O  s          
   104      4.175852  3 O  s                 11      2.672045  1 C  px         
    14     -2.473969  1 C  s                157     -2.358202  5 H  s          
   106      2.185711  3 O  py                31      1.972169  1 C  dxy        
    12     -1.938098  1 C  py                61     -1.726983  2 O  py         


 center of mass
 --------------
 x =  -0.01642205 y =   0.03861492 z =   0.00000000

 moments of inertia (a.u.)
 ------------------
         149.771774485015          -0.000000000000           0.000000000000
          -0.000000000000          23.276813393326           0.000000000000
           0.000000000000           0.000000000000         173.048587878341

     Multipole analysis of the density
     ---------------------------------

     L   x y z        total         alpha         beta         nuclear
     -   - - -        -----         -----         ----         -------
     0   0 0 0     -0.000000    -12.000000    -12.000000     24.000000

     1   1 0 0      0.058074      0.029037      0.029037      0.000000
     1   0 1 0     -0.585887     -0.292944     -0.292944      0.000000
     1   0 0 1      0.000000      0.000000      0.000000      0.000000

     2   2 0 0    -10.315925    -14.028406    -14.028406     17.740887
     2   1 1 0      1.841767     -0.115740     -0.115740      2.073248
     2   1 0 1      0.000000      0.000000      0.000000      0.000000
     2   0 2 0    -15.930771    -46.330385    -46.330385     76.729999
     2   0 1 1      0.000000      0.000000      0.000000      0.000000
     2   0 0 2    -12.768993     -6.384497     -6.384497      0.000000


------------------------------------------------------------
EAF file 0: "./HCOOH.aoints.0" size=617611264 bytes
------------------------------------------------------------
               write      read    awrite     aread      wait
               -----      ----    ------     -----      ----
     calls:     1178         9         0     10593     10593
   data(b): 6.18e+08  4.72e+06  0.00e+00  5.55e+09
   time(s): 0.00e+00  0.00e+00  0.00e+00  0.00e+00  0.00e+00
rate(mb/s): 0.00e+00  0.00e+00
------------------------------------------------------------


 Parallel integral file used    1178 records with       0 large values


 Task  times  cpu:       54.7s     wall:       60.1s


                                NWChem Input Module
                                -------------------


 Summary of allocated global arrays
-----------------------------------
  No active global arrays



                         GA Statistics for process    0
                         ------------------------------

       create   destroy   get      put      acc     scatter   gather  read&inc
calls:  284      284     3.75e+04 1.03e+04 1.45e+04    0        0     1349     
number of processes/call 1.00e+00 1.00e+00 1.00e+00 0.00e+00 0.00e+00
bytes total:             2.94e+08 6.30e+07 1.68e+08 0.00e+00 0.00e+00 1.08e+04
bytes remote:            0.00e+00 0.00e+00 0.00e+00 0.00e+00 0.00e+00 0.00e+00
Max memory consumed for GA by this process: 9337848 bytes

MA_summarize_allocated_blocks: starting scan ...
MA_summarize_allocated_blocks: scan completed: 0 heap blocks, 0 stack blocks
MA usage statistics:

	allocation statistics:
					      heap	     stack
					      ----	     -----
	current number of blocks	         0	         0
	maximum number of blocks	        23	        55
	current total bytes		         0	         0
	maximum total bytes		   3771760	  29928744
	maximum total K-bytes		      3772	     29929
	maximum total M-bytes		         4	        30


                                     CITATION
                                     --------
                Please cite the following reference when publishing
                           results obtained with NWChem:

                 M. Valiev, E.J. Bylaska, N. Govind, K. Kowalski,
              T.P. Straatsma, H.J.J. van Dam, D. Wang, J. Nieplocha,
                        E. Apra, T.L. Windus, W.A. de Jong
                 "NWChem: a comprehensive and scalable open-source
                  solution for large scale molecular simulations"
                      Comput. Phys. Commun. 181, 1477 (2010)
                           doi:10.1016/j.cpc.2010.04.018

                                      AUTHORS
                                      -------
          E. Apra, E. J. Bylaska, W. A. de Jong, N. Govind, K. Kowalski,
       T. P. Straatsma, M. Valiev, H. J. J. van Dam, D. Wang, T. L. Windus,
        J. Hammond, J. Autschbach, K. Bhaskaran-Nair, J. Brabec, K. Lopata,
       S. A. Fischer, S. Krishnamoorthy, W. Ma, M. Klemm, O. Villa, Y. Chen,
    V. Anisimov, F. Aquino, S. Hirata, M. T. Hackler, T. Risthaus, M. Malagoli,
       A. Marenich, A. Otero-de-la-Roza, J. Mullin, P. Nichols, R. Peverati,
     J. Pittner, Y. Zhao, P.-D. Fan, A. Fonari, M. Williamson, R. J. Harrison,
       J. R. Rehr, M. Dupuis, D. Silverstein, D. M. A. Smith, J. Nieplocha,
        V. Tipparaju, M. Krishnan, B. E. Van Kuiken, A. Vazquez-Mayagoitia,
        L. Jensen, M. Swart, Q. Wu, T. Van Voorhis, A. A. Auer, M. Nooijen,
      L. D. Crosby, E. Brown, G. Cisneros, G. I. Fann, H. Fruchtl, J. Garza,
        K. Hirao, R. A. Kendall, J. A. Nichols, K. Tsemekhman, K. Wolinski,
     J. Anchell, D. E. Bernholdt, P. Borowski, T. Clark, D. Clerc, H. Dachsel,
   M. J. O. Deegan, K. Dyall, D. Elwood, E. Glendening, M. Gutowski, A. C. Hess,
         J. Jaffe, B. G. Johnson, J. Ju, R. Kobayashi, R. Kutteh, Z. Lin,
   R. Littlefield, X. Long, B. Meng, T. Nakajima, S. Niu, L. Pollack, M. Rosing,
   K. Glaesemann, G. Sandrone, M. Stave, H. Taylor, G. Thomas, J. H. van Lenthe,
                               A. T. Wong, Z. Zhang.

 Total times  cpu:       54.7s     wall:       60.3s
