[1537887603.406260] [r8n3:340  :0]         sys.c:744  MXM  WARN  Conflicting CPU frequencies detected, using: 2499.99
[1537887603.412537] [r8n3:340  :0]         mxm.c:196  MXM  WARN  The 'ulimit -s' on the system is set to 'unlimited'. This may have negative performance implications. Please set the stack size to the default value (10240) 
[1537887603.414648] [r8n3:340  :0]         mxm.c:196  MXM  WARN  The 'ulimit -s' on the system is set to 'unlimited'. This may have negative performance implications. Please set the stack size to the default value (10240) 
 argument  1 = /storage/home/bikashp/nwchem_run/rabeet/hb6/nwrevtpss/NH3-F2.nw
                                         
                                         


              Northwest Computational Chemistry Package (NWChem) 6.6
              ------------------------------------------------------


                    Environmental Molecular Sciences Laboratory
                       Pacific Northwest National Laboratory
                                Richland, WA 99352

                              Copyright (c) 1994-2015
                       Pacific Northwest National Laboratory
                            Battelle Memorial Institute

             NWChem is an open-source computational chemistry package
                        distributed under the terms of the
                      Educational Community License (ECL) 2.0
             A copy of the license is included with this distribution
                              in the LICENSE.TXT file

                                  ACKNOWLEDGMENT
                                  --------------

            This software and its documentation were developed at the
            EMSL at Pacific Northwest National Laboratory, a multiprogram
            national laboratory, operated for the U.S. Department of Energy
            by Battelle under Contract Number DE-AC05-76RL01830. Support
            for this work was provided by the Department of Energy Office
            of Biological and Environmental Research, Office of Basic
            Energy Sciences, and the Office of Advanced Scientific Computing.


           Job information
           ---------------

    hostname        = r8n3.niserhpc.org
    program         = /home/bikashp/Code/nwchem-6.6_revtpss/bin/LINUX64/nwchem
    date            = Tue Sep 25 20:30:03 2018

    compiled        = Tue_Sep_25_17:05:19_2018
    source          = /home/bikashp/Code/nwchem-6.6_revtpss
    nwchem branch   = 6.6
    nwchem revision = 27746
    ga revision     = 10594
    input           = /storage/home/bikashp/nwchem_run/rabeet/hb6/nwrevtpss/NH3-F2.nw
    prefix          = NH3-F2.
    data base       = ./NH3-F2.db
    status          = startup
    nproc           =        1
    time left       =     -1s



           Memory information
           ------------------

    heap     =   13107196 doubles =    100.0 Mbytes
    stack    =   13107201 doubles =    100.0 Mbytes
    global   =   26214400 doubles =    200.0 Mbytes (distinct from heap & stack)
    total    =   52428797 doubles =    400.0 Mbytes
    verify   = yes
    hardfail = no 


           Directory information
           ---------------------

  0 permanent = .
  0 scratch   = .




                                NWChem Input Module
                                -------------------



 Scaling coordinates for geometry "geometry" by  1.889725989
 (inverse scale =  0.529177249)

 C3V symmetry detected

          ------
          auto-z
          ------
  autoz: The atoms group into disjoint clusters
 cluster   1:    1    2    3    4
 cluster   2:    5
 cluster   3:    6
 Connecting clusters   1   2 via atoms    1    5 r = 2.70
 Connecting clusters   1   3 via atoms    1    6 r = 4.12
 Connecting clusters   2   3 via atoms    5    6 r = 1.43
  autoz: regenerating connections with new bonds
  Looking for out-of-plane bends


                             Geometry "geometry" -> ""
                             -------------------------

 Output coordinates in angstroms (scale by  1.889725989 to convert to a.u.)

  No.       Tag          Charge          X              Y              Z
 ---- ---------------- ---------- -------------- -------------- --------------
    1 N                    7.0000     0.00000000     0.00000000    -2.14998857
    2 H                    1.0000     0.66443375     0.66443375    -2.53439857
    3 H                    1.0000     0.24319963    -0.90763338    -2.53439857
    4 H                    1.0000    -0.90763338     0.24319963    -2.53439857
    5 F                    9.0000    -0.00000000     0.00000000     0.54577143
    6 F                    9.0000     0.00000000     0.00000000     1.97124143

      Atomic Mass 
      ----------- 

      N                 14.003070
      H                  1.007825
      F                 18.998400


 Effective nuclear repulsion energy (a.u.)      69.9882854235

            Nuclear Dipole moment (a.u.) 
            ----------------------------
        X                 Y               Z
 ---------------- ---------------- ----------------
     0.0000000000     0.0000000000    -0.0000000000

      Symmetry information
      --------------------

 Group name             C3v       
 Group number             17
 Group order               6
 No. of unique centers     4

      Symmetry unique atoms

     1    2    5    6



                                Z-matrix (autoz)
                                -------- 

 Units are Angstrom for bonds and degrees for angles

      Type          Name      I     J     K     L     M      Value
      ----------- --------  ----- ----- ----- ----- ----- ----------
    1 Stretch                  1     5                       2.69576
    2 Stretch                  1     6                       4.12123
    3 Stretch                  1     2                       1.01524
    4 Stretch                  1     3                       1.01524
    5 Stretch                  1     4                       1.01524
    6 Stretch                  5     6                       1.42547
    7 Bend                     2     1     5               112.24940
    8 Bend                     2     1     6               112.24940
    9 Bend                     2     1     3               106.55579
   10 Bend                     2     1     4               106.55579
   11 Bend                     3     1     5               112.24940
   12 Bend                     3     1     6               112.24940
   13 Bend                     3     1     4               106.55579
   14 Bend                     4     1     5               112.24940
   15 Bend                     4     1     6               112.24940
   16 Torsion                  1     2     5     6        -180.00000
   17 Torsion                  1     2     6     5           0.00000
   18 Torsion                  1     3     5     6        -180.00000
   19 Torsion                  1     3     6     5           0.00000
   20 Torsion                  1     4     5     6        -180.00000
   21 Torsion                  1     4     6     5           0.00000


            XYZ format geometry
            -------------------
     6
 geometry
 N                     0.00000000     0.00000000    -2.14998857
 H                     0.66443375     0.66443375    -2.53439857
 H                     0.24319963    -0.90763338    -2.53439857
 H                    -0.90763338     0.24319963    -2.53439857
 F                    -0.00000000     0.00000000     0.54577143
 F                     0.00000000     0.00000000     1.97124143

 ==============================================================================
                                internuclear distances
 ------------------------------------------------------------------------------
       center one      |      center two      | atomic units |  angstroms
 ------------------------------------------------------------------------------
    2 H                |   1 N                |     1.91853  |     1.01524
    3 H                |   1 N                |     1.91853  |     1.01524
    4 H                |   1 N                |     1.91853  |     1.01524
 ------------------------------------------------------------------------------
                         number of included internuclear distances:          3
 ==============================================================================



 ==============================================================================
                                 internuclear angles
 ------------------------------------------------------------------------------
        center 1       |       center 2       |       center 3       |  degrees
 ------------------------------------------------------------------------------
    2 H                |   1 N                |   3 H                |   106.56
    2 H                |   1 N                |   4 H                |   106.56
    3 H                |   1 N                |   4 H                |   106.56
 ------------------------------------------------------------------------------
                            number of included internuclear angles:          3
 ==============================================================================





 Summary of "ao basis" -> "" (cartesian)
 ------------------------------------------------------------------------------
       Tag                 Description            Shells   Functions and Types
 ---------------- ------------------------------  ------  ---------------------
 *                     6-311++G(3df,3pd)              on all atoms 



                                 NWChem DFT Module
                                 -----------------


                      Basis "ao basis" -> "ao basis" (cartesian)
                      -----
  N (Nitrogen)
  ------------
            Exponent  Coefficients 
       -------------- ---------------------------------------------------------
  1 S  6.29348000E+03  0.001970
  1 S  9.49044000E+02  0.014961
  1 S  2.18776000E+02  0.073501
  1 S  6.36916000E+01  0.248937
  1 S  1.88282000E+01  0.602460
  1 S  2.72023000E+00  0.256202

  2 S  3.06331000E+01  0.111906
  2 S  7.02614000E+00  0.921666
  2 S  2.11205000E+00 -0.002569

  3 P  3.06331000E+01  0.038312
  3 P  7.02614000E+00  0.237403
  3 P  2.11205000E+00  0.817592

  4 S  6.84009000E-01  1.000000

  5 P  6.84009000E-01  1.000000

  6 S  2.00878000E-01  1.000000

  7 P  2.00878000E-01  1.000000

  8 S  6.39000000E-02  1.000000

  9 P  6.39000000E-02  1.000000

 10 D  3.65200000E+00  1.000000

 11 D  9.13000000E-01  1.000000

 12 D  2.28250000E-01  1.000000

 13 F  1.00000000E+00  1.000000

  H (Hydrogen)
  ------------
            Exponent  Coefficients 
       -------------- ---------------------------------------------------------
  1 S  3.38650000E+01  0.025494
  1 S  5.09479000E+00  0.190373
  1 S  1.15879000E+00  0.852161

  2 S  3.25840000E-01  1.000000

  3 S  1.02741000E-01  1.000000

  4 S  3.60000000E-02  1.000000

  5 P  3.00000000E+00  1.000000

  6 P  7.50000000E-01  1.000000

  7 P  1.87500000E-01  1.000000

  8 D  1.00000000E+00  1.000000

  F (Fluorine)
  ------------
            Exponent  Coefficients 
       -------------- ---------------------------------------------------------
  1 S  1.14271000E+04  0.001801
  1 S  1.72235000E+03  0.013742
  1 S  3.95746000E+02  0.068133
  1 S  1.15139000E+02  0.233325
  1 S  3.36026000E+01  0.589086
  1 S  4.91901000E+00  0.299505

  2 S  5.54441000E+01  0.114536
  2 S  1.26323000E+01  0.920512
  2 S  3.71756000E+00 -0.003378

  3 P  5.54441000E+01  0.035461
  3 P  1.26323000E+01  0.237451
  3 P  3.71756000E+00  0.820458

  4 S  1.16545000E+00  1.000000

  5 P  1.16545000E+00  1.000000

  6 S  3.21892000E-01  1.000000

  7 P  3.21892000E-01  1.000000

  8 S  1.07600000E-01  1.000000

  9 P  1.07600000E-01  1.000000

 10 D  7.00000000E+00  1.000000

 11 D  1.75000000E+00  1.000000

 12 D  4.37500000E-01  1.000000

 13 F  1.85000000E+00  1.000000



 Summary of "ao basis" -> "ao basis" (cartesian)
 ------------------------------------------------------------------------------
       Tag                 Description            Shells   Functions and Types
 ---------------- ------------------------------  ------  ---------------------
 N                     6-311++G(3df,3pd)            13       45   5s4p3d1f
 H                     6-311++G(3df,3pd)             8       19   4s3p1d
 F                     6-311++G(3df,3pd)            13       45   5s4p3d1f




 Summary of "ao basis" -> "ao basis" (cartesian)
 ------------------------------------------------------------------------------
       Tag                 Description            Shells   Functions and Types
 ---------------- ------------------------------  ------  ---------------------
 N                     6-311++G(3df,3pd)            13       45   5s4p3d1f
 H                     6-311++G(3df,3pd)             8       19   4s3p1d
 F                     6-311++G(3df,3pd)            13       45   5s4p3d1f


      Symmetry analysis of basis
      --------------------------

        a1         68
        a2          8
        e         116

  Caching 1-el integrals 
  Rotation of axis 

            General Information
            -------------------
          SCF calculation type: DFT
          Wavefunction type:  closed shell.
          No. of atoms     :     6
          No. of electrons :    28
           Alpha electrons :    14
            Beta electrons :    14
          Charge           :     0
          Spin multiplicity:     1
          Use of symmetry is: on ; symmetry adaption is: on 
          Maximum number of iterations: ***
          AO basis - number of functions:   192
                     number of shells:    63
          Convergence on energy requested: 1.00D-06
          Convergence on density requested: 1.00D-05
          Convergence on gradient requested: 5.00D-04

              XC Information
              --------------
                  TPSS metaGGA Exchange Functional  1.000          
             TPSS03 metaGGA Correlation Functional  1.000          

             Grid Information
             ----------------
          Grid used for XC integration:  medium    
          Radial quadrature: Mura-Knowles        
          Angular quadrature: Lebedev. 
          Tag              B.-S. Rad. Rad. Pts. Rad. Cut. Ang. Pts.
          ---              ---------- --------- --------- ---------
          N                   0.65       49          11.0       434
          H                   0.35       45          12.0       434
          F                   0.50       49          14.0       434
          Grid pruning is: on 
          Number of quadrature shells:   192
          Spatial weights used:  Erf1

          Convergence Information
          -----------------------
          Convergence aids based upon iterative change in 
          total energy or number of iterations. 
          Levelshifting, if invoked, occurs when the 
          HOMO/LUMO gap drops below (HL_TOL): 1.00D-02
          DIIS, if invoked, will attempt to extrapolate 
          using up to (NFOCK): 10 stored Fock matrices.

                    Damping( 0%)  Levelshifting(0.5)       DIIS
                  --------------- ------------------- ---------------
          dE  on:    start            ASAP                start   
          dE off:    2 iters        *** iters           *** iters 


      Screening Tolerance Information
      -------------------------------
          Density screening/tol_rho: 1.00D-10
          AO Gaussian exp screening on grid/accAOfunc:  14
          CD Gaussian exp screening on grid/accCDfunc:  20
          XC Gaussian exp screening on grid/accXCfunc:  20
          Schwarz screening/accCoul: 1.00D-08


      Superposition of Atomic Density Guess
      -------------------------------------

 Sum of atomic energies:        -254.62316918

      Non-variational initial energy
      ------------------------------

 Total energy =    -254.754416
 1-e energy   =    -492.613739
 2-e energy   =     167.871037
 HOMO         =      -0.386102
 LUMO         =      -0.209464


      Symmetry analysis of molecular orbitals - initial
      -------------------------------------------------

  Numbering of irreducible representations: 

     1 a1          2 a2          3 e       

  Orbital symmetries:

     1 a1          2 a1          3 a1          4 a1          5 a1      
     6 a1          7 a1          8 e           9 e          10 e       
    11 e          12 e          13 e          14 a1         15 a1      
    16 a1         17 e          18 e          19 a1         20 a1      
    21 e          22 e          23 a1         24 e       

   Time after variat. SCF:      1.4
   Time prior to 1st pass:      1.4

 Integral file          = ./NH3-F2.aoints.0
 Record size in doubles =    65536    No. of integs per rec  =    43688
 Max. records in memory =        0    Max. records in file   = ********
 No. of bits per label  =        8    No. of bits per value  =       64


 #quartets = 5.698D+05 #integrals = 2.348D+07 #direct =  0.0% #cached =100.0%


 Grid_pts file          = ./NH3-F2.gridpts.0
 Record size in doubles =  12289        No. of grid_pts per rec  =   3070
 Max. records in memory =     31        Max. recs in file   = 995190760


           Memory utilization after 1st SCF pass: 
           Heap Space remaining (MW):       12.72            12721348
          Stack Space remaining (MW):       13.11            13106076

   convergence    iter        energy       DeltaE   RMS-Dens  Diis-err    time
 ---------------- ----- ----------------- --------- --------- ---------  ------
 d= 0,ls=0.0,diis     1   -256.0420811718 -3.26D+02  9.98D-03  1.04D+00     9.6
 d= 0,ls=0.0,diis     2   -254.5495603693  1.49D+00  9.92D-03  1.04D+01    12.1
 d= 0,ls=0.0,diis     3   -256.0486523558 -1.50D+00  1.46D-03  4.65D-01    14.6
 d= 0,ls=0.0,diis     4   -256.0858957672 -3.72D-02  1.08D-03  1.38D-01    17.0
 d= 0,ls=0.0,diis     5   -256.0852120669  6.84D-04  9.72D-04  1.58D-01    19.6
  Resetting Diis
 d= 0,ls=0.0,diis     6   -256.0980207771 -1.28D-02  1.94D-04  5.84D-03    22.2
 d= 0,ls=0.0,diis     7   -256.0986042153 -5.83D-04  1.67D-04  1.52D-04    24.7
 d= 0,ls=0.0,diis     8   -256.0984775774  1.27D-04  1.01D-04  1.36D-03    27.3
 d= 0,ls=0.0,diis     9   -256.0986197248 -1.42D-04  1.50D-05  3.69D-05    29.9
 d= 0,ls=0.0,diis    10   -256.0986242392 -4.51D-06  5.21D-06  8.51D-06    32.3
 d= 0,ls=0.0,diis    11   -256.0986260235 -1.78D-06  2.07D-06  4.60D-07    34.8
 d= 0,ls=0.0,diis    12   -256.0986253393  6.84D-07  2.91D-07  4.20D-09    37.3


         Total DFT energy =     -256.098625339343
      One electron energy =     -494.001023881091
           Coulomb energy =      196.600807226673
          Exchange energy =      -27.719739495775
       Correlation energy =       -0.966954612697
 Nuclear repulsion energy =       69.988285423547

 Numeric. integr. density =       27.999993565408

     Total iterative time =     35.9s



                  Occupations of the irreducible representations
                  ----------------------------------------------

                     irrep           alpha         beta
                     --------     --------     --------
                     a1                8.0          8.0
                     a2                0.0          0.0
                     e                 6.0          6.0


                       DFT Final Molecular Orbital Analysis
                       ------------------------------------

 Vector    3  Occ=2.000000D+00  E=-1.413880D+01  Symmetry=a1
              MO Center= -8.9D-22, -2.4D-21, -2.2D+00, r^2= 2.0D-02
   Bfn.  Coefficient  Atom+Function         Bfn.  Coefficient  Atom+Function  
  ----- ------------  ---------------      ----- ------------  ---------------
     1      0.558222  1 N  s                  2      0.466706  1 N  s          

 Vector    4  Occ=2.000000D+00  E=-1.229689D+00  Symmetry=a1
              MO Center=  5.1D-16, -2.5D-16,  1.3D+00, r^2= 6.6D-01
   Bfn.  Coefficient  Atom+Function         Bfn.  Coefficient  Atom+Function  
  ----- ------------  ---------------      ----- ------------  ---------------
   112      0.463288  5 F  s                157      0.460892  6 F  s          
   108      0.437439  5 F  s                153      0.434486  6 F  s          
   104     -0.156970  5 F  s                149     -0.156355  6 F  s          

 Vector    5  Occ=2.000000D+00  E=-1.011233D+00  Symmetry=a1
              MO Center=  6.7D-17, -3.9D-17,  1.3D+00, r^2= 9.7D-01
   Bfn.  Coefficient  Atom+Function         Bfn.  Coefficient  Atom+Function  
  ----- ------------  ---------------      ----- ------------  ---------------
   157     -0.540635  6 F  s                112      0.536754  5 F  s          
   108      0.499258  5 F  s                153     -0.499051  6 F  s          
   104     -0.172884  5 F  s                149      0.173230  6 F  s          

 Vector    6  Occ=2.000000D+00  E=-8.225677D-01  Symmetry=a1
              MO Center=  2.9D-17,  2.3D-17, -2.3D+00, r^2= 6.9D-01
   Bfn.  Coefficient  Atom+Function         Bfn.  Coefficient  Atom+Function  
  ----- ------------  ---------------      ----- ------------  ---------------
     6      0.505969  1 N  s                 10      0.431611  1 N  s          
     2     -0.192680  1 N  s          

 Vector    7  Occ=2.000000D+00  E=-5.209839D-01  Symmetry=a1
              MO Center=  3.5D-18,  3.2D-19,  1.2D+00, r^2= 1.1D+00
   Bfn.  Coefficient  Atom+Function         Bfn.  Coefficient  Atom+Function  
  ----- ------------  ---------------      ----- ------------  ---------------
   111      0.310866  5 F  pz               156     -0.311727  6 F  pz         
   115      0.252687  5 F  pz               160     -0.231238  6 F  pz         
   107      0.220496  5 F  pz               152     -0.219667  6 F  pz         
    14     -0.161363  1 N  s                157     -0.161399  6 F  s          
   112     -0.151571  5 F  s          

 Vector    8  Occ=2.000000D+00  E=-4.435369D-01  Symmetry=e
              MO Center= -4.8D-02, -1.6D-01, -2.1D+00, r^2= 1.8D+00
   Bfn.  Coefficient  Atom+Function         Bfn.  Coefficient  Atom+Function  
  ----- ------------  ---------------      ----- ------------  ---------------
     8      0.263549  1 N  py                12      0.202412  1 N  py         
     4      0.184304  1 N  py                66     -0.168797  3 H  s          
    65     -0.164924  3 H  s                  7     -0.157075  1 N  px         

 Vector    9  Occ=2.000000D+00  E=-4.435369D-01  Symmetry=e
              MO Center=  4.8D-02,  1.6D-01, -2.1D+00, r^2= 1.8D+00
   Bfn.  Coefficient  Atom+Function         Bfn.  Coefficient  Atom+Function  
  ----- ------------  ---------------      ----- ------------  ---------------
     7      0.263549  1 N  px                11      0.202412  1 N  px         
     3      0.184304  1 N  px                47      0.170057  2 H  s          
    46      0.166155  2 H  s                  8      0.157075  1 N  py         

 Vector   10  Occ=2.000000D+00  E=-4.374882D-01  Symmetry=e
              MO Center= -7.4D-04,  1.4D-02,  9.9D-01, r^2= 1.8D+00
   Bfn.  Coefficient  Atom+Function         Bfn.  Coefficient  Atom+Function  
  ----- ------------  ---------------      ----- ------------  ---------------
   109      0.285098  5 F  px               154      0.285541  6 F  px         
   113      0.232774  5 F  px               158      0.233494  6 F  px         
   105      0.196988  5 F  px               150      0.197072  6 F  px         

 Vector   11  Occ=2.000000D+00  E=-4.374882D-01  Symmetry=e
              MO Center=  7.4D-04, -1.4D-02,  9.9D-01, r^2= 1.8D+00
   Bfn.  Coefficient  Atom+Function         Bfn.  Coefficient  Atom+Function  
  ----- ------------  ---------------      ----- ------------  ---------------
   110      0.285098  5 F  py               155      0.285541  6 F  py         
   114      0.232774  5 F  py               159      0.233494  6 F  py         
   106      0.196988  5 F  py               151      0.197072  6 F  py         

 Vector   12  Occ=2.000000D+00  E=-3.157987D-01  Symmetry=e
              MO Center= -1.0D-05,  7.4D-06,  1.3D+00, r^2= 9.9D-01
   Bfn.  Coefficient  Atom+Function         Bfn.  Coefficient  Atom+Function  
  ----- ------------  ---------------      ----- ------------  ---------------
   110      0.350599  5 F  py               155     -0.350824  6 F  py         
   114      0.303181  5 F  py               159     -0.304309  6 F  py         
   106      0.242059  5 F  py               151     -0.241910  6 F  py         

 Vector   13  Occ=2.000000D+00  E=-3.157987D-01  Symmetry=e
              MO Center=  1.0D-05, -7.4D-06,  1.3D+00, r^2= 9.9D-01
   Bfn.  Coefficient  Atom+Function         Bfn.  Coefficient  Atom+Function  
  ----- ------------  ---------------      ----- ------------  ---------------
   109      0.350599  5 F  px               154     -0.350824  6 F  px         
   113      0.303181  5 F  px               158     -0.304309  6 F  px         
   105      0.242059  5 F  px               150     -0.241910  6 F  px         

 Vector   14  Occ=2.000000D+00  E=-2.568339D-01  Symmetry=a1
              MO Center= -3.5D-17,  2.2D-16, -1.9D+00, r^2= 1.5D+00
   Bfn.  Coefficient  Atom+Function         Bfn.  Coefficient  Atom+Function  
  ----- ------------  ---------------      ----- ------------  ---------------
    13      0.374428  1 N  pz                 9      0.357013  1 N  pz         
     5      0.252445  1 N  pz                10      0.241358  1 N  s          
     6      0.176901  1 N  s          

 Vector   15  Occ=0.000000D+00  E=-1.635406D-01  Symmetry=a1
              MO Center=  5.8D-16,  2.3D-16,  1.1D+00, r^2= 1.5D+00
   Bfn.  Coefficient  Atom+Function         Bfn.  Coefficient  Atom+Function  
  ----- ------------  ---------------      ----- ------------  ---------------
   111      0.381436  5 F  pz               115      0.375036  5 F  pz         
   156      0.367621  6 F  pz               160      0.358299  6 F  pz         
   107      0.261143  5 F  pz               152      0.249992  6 F  pz         
   157     -0.219169  6 F  s                112      0.207530  5 F  s          
   153     -0.165668  6 F  s                164      0.150048  6 F  pz         

 Vector   16  Occ=0.000000D+00  E=-3.446506D-02  Symmetry=a1
              MO Center=  3.7D-16,  4.8D-16, -2.9D+00, r^2= 8.7D+00
   Bfn.  Coefficient  Atom+Function         Bfn.  Coefficient  Atom+Function  
  ----- ------------  ---------------      ----- ------------  ---------------
    14      2.123999  1 N  s                 49     -0.653696  2 H  s          
    68     -0.653696  3 H  s                 87     -0.653696  4 H  s          
    10      0.502765  1 N  s                 48     -0.491847  2 H  s          
    67     -0.491847  3 H  s                 86     -0.491847  4 H  s          
   161     -0.171093  6 F  s                  6      0.168744  1 N  s          

 Vector   17  Occ=0.000000D+00  E= 1.285085D-02  Symmetry=e
              MO Center=  6.2D-01, -3.2D-01, -2.8D+00, r^2= 1.2D+01
   Bfn.  Coefficient  Atom+Function         Bfn.  Coefficient  Atom+Function  
  ----- ------------  ---------------      ----- ------------  ---------------
    68      2.633451  3 H  s                 49     -2.320987  2 H  s          
    16      0.513487  1 N  py                87     -0.312463  4 H  s          
    67     -0.180471  3 H  s                 48      0.159058  2 H  s          

 Vector   18  Occ=0.000000D+00  E= 1.285085D-02  Symmetry=e
              MO Center= -6.2D-01,  3.2D-01, -2.8D+00, r^2= 1.2D+01
   Bfn.  Coefficient  Atom+Function         Bfn.  Coefficient  Atom+Function  
  ----- ------------  ---------------      ----- ------------  ---------------
    87      2.860446  4 H  s                 49     -1.700824  2 H  s          
    68     -1.159622  3 H  s                 15      0.513487  1 N  px         
    86     -0.196028  4 H  s          

 Vector   19  Occ=0.000000D+00  E= 7.321162D-02  Symmetry=a1
              MO Center= -3.6D-13,  5.0D-14, -1.9D+00, r^2= 9.6D+00
   Bfn.  Coefficient  Atom+Function         Bfn.  Coefficient  Atom+Function  
  ----- ------------  ---------------      ----- ------------  ---------------
    14      4.155857  1 N  s                 17     -2.408807  1 N  pz         
    48     -1.812775  2 H  s                 67     -1.812775  3 H  s          
    86     -1.812775  4 H  s                 10      1.331779  1 N  s          
   119     -0.997819  5 F  pz               161      0.667960  6 F  s          
   116     -0.489675  5 F  s                 49     -0.451451  2 H  s          

 Vector   20  Occ=0.000000D+00  E= 1.060699D-01  Symmetry=e
              MO Center=  3.4D-01,  2.2D-01, -1.9D+00, r^2= 6.5D+00
   Bfn.  Coefficient  Atom+Function         Bfn.  Coefficient  Atom+Function  
  ----- ------------  ---------------      ----- ------------  ---------------
    86      4.532087  4 H  s                 67     -4.015958  3 H  s          
    15      2.480732  1 N  px                16     -2.010985  1 N  py         
    11      1.291790  1 N  px                87      1.057620  4 H  s          
    12     -1.047179  1 N  py                68     -0.937174  3 H  s          
    85      0.885395  4 H  s                 66     -0.784563  3 H  s          

 Vector   21  Occ=0.000000D+00  E= 1.060699D-01  Symmetry=e
              MO Center= -3.4D-01, -2.2D-01, -1.9D+00, r^2= 6.5D+00
   Bfn.  Coefficient  Atom+Function         Bfn.  Coefficient  Atom+Function  
  ----- ------------  ---------------      ----- ------------  ---------------
    48      4.935216  2 H  s                 67     -2.914589  3 H  s          
    16     -2.480732  1 N  py                15     -2.010985  1 N  px         
    86     -2.020628  4 H  s                 12     -1.291790  1 N  py         
    49      1.151695  2 H  s                 11     -1.047179  1 N  px         
    47      0.964150  2 H  s                 68     -0.680156  3 H  s          

 Vector   22  Occ=0.000000D+00  E= 1.094917D-01  Symmetry=a1
              MO Center= -1.6D-15,  2.0D-14, -2.9D+00, r^2= 1.1D+01
   Bfn.  Coefficient  Atom+Function         Bfn.  Coefficient  Atom+Function  
  ----- ------------  ---------------      ----- ------------  ---------------
    14      8.391843  1 N  s                 48     -1.489890  2 H  s          
    67     -1.489890  3 H  s                 86     -1.489890  4 H  s          
   161     -1.299589  6 F  s                 49     -1.258338  2 H  s          
    68     -1.258338  3 H  s                 87     -1.258338  4 H  s          
   119      1.194005  5 F  pz               116      0.715397  5 F  s          

 Vector   23  Occ=0.000000D+00  E= 1.347587D-01  Symmetry=a1
              MO Center= -4.5D-14,  3.8D-14,  1.2D+00, r^2= 1.0D+01
   Bfn.  Coefficient  Atom+Function         Bfn.  Coefficient  Atom+Function  
  ----- ------------  ---------------      ----- ------------  ---------------
    14      6.622784  1 N  s                 48     -2.731000  2 H  s          
    67     -2.731000  3 H  s                 86     -2.731000  4 H  s          
   116      1.773622  5 F  s                 10      1.746863  1 N  s          
    17     -1.550515  1 N  pz               164      1.034422  6 F  pz         
   119      0.856183  5 F  pz                49     -0.501332  2 H  s          

 Vector   24  Occ=0.000000D+00  E= 1.675764D-01  Symmetry=e
              MO Center= -3.0D-01, -4.5D-01, -2.6D+00, r^2= 9.0D+00
   Bfn.  Coefficient  Atom+Function         Bfn.  Coefficient  Atom+Function  
  ----- ------------  ---------------      ----- ------------  ---------------
    68      3.221784  3 H  s                 87     -2.871803  4 H  s          
    16      1.570840  1 N  py                15     -1.286585  1 N  px         
    67     -0.691264  3 H  s                 86      0.616172  4 H  s          
    12     -0.536406  1 N  py                11      0.439340  1 N  px         
    49     -0.349982  2 H  s                  8     -0.188777  1 N  py         

 Vector   25  Occ=0.000000D+00  E= 1.675764D-01  Symmetry=e
              MO Center=  3.0D-01,  4.5D-01, -2.6D+00, r^2= 9.0D+00
   Bfn.  Coefficient  Atom+Function         Bfn.  Coefficient  Atom+Function  
  ----- ------------  ---------------      ----- ------------  ---------------
    49      3.518134  2 H  s                 87     -2.062160  4 H  s          
    15     -1.570840  1 N  px                68     -1.455974  3 H  s          
    16     -1.286585  1 N  py                48     -0.754848  2 H  s          
    11      0.536406  1 N  px                86      0.442456  4 H  s          
    12      0.439340  1 N  py                67      0.312393  3 H  s          

 Vector   26  Occ=0.000000D+00  E= 1.921792D-01  Symmetry=a1
              MO Center= -1.1D-13,  1.6D-13, -1.4D-01, r^2= 1.1D+01
   Bfn.  Coefficient  Atom+Function         Bfn.  Coefficient  Atom+Function  
  ----- ------------  ---------------      ----- ------------  ---------------
    14     11.787003  1 N  s                 48     -4.896198  2 H  s          
    67     -4.896198  3 H  s                 86     -4.896198  4 H  s          
    10      3.224588  1 N  s                 17     -1.631904  1 N  pz         
    13     -0.988334  1 N  pz               164     -0.910598  6 F  pz         
    49     -0.642037  2 H  s                 68     -0.642037  3 H  s          

 Vector   27  Occ=0.000000D+00  E= 2.026919D-01  Symmetry=e
              MO Center= -2.3D-02, -8.0D-02,  8.6D-01, r^2= 6.7D+00
   Bfn.  Coefficient  Atom+Function         Bfn.  Coefficient  Atom+Function  
  ----- ------------  ---------------      ----- ------------  ---------------
   162      0.699042  6 F  px                48      0.568466  2 H  s          
   117      0.460194  5 F  px                86     -0.411191  4 H  s          
   163      0.412415  6 F  py                15     -0.385310  1 N  px         
   158     -0.299772  6 F  px                75     -0.295187  3 H  px         
   118      0.271501  5 F  py               113     -0.231469  5 F  px         

 Vector   28  Occ=0.000000D+00  E= 2.026919D-01  Symmetry=e
              MO Center=  2.3D-02,  8.0D-02,  8.6D-01, r^2= 6.7D+00
   Bfn.  Coefficient  Atom+Function         Bfn.  Coefficient  Atom+Function  
  ----- ------------  ---------------      ----- ------------  ---------------
   163      0.699042  6 F  py                67     -0.565606  3 H  s          
   118      0.460194  5 F  py                86      0.419007  4 H  s          
   162     -0.412415  6 F  px                16     -0.385310  1 N  py         
   159     -0.299772  6 F  py               117     -0.271501  5 F  px         
   114     -0.231469  5 F  py                15      0.227321  1 N  px         

 Vector   29  Occ=0.000000D+00  E= 2.511038D-01  Symmetry=e
              MO Center= -1.3D-02,  5.9D-03, -4.6D-01, r^2= 8.7D+00
   Bfn.  Coefficient  Atom+Function         Bfn.  Coefficient  Atom+Function  
  ----- ------------  ---------------      ----- ------------  ---------------
   162      1.095938  6 F  px               117     -0.911230  5 F  px         
    96      0.543548  4 H  pz                75      0.502681  3 H  px         
    57     -0.376867  2 H  py                86      0.318209  4 H  s          
    58     -0.310903  2 H  pz                56      0.304824  2 H  px         
    11     -0.273995  1 N  px               158     -0.274884  6 F  px         

 Vector   30  Occ=0.000000D+00  E= 2.511038D-01  Symmetry=e
              MO Center=  1.3D-02, -5.9D-03, -4.6D-01, r^2= 8.7D+00
   Bfn.  Coefficient  Atom+Function         Bfn.  Coefficient  Atom+Function  
  ----- ------------  ---------------      ----- ------------  ---------------
   163      1.095938  6 F  py               118     -0.911230  5 F  py         
    95      0.562819  4 H  py                77      0.493318  3 H  pz         
    58     -0.448135  2 H  pz                31      0.344061  1 N  dxy        
    56     -0.288390  2 H  px                67      0.288803  3 H  s          
    12     -0.273995  1 N  py               159     -0.274884  6 F  py         

 Vector   31  Occ=0.000000D+00  E= 2.625657D-01  Symmetry=a1
              MO Center=  3.3D-14,  1.6D-14,  5.6D-01, r^2= 9.8D+00
   Bfn.  Coefficient  Atom+Function         Bfn.  Coefficient  Atom+Function  
  ----- ------------  ---------------      ----- ------------  ---------------
    14     11.460157  1 N  s                161     -5.221052  6 F  s          
    48     -4.281129  2 H  s                 67     -4.281129  3 H  s          
    86     -4.281129  4 H  s                119      3.034595  5 F  pz         
   164      2.843736  6 F  pz               116      2.807246  5 F  s          
    10      1.629009  1 N  s                 17     -0.708295  1 N  pz         

 Vector   32  Occ=0.000000D+00  E= 3.511196D-01  Symmetry=e
              MO Center=  2.5D-01,  9.0D-02, -2.0D+00, r^2= 7.3D+00
   Bfn.  Coefficient  Atom+Function         Bfn.  Coefficient  Atom+Function  
  ----- ------------  ---------------      ----- ------------  ---------------
    86      8.196068  4 H  s                 67     -6.305760  3 H  s          
    15      3.113952  1 N  px                11      3.058786  1 N  px         
    94      2.082081  4 H  px                16     -1.966848  1 N  py         
    12     -1.932004  1 N  py                48     -1.890309  2 H  s          
    76     -1.661018  3 H  py                85      1.499386  4 H  s          

 Vector   33  Occ=0.000000D+00  E= 3.511196D-01  Symmetry=e
              MO Center= -2.5D-01, -9.0D-02, -2.0D+00, r^2= 7.3D+00
   Bfn.  Coefficient  Atom+Function         Bfn.  Coefficient  Atom+Function  
  ----- ------------  ---------------      ----- ------------  ---------------
    48      8.372634  2 H  s                 67     -5.823372  3 H  s          
    16     -3.113952  1 N  py                12     -3.058786  1 N  py         
    86     -2.549262  4 H  s                 15     -1.966848  1 N  px         
    11     -1.932004  1 N  px                56     -1.606915  2 H  px         
    47      1.531687  2 H  s                 57     -1.448747  2 H  py         

 Vector   34  Occ=0.000000D+00  E= 3.713288D-01  Symmetry=e
              MO Center= -1.6D-01, -2.2D-01, -8.8D-01, r^2= 7.4D+00
   Bfn.  Coefficient  Atom+Function         Bfn.  Coefficient  Atom+Function  
  ----- ------------  ---------------      ----- ------------  ---------------
    67      3.060349  3 H  s                 86     -2.793986  4 H  s          
    12      1.203497  1 N  py                11     -1.027669  1 N  px         
    77      0.960759  3 H  pz               118      0.911393  5 F  py         
    96     -0.877137  4 H  pz               117     -0.778240  5 F  px         
    76      0.692995  3 H  py               163     -0.667922  6 F  py         

 Vector   35  Occ=0.000000D+00  E= 3.713288D-01  Symmetry=e
              MO Center=  1.6D-01,  2.2D-01, -8.8D-01, r^2= 7.4D+00
   Bfn.  Coefficient  Atom+Function         Bfn.  Coefficient  Atom+Function  
  ----- ------------  ---------------      ----- ------------  ---------------
    48      3.380002  2 H  s                 86     -1.920678  4 H  s          
    67     -1.459323  3 H  s                 11     -1.203497  1 N  px         
    31     -1.079169  1 N  dxy               58      1.061110  2 H  pz         
    12     -1.027669  1 N  py               117     -0.911393  5 F  px         
   118     -0.778240  5 F  py                49     -0.705159  2 H  s          

 Vector   36  Occ=0.000000D+00  E= 3.978565D-01  Symmetry=a1
              MO Center=  7.8D-14, -1.9D-13, -1.2D+00, r^2= 8.5D+00
   Bfn.  Coefficient  Atom+Function         Bfn.  Coefficient  Atom+Function  
  ----- ------------  ---------------      ----- ------------  ---------------
    14     15.500128  1 N  s                 48     -5.846844  2 H  s          
    67     -5.846844  3 H  s                 86     -5.846844  4 H  s          
    10      3.784887  1 N  s                116     -3.735661  5 F  s          
   161      1.981382  6 F  s                 17     -1.836275  1 N  pz         
    13     -1.393746  1 N  pz               164     -1.263589  6 F  pz         

 Vector   37  Occ=0.000000D+00  E= 4.294516D-01  Symmetry=a1
              MO Center=  9.2D-14,  7.3D-14, -2.4D+00, r^2= 5.9D+00
   Bfn.  Coefficient  Atom+Function         Bfn.  Coefficient  Atom+Function  
  ----- ------------  ---------------      ----- ------------  ---------------
    10      3.562193  1 N  s                119     -2.893741  5 F  pz         
    17     -2.713844  1 N  pz                48     -2.469640  2 H  s          
    67     -2.469640  3 H  s                 86     -2.469640  4 H  s          
   161      2.106849  6 F  s                 13     -2.003299  1 N  pz         
    14      1.539824  1 N  s                 76     -0.991195  3 H  py         

 Vector   38  Occ=0.000000D+00  E= 4.735236D-01  Symmetry=a1
              MO Center= -2.3D-14, -6.6D-14,  1.6D-01, r^2= 7.3D+00
   Bfn.  Coefficient  Atom+Function         Bfn.  Coefficient  Atom+Function  
  ----- ------------  ---------------      ----- ------------  ---------------
   161    -10.443551  6 F  s                 14      9.546228  1 N  s          
   116      8.823038  5 F  s                119      6.322464  5 F  pz         
    10      4.523694  1 N  s                 48     -4.446757  2 H  s          
    67     -4.446757  3 H  s                 86     -4.446757  4 H  s          
   164      4.210787  6 F  pz                76     -0.836888  3 H  py         

 Vector   39  Occ=0.000000D+00  E= 5.097232D-01  Symmetry=a2
              MO Center= -4.0D-14, -5.8D-14, -2.5D+00, r^2= 4.0D+00
   Bfn.  Coefficient  Atom+Function         Bfn.  Coefficient  Atom+Function  
  ----- ------------  ---------------      ----- ------------  ---------------
    75      1.231869  3 H  px                95     -1.231869  4 H  py         
    56     -0.901791  2 H  px                57      0.901791  2 H  py         
    76      0.330078  3 H  py                94     -0.330078  4 H  px         


 center of mass
 --------------
 x =   0.00000000 y =   0.00000000 z =   0.34516092

 moments of inertia (a.u.)
 ------------------
         582.550455105852          -0.000000000000           0.000000000000
          -0.000000000000         582.550455105852           0.000000000000
           0.000000000000           0.000000000000           9.533171786082

     Multipole analysis of the density
     ---------------------------------

     L   x y z        total         alpha         beta         nuclear
     -   - - -        -----         -----         ----         -------
     0   0 0 0     -0.000000    -14.000000    -14.000000     28.000000

     1   1 0 0      0.000000      0.000000      0.000000      0.000000
     1   0 1 0      0.000000      0.000000      0.000000      0.000000
     1   0 0 1     -1.128411     -0.564205     -0.564205     -0.000000

     2   2 0 0    -12.004461     -8.367019     -8.367019      4.729577
     2   1 1 0      0.000000      0.000000      0.000000      0.000000
     2   1 0 1      0.000000      0.000000      0.000000      0.000000
     2   0 2 0    -12.004461     -8.367019     -8.367019      4.729577
     2   0 1 1     -0.000000     -0.000000     -0.000000     -0.000000
     2   0 0 2     -8.100757   -163.462006   -163.462006    318.823255


------------------------------------------------------------
EAF file 0: "./NH3-F2.aoints.0" size=282066944 bytes
------------------------------------------------------------
               write      read    awrite     aread      wait
               -----      ----    ------     -----      ----
     calls:      538        11         0      5907      5907
   data(b): 2.82e+08  5.77e+06  0.00e+00  3.10e+09
   time(s): 0.00e+00  0.00e+00  0.00e+00  0.00e+00  0.00e+00
rate(mb/s): 0.00e+00  0.00e+00
------------------------------------------------------------


 Parallel integral file used     538 records with       0 large values


 Task  times  cpu:       37.7s     wall:       40.8s


                                NWChem Input Module
                                -------------------


 Summary of allocated global arrays
-----------------------------------
  No active global arrays



                         GA Statistics for process    0
                         ------------------------------

       create   destroy   get      put      acc     scatter   gather  read&inc
calls:  322      322     5.82e+04 1.66e+04 2.33e+04    0        0     1802     
number of processes/call 1.00e+00 1.00e+00 1.00e+00 0.00e+00 0.00e+00
bytes total:             3.86e+08 9.65e+07 2.38e+08 0.00e+00 0.00e+00 1.44e+04
bytes remote:            0.00e+00 0.00e+00 0.00e+00 0.00e+00 0.00e+00 0.00e+00
Max memory consumed for GA by this process: 11501568 bytes

MA_summarize_allocated_blocks: starting scan ...
MA_summarize_allocated_blocks: scan completed: 0 heap blocks, 0 stack blocks
MA usage statistics:

	allocation statistics:
					      heap	     stack
					      ----	     -----
	current number of blocks	         0	         0
	maximum number of blocks	        23	        55
	current total bytes		         0	         0
	maximum total bytes		   3086480	  30337640
	maximum total K-bytes		      3087	     30338
	maximum total M-bytes		         4	        31


                                     CITATION
                                     --------
                Please cite the following reference when publishing
                           results obtained with NWChem:

                 M. Valiev, E.J. Bylaska, N. Govind, K. Kowalski,
              T.P. Straatsma, H.J.J. van Dam, D. Wang, J. Nieplocha,
                        E. Apra, T.L. Windus, W.A. de Jong
                 "NWChem: a comprehensive and scalable open-source
                  solution for large scale molecular simulations"
                      Comput. Phys. Commun. 181, 1477 (2010)
                           doi:10.1016/j.cpc.2010.04.018

                                      AUTHORS
                                      -------
          E. Apra, E. J. Bylaska, W. A. de Jong, N. Govind, K. Kowalski,
       T. P. Straatsma, M. Valiev, H. J. J. van Dam, D. Wang, T. L. Windus,
        J. Hammond, J. Autschbach, K. Bhaskaran-Nair, J. Brabec, K. Lopata,
       S. A. Fischer, S. Krishnamoorthy, W. Ma, M. Klemm, O. Villa, Y. Chen,
    V. Anisimov, F. Aquino, S. Hirata, M. T. Hackler, T. Risthaus, M. Malagoli,
       A. Marenich, A. Otero-de-la-Roza, J. Mullin, P. Nichols, R. Peverati,
     J. Pittner, Y. Zhao, P.-D. Fan, A. Fonari, M. Williamson, R. J. Harrison,
       J. R. Rehr, M. Dupuis, D. Silverstein, D. M. A. Smith, J. Nieplocha,
        V. Tipparaju, M. Krishnan, B. E. Van Kuiken, A. Vazquez-Mayagoitia,
        L. Jensen, M. Swart, Q. Wu, T. Van Voorhis, A. A. Auer, M. Nooijen,
      L. D. Crosby, E. Brown, G. Cisneros, G. I. Fann, H. Fruchtl, J. Garza,
        K. Hirao, R. A. Kendall, J. A. Nichols, K. Tsemekhman, K. Wolinski,
     J. Anchell, D. E. Bernholdt, P. Borowski, T. Clark, D. Clerc, H. Dachsel,
   M. J. O. Deegan, K. Dyall, D. Elwood, E. Glendening, M. Gutowski, A. C. Hess,
         J. Jaffe, B. G. Johnson, J. Ju, R. Kobayashi, R. Kutteh, Z. Lin,
   R. Littlefield, X. Long, B. Meng, T. Nakajima, S. Niu, L. Pollack, M. Rosing,
   K. Glaesemann, G. Sandrone, M. Stave, H. Taylor, G. Thomas, J. H. van Lenthe,
                               A. T. Wong, Z. Zhang.

 Total times  cpu:       37.8s     wall:       41.0s
