[1537887741.168214] [r8n3:481  :0]         sys.c:744  MXM  WARN  Conflicting CPU frequencies detected, using: 2499.99
[1537887741.175161] [r8n3:481  :0]         mxm.c:196  MXM  WARN  The 'ulimit -s' on the system is set to 'unlimited'. This may have negative performance implications. Please set the stack size to the default value (10240) 
[1537887741.177395] [r8n3:481  :0]         mxm.c:196  MXM  WARN  The 'ulimit -s' on the system is set to 'unlimited'. This may have negative performance implications. Please set the stack size to the default value (10240) 
 argument  1 = /storage/home/bikashp/nwchem_run/rabeet/hb6/nwrevtpss/NH3-NH3.nw
                                         
                                         


              Northwest Computational Chemistry Package (NWChem) 6.6
              ------------------------------------------------------


                    Environmental Molecular Sciences Laboratory
                       Pacific Northwest National Laboratory
                                Richland, WA 99352

                              Copyright (c) 1994-2015
                       Pacific Northwest National Laboratory
                            Battelle Memorial Institute

             NWChem is an open-source computational chemistry package
                        distributed under the terms of the
                      Educational Community License (ECL) 2.0
             A copy of the license is included with this distribution
                              in the LICENSE.TXT file

                                  ACKNOWLEDGMENT
                                  --------------

            This software and its documentation were developed at the
            EMSL at Pacific Northwest National Laboratory, a multiprogram
            national laboratory, operated for the U.S. Department of Energy
            by Battelle under Contract Number DE-AC05-76RL01830. Support
            for this work was provided by the Department of Energy Office
            of Biological and Environmental Research, Office of Basic
            Energy Sciences, and the Office of Advanced Scientific Computing.


           Job information
           ---------------

    hostname        = r8n3.niserhpc.org
    program         = /home/bikashp/Code/nwchem-6.6_revtpss/bin/LINUX64/nwchem
    date            = Tue Sep 25 20:32:21 2018

    compiled        = Tue_Sep_25_17:05:19_2018
    source          = /home/bikashp/Code/nwchem-6.6_revtpss
    nwchem branch   = 6.6
    nwchem revision = 27746
    ga revision     = 10594
    input           = /storage/home/bikashp/nwchem_run/rabeet/hb6/nwrevtpss/NH3-NH3.nw
    prefix          = NH3-NH3.
    data base       = ./NH3-NH3.db
    status          = startup
    nproc           =        1
    time left       =     -1s



           Memory information
           ------------------

    heap     =   13107196 doubles =    100.0 Mbytes
    stack    =   13107201 doubles =    100.0 Mbytes
    global   =   26214400 doubles =    200.0 Mbytes (distinct from heap & stack)
    total    =   52428797 doubles =    400.0 Mbytes
    verify   = yes
    hardfail = no 


           Directory information
           ---------------------

  0 permanent = .
  0 scratch   = .




                                NWChem Input Module
                                -------------------



 Scaling coordinates for geometry "geometry" by  1.889725989
 (inverse scale =  0.529177249)

 C1  symmetry detected

          ------
          auto-z
          ------
  autoz: The atoms group into disjoint clusters
 cluster   1:    1    2    3    4
 cluster   2:    5    6    7    8
 Connecting clusters   1   2 via atoms    1    8 r = 2.29
  autoz: regenerating connections with new bonds


                             Geometry "geometry" -> ""
                             -------------------------

 Output coordinates in angstroms (scale by  1.889725989 to convert to a.u.)

  No.       Tag          Charge          X              Y              Z
 ---- ---------------- ---------- -------------- -------------- --------------
    1 N                    7.0000     0.00008644    -1.57573687    -0.01440320
    2 H                    1.0000     0.81394327    -2.13589743    -0.24842003
    3 H                    1.0000    -0.00293419    -1.47883692     0.99689418
    4 H                    1.0000    -0.81189678    -2.13659096    -0.25323355
    5 N                    7.0000     0.00008332     1.68984999     0.07460997
    6 H                    1.0000    -0.81267979     2.12038370    -0.35531900
    7 H                    1.0000     0.81184021     2.12140530    -0.35620226
    8 H                    1.0000     0.00053896     0.71074447    -0.20516675

      Atomic Mass 
      ----------- 

      N                 14.003070
      H                  1.007825


 Effective nuclear repulsion energy (a.u.)      39.6568969817

            Nuclear Dipole moment (a.u.) 
            ----------------------------
        X                 Y               Z
 ---------------- ---------------- ----------------
     0.0000000000    -0.0000000000    -0.0000000000



                                Z-matrix (autoz)
                                -------- 

 Units are Angstrom for bonds and degrees for angles

      Type          Name      I     J     K     L     M      Value
      ----------- --------  ----- ----- ----- ----- ----- ----------
    1 Stretch                  1     8                       2.29443
    2 Stretch                  1     2                       1.01534
    3 Stretch                  1     3                       1.01593
    4 Stretch                  1     4                       1.01534
    5 Stretch                  5     6                       1.01527
    6 Stretch                  5     7                       1.01528
    7 Stretch                  5     8                       1.01829
    8 Bend                     1     8     5               159.28362
    9 Bend                     2     1     8               122.03713
   10 Bend                     2     1     3               106.52507
   11 Bend                     2     1     4               106.38324
   12 Bend                     3     1     8                89.29601
   13 Bend                     3     1     4               106.52641
   14 Bend                     4     1     8               122.07773
   15 Bend                     6     5     7               106.26764
   16 Bend                     6     5     8               106.96270
   17 Bend                     7     5     8               106.96339
   18 Torsion                  1     8     5     6        -123.09544
   19 Torsion                  1     8     5     7         123.37463
   20 Torsion                  2     1     8     5        -109.07149
   21 Torsion                  3     1     8     5           0.06815
   22 Torsion                  4     1     8     5         109.21769


            XYZ format geometry
            -------------------
     8
 geometry
 N                     0.00008644    -1.57573687    -0.01440320
 H                     0.81394327    -2.13589743    -0.24842003
 H                    -0.00293419    -1.47883692     0.99689418
 H                    -0.81189678    -2.13659096    -0.25323355
 N                     0.00008332     1.68984999     0.07460997
 H                    -0.81267979     2.12038370    -0.35531900
 H                     0.81184021     2.12140530    -0.35620226
 H                     0.00053896     0.71074447    -0.20516675

 ==============================================================================
                                internuclear distances
 ------------------------------------------------------------------------------
       center one      |      center two      | atomic units |  angstroms
 ------------------------------------------------------------------------------
    2 H                |   1 N                |     1.91871  |     1.01534
    3 H                |   1 N                |     1.91984  |     1.01593
    4 H                |   1 N                |     1.91871  |     1.01534
    6 H                |   5 N                |     1.91859  |     1.01527
    7 H                |   5 N                |     1.91860  |     1.01528
    8 H                |   5 N                |     1.92430  |     1.01829
 ------------------------------------------------------------------------------
                         number of included internuclear distances:          6
 ==============================================================================



 ==============================================================================
                                 internuclear angles
 ------------------------------------------------------------------------------
        center 1       |       center 2       |       center 3       |  degrees
 ------------------------------------------------------------------------------
    2 H                |   1 N                |   3 H                |   106.53
    2 H                |   1 N                |   4 H                |   106.38
    3 H                |   1 N                |   4 H                |   106.53
    6 H                |   5 N                |   7 H                |   106.27
    6 H                |   5 N                |   8 H                |   106.96
    7 H                |   5 N                |   8 H                |   106.96
 ------------------------------------------------------------------------------
                            number of included internuclear angles:          6
 ==============================================================================





 Summary of "ao basis" -> "" (cartesian)
 ------------------------------------------------------------------------------
       Tag                 Description            Shells   Functions and Types
 ---------------- ------------------------------  ------  ---------------------
 *                     6-311++G(3df,3pd)              on all atoms 



                                 NWChem DFT Module
                                 -----------------


                      Basis "ao basis" -> "ao basis" (cartesian)
                      -----
  N (Nitrogen)
  ------------
            Exponent  Coefficients 
       -------------- ---------------------------------------------------------
  1 S  6.29348000E+03  0.001970
  1 S  9.49044000E+02  0.014961
  1 S  2.18776000E+02  0.073501
  1 S  6.36916000E+01  0.248937
  1 S  1.88282000E+01  0.602460
  1 S  2.72023000E+00  0.256202

  2 S  3.06331000E+01  0.111906
  2 S  7.02614000E+00  0.921666
  2 S  2.11205000E+00 -0.002569

  3 P  3.06331000E+01  0.038312
  3 P  7.02614000E+00  0.237403
  3 P  2.11205000E+00  0.817592

  4 S  6.84009000E-01  1.000000

  5 P  6.84009000E-01  1.000000

  6 S  2.00878000E-01  1.000000

  7 P  2.00878000E-01  1.000000

  8 S  6.39000000E-02  1.000000

  9 P  6.39000000E-02  1.000000

 10 D  3.65200000E+00  1.000000

 11 D  9.13000000E-01  1.000000

 12 D  2.28250000E-01  1.000000

 13 F  1.00000000E+00  1.000000

  H (Hydrogen)
  ------------
            Exponent  Coefficients 
       -------------- ---------------------------------------------------------
  1 S  3.38650000E+01  0.025494
  1 S  5.09479000E+00  0.190373
  1 S  1.15879000E+00  0.852161

  2 S  3.25840000E-01  1.000000

  3 S  1.02741000E-01  1.000000

  4 S  3.60000000E-02  1.000000

  5 P  3.00000000E+00  1.000000

  6 P  7.50000000E-01  1.000000

  7 P  1.87500000E-01  1.000000

  8 D  1.00000000E+00  1.000000



 Summary of "ao basis" -> "ao basis" (cartesian)
 ------------------------------------------------------------------------------
       Tag                 Description            Shells   Functions and Types
 ---------------- ------------------------------  ------  ---------------------
 N                     6-311++G(3df,3pd)            13       45   5s4p3d1f
 H                     6-311++G(3df,3pd)             8       19   4s3p1d




 Summary of "ao basis" -> "ao basis" (cartesian)
 ------------------------------------------------------------------------------
       Tag                 Description            Shells   Functions and Types
 ---------------- ------------------------------  ------  ---------------------
 N                     6-311++G(3df,3pd)            13       45   5s4p3d1f
 H                     6-311++G(3df,3pd)             8       19   4s3p1d


  Caching 1-el integrals 

            General Information
            -------------------
          SCF calculation type: DFT
          Wavefunction type:  closed shell.
          No. of atoms     :     8
          No. of electrons :    20
           Alpha electrons :    10
            Beta electrons :    10
          Charge           :     0
          Spin multiplicity:     1
          Use of symmetry is: off; symmetry adaption is: off
          Maximum number of iterations: ***
          AO basis - number of functions:   204
                     number of shells:    74
          Convergence on energy requested: 1.00D-06
          Convergence on density requested: 1.00D-05
          Convergence on gradient requested: 5.00D-04

              XC Information
              --------------
                  TPSS metaGGA Exchange Functional  1.000          
             TPSS03 metaGGA Correlation Functional  1.000          

             Grid Information
             ----------------
          Grid used for XC integration:  medium    
          Radial quadrature: Mura-Knowles        
          Angular quadrature: Lebedev. 
          Tag              B.-S. Rad. Rad. Pts. Rad. Cut. Ang. Pts.
          ---              ---------- --------- --------- ---------
          N                   0.65       49          14.0       434
          H                   0.35       45          15.0       434
          Grid pruning is: on 
          Number of quadrature shells:   368
          Spatial weights used:  Erf1

          Convergence Information
          -----------------------
          Convergence aids based upon iterative change in 
          total energy or number of iterations. 
          Levelshifting, if invoked, occurs when the 
          HOMO/LUMO gap drops below (HL_TOL): 1.00D-02
          DIIS, if invoked, will attempt to extrapolate 
          using up to (NFOCK): 10 stored Fock matrices.

                    Damping( 0%)  Levelshifting(0.5)       DIIS
                  --------------- ------------------- ---------------
          dE  on:    start            ASAP                start   
          dE off:    2 iters        *** iters           *** iters 


      Screening Tolerance Information
      -------------------------------
          Density screening/tol_rho: 1.00D-10
          AO Gaussian exp screening on grid/accAOfunc:  14
          CD Gaussian exp screening on grid/accCDfunc:  20
          XC Gaussian exp screening on grid/accXCfunc:  20
          Schwarz screening/accCoul: 1.00D-08


      Superposition of Atomic Density Guess
      -------------------------------------

 Sum of atomic energies:        -111.61484503

      Non-variational initial energy
      ------------------------------

 Total energy =    -112.439522
 1-e energy   =    -227.875221
 2-e energy   =      75.778802
 HOMO         =      -0.377576
 LUMO         =       0.008490

   Time after variat. SCF:      2.5
   Time prior to 1st pass:      2.5

 Integral file          = ./NH3-NH3.aoints.0
 Record size in doubles =    65536    No. of integs per rec  =    43688
 Max. records in memory =        0    Max. records in file   = ********
 No. of bits per label  =        8    No. of bits per value  =       64


 #quartets = 2.904D+06 #integrals = 1.190D+08 #direct =  0.0% #cached =100.0%


 Grid_pts file          = ./NH3-NH3.gridpts.0
 Record size in doubles =  12289        No. of grid_pts per rec  =   3070
 Max. records in memory =     59        Max. recs in file   = 995168975


           Memory utilization after 1st SCF pass: 
           Heap Space remaining (MW):       12.32            12324132
          Stack Space remaining (MW):       13.11            13105972

   convergence    iter        energy       DeltaE   RMS-Dens  Diis-err    time
 ---------------- ----- ----------------- --------- --------- ---------  ------
 d= 0,ls=0.0,diis     1   -113.0806569522 -1.53D+02  4.69D-03  5.70D-01    35.0
 d= 0,ls=0.0,diis     2   -113.0512646671  2.94D-02  3.29D-03  7.45D-01    46.6
 d= 0,ls=0.0,diis     3   -113.1292251815 -7.80D-02  4.39D-04  6.19D-02    58.5
 d= 0,ls=0.0,diis     4   -113.1349523634 -5.73D-03  1.61D-04  1.10D-03    70.4
 d= 0,ls=0.0,diis     5   -113.1350608441 -1.08D-04  2.99D-05  9.74D-05    81.9
  Resetting Diis
 d= 0,ls=0.0,diis     6   -113.1350676452 -6.80D-06  9.68D-06  2.37D-05    94.0
 d= 0,ls=0.0,diis     7   -113.1350677297 -8.44D-08  2.79D-06  2.09D-07   106.0


         Total DFT energy =     -113.135067729665
      One electron energy =     -230.871866021947
           Coulomb energy =       94.090510916767
          Exchange energy =      -15.352596568250
       Correlation energy =       -0.658013037980
 Nuclear repulsion energy =       39.656896981745

 Numeric. integr. density =       19.999999895161

     Total iterative time =    103.5s



                       DFT Final Molecular Orbital Analysis
                       ------------------------------------

 Vector    1  Occ=2.000000D+00  E=-1.412476D+01
              MO Center=  8.6D-05, -1.6D+00, -1.4D-02, r^2= 2.0D-02
   Bfn.  Coefficient  Atom+Function         Bfn.  Coefficient  Atom+Function  
  ----- ------------  ---------------      ----- ------------  ---------------
     1      0.558220  1 N  s                  2      0.466701  1 N  s          

 Vector    2  Occ=2.000000D+00  E=-1.409028D+01
              MO Center=  8.3D-05,  1.7D+00,  7.4D-02, r^2= 2.0D-02
   Bfn.  Coefficient  Atom+Function         Bfn.  Coefficient  Atom+Function  
  ----- ------------  ---------------      ----- ------------  ---------------
   103      0.558219  5 N  s                104      0.466711  5 N  s          

 Vector    3  Occ=2.000000D+00  E=-8.123755D-01
              MO Center= -1.1D-04, -1.7D+00,  7.5D-02, r^2= 7.4D-01
   Bfn.  Coefficient  Atom+Function         Bfn.  Coefficient  Atom+Function  
  ----- ------------  ---------------      ----- ------------  ---------------
     6      0.502936  1 N  s                 10      0.435550  1 N  s          
     2     -0.191880  1 N  s          

 Vector    4  Occ=2.000000D+00  E=-7.780557D-01
              MO Center= -2.4D-05,  1.7D+00, -1.2D-01, r^2= 7.5D-01
   Bfn.  Coefficient  Atom+Function         Bfn.  Coefficient  Atom+Function  
  ----- ------------  ---------------      ----- ------------  ---------------
   108      0.503952  5 N  s                112      0.428461  5 N  s          
   104     -0.191669  5 N  s          

 Vector    5  Occ=2.000000D+00  E=-4.340405D-01
              MO Center= -1.4D-03, -1.5D+00,  2.2D-01, r^2= 1.3D+00
   Bfn.  Coefficient  Atom+Function         Bfn.  Coefficient  Atom+Function  
  ----- ------------  ---------------      ----- ------------  ---------------
     9      0.273007  1 N  pz                13      0.213095  1 N  pz         
     5      0.191244  1 N  pz                65      0.174229  3 H  s          
    66      0.174042  3 H  s                  8      0.150680  1 N  py         

 Vector    6  Occ=2.000000D+00  E=-4.334349D-01
              MO Center=  1.3D-03, -1.8D+00, -9.7D-02, r^2= 9.8D-01
   Bfn.  Coefficient  Atom+Function         Bfn.  Coefficient  Atom+Function  
  ----- ------------  ---------------      ----- ------------  ---------------
     7      0.316688  1 N  px                11      0.239689  1 N  px         
     3      0.221892  1 N  px                47      0.163696  2 H  s          
    85     -0.163239  4 H  s                 46      0.154444  2 H  s          
    84     -0.154027  4 H  s          

 Vector    7  Occ=2.000000D+00  E=-4.025155D-01
              MO Center= -1.6D-04,  1.9D+00, -1.2D-01, r^2= 9.9D-01
   Bfn.  Coefficient  Atom+Function         Bfn.  Coefficient  Atom+Function  
  ----- ------------  ---------------      ----- ------------  ---------------
   109      0.314213  5 N  px               113      0.235320  5 N  px         
   105      0.220425  5 N  px               149     -0.166222  6 H  s          
   168      0.166170  7 H  s                148     -0.154298  6 H  s          
   167      0.154281  7 H  s          

 Vector    8  Occ=2.000000D+00  E=-3.993933D-01
              MO Center=  1.2D-04,  1.3D+00, -6.6D-02, r^2= 1.4D+00
   Bfn.  Coefficient  Atom+Function         Bfn.  Coefficient  Atom+Function  
  ----- ------------  ---------------      ----- ------------  ---------------
   110      0.307116  5 N  py               114      0.221586  5 N  py         
   106      0.215350  5 N  py               187     -0.206156  8 H  s          
   186     -0.170005  8 H  s          

 Vector    9  Occ=2.000000D+00  E=-2.469582D-01
              MO Center=  2.1D-04, -1.3D+00, -7.5D-02, r^2= 1.3D+00
   Bfn.  Coefficient  Atom+Function         Bfn.  Coefficient  Atom+Function  
  ----- ------------  ---------------      ----- ------------  ---------------
    12      0.346020  1 N  py                 8      0.315118  1 N  py         
     4      0.222808  1 N  py                10      0.214738  1 N  s          
     6      0.179305  1 N  s                 13     -0.172563  1 N  pz         
     9     -0.164516  1 N  pz         

 Vector   10  Occ=2.000000D+00  E=-2.125365D-01
              MO Center=  1.4D-04,  1.7D+00,  2.1D-01, r^2= 1.2D+00
   Bfn.  Coefficient  Atom+Function         Bfn.  Coefficient  Atom+Function  
  ----- ------------  ---------------      ----- ------------  ---------------
   115      0.377923  5 N  pz               111      0.355178  5 N  pz         
   107      0.251395  5 N  pz               112      0.216631  5 N  s          
   108      0.169111  5 N  s                119      0.154372  5 N  pz         

 Vector   11  Occ=0.000000D+00  E=-3.396555D-02
              MO Center= -8.5D-04, -1.6D+00,  1.7D-02, r^2= 1.1D+01
   Bfn.  Coefficient  Atom+Function         Bfn.  Coefficient  Atom+Function  
  ----- ------------  ---------------      ----- ------------  ---------------
    14      1.730808  1 N  s                116      0.733074  5 N  s          
    49     -0.636331  2 H  s                 87     -0.636794  4 H  s          
    68     -0.481899  3 H  s                 10      0.457877  1 N  s          
    48     -0.370709  2 H  s                 67     -0.369149  3 H  s          
    86     -0.369964  4 H  s                188     -0.337411  8 H  s          

 Vector   12  Occ=0.000000D+00  E=-5.181170D-03
              MO Center= -4.6D-04,  1.6D+00, -5.7D-01, r^2= 1.4D+01
   Bfn.  Coefficient  Atom+Function         Bfn.  Coefficient  Atom+Function  
  ----- ------------  ---------------      ----- ------------  ---------------
   116      2.128169  5 N  s                151     -0.980332  6 H  s          
   170     -0.980069  7 H  s                 14     -0.526119  1 N  s          
   112      0.479063  5 N  s                 49      0.453777  2 H  s          
    87      0.453050  4 H  s                188     -0.434010  8 H  s          
   150     -0.402810  6 H  s                169     -0.403186  7 H  s          

 Vector   13  Occ=0.000000D+00  E= 1.054510D-02
              MO Center=  3.3D-03, -1.3D+00, -4.2D-01, r^2= 1.5D+01
   Bfn.  Coefficient  Atom+Function         Bfn.  Coefficient  Atom+Function  
  ----- ------------  ---------------      ----- ------------  ---------------
    49      2.077440  2 H  s                 87     -2.073719  4 H  s          
   151     -1.048928  6 H  s                170      1.048929  7 H  s          
    15     -0.457000  1 N  px               150      0.219098  6 H  s          
   169     -0.217831  7 H  s                117     -0.181822  5 N  px         
    48     -0.162719  2 H  s                 86      0.162309  4 H  s          

 Vector   14  Occ=0.000000D+00  E= 1.832983D-02
              MO Center= -5.8D-03, -1.8D+00,  1.1D+00, r^2= 1.2D+01
   Bfn.  Coefficient  Atom+Function         Bfn.  Coefficient  Atom+Function  
  ----- ------------  ---------------      ----- ------------  ---------------
    68      3.176735  3 H  s                 87     -1.368430  4 H  s          
    49     -1.354394  2 H  s                 67     -0.486213  3 H  s          
   188      0.475446  8 H  s                189     -0.455878  8 H  s          
    17     -0.392421  1 N  pz                77      0.222299  3 H  pz         
    16     -0.220342  1 N  py               112     -0.159860  5 N  s          

 Vector   15  Occ=0.000000D+00  E= 3.309147D-02
              MO Center=  7.4D-04,  1.1D+00, -5.5D-01, r^2= 1.8D+01
   Bfn.  Coefficient  Atom+Function         Bfn.  Coefficient  Atom+Function  
  ----- ------------  ---------------      ----- ------------  ---------------
   151      2.464538  6 H  s                170     -2.461905  7 H  s          
    49      1.633694  2 H  s                 87     -1.625512  4 H  s          
   117      0.590694  5 N  px                15     -0.538568  1 N  px         
    48      0.242946  2 H  s                 86     -0.242540  4 H  s          

 Vector   16  Occ=0.000000D+00  E= 4.835224D-02
              MO Center=  1.7D-03,  6.3D-01, -6.7D-01, r^2= 1.6D+01
   Bfn.  Coefficient  Atom+Function         Bfn.  Coefficient  Atom+Function  
  ----- ------------  ---------------      ----- ------------  ---------------
   189      7.168748  8 H  s                116     -3.517910  5 N  s          
    14     -2.066617  1 N  s                151     -1.931071  6 H  s          
   170     -1.936057  7 H  s                 67      1.107583  3 H  s          
   118      0.933678  5 N  py               150      0.899890  6 H  s          
   169      0.901535  7 H  s                 68     -0.710820  3 H  s          

 Vector   17  Occ=0.000000D+00  E= 9.685490D-02
              MO Center=  4.7D-04,  1.8D-01, -1.3D-01, r^2= 1.4D+01
   Bfn.  Coefficient  Atom+Function         Bfn.  Coefficient  Atom+Function  
  ----- ------------  ---------------      ----- ------------  ---------------
   116      7.626892  5 N  s                 14      7.054803  1 N  s          
   188     -3.571237  8 H  s                 86     -2.773347  4 H  s          
    48     -2.739496  2 H  s                150     -2.415139  6 H  s          
   169     -2.392432  7 H  s                119     -2.182914  5 N  pz         
   112      1.728634  5 N  s                 16     -1.501693  1 N  py         

 Vector   18  Occ=0.000000D+00  E= 1.022035D-01
              MO Center=  8.1D-03, -2.0D-01,  2.2D-01, r^2= 7.9D+00
   Bfn.  Coefficient  Atom+Function         Bfn.  Coefficient  Atom+Function  
  ----- ------------  ---------------      ----- ------------  ---------------
    48      2.959399  2 H  s                 86     -2.928174  4 H  s          
    15     -2.323773  1 N  px               169      1.830659  7 H  s          
   150     -1.818119  6 H  s                117     -1.457853  5 N  px         
    11     -1.050190  1 N  px               170      0.951060  7 H  s          
   151     -0.936117  6 H  s                 49      0.873349  2 H  s          

 Vector   19  Occ=0.000000D+00  E= 1.044783D-01
              MO Center= -8.8D-03, -1.3D+00, -2.2D-01, r^2= 9.1D+00
   Bfn.  Coefficient  Atom+Function         Bfn.  Coefficient  Atom+Function  
  ----- ------------  ---------------      ----- ------------  ---------------
    67     -5.396964  3 H  s                 14      4.910757  1 N  s          
    17      2.945715  1 N  pz                68     -2.168395  3 H  s          
    13      1.331091  1 N  pz               169      1.170164  7 H  s          
   150      1.146111  6 H  s                188     -1.075148  8 H  s          
    66     -0.905610  3 H  s                 77      0.877036  3 H  pz         

 Vector   20  Occ=0.000000D+00  E= 1.156906D-01
              MO Center= -9.9D-04, -4.3D-01,  1.7D-01, r^2= 1.4D+01
   Bfn.  Coefficient  Atom+Function         Bfn.  Coefficient  Atom+Function  
  ----- ------------  ---------------      ----- ------------  ---------------
    14      3.926587  1 N  s                116     -2.522365  5 N  s          
   188      2.476303  8 H  s                 16     -1.363300  1 N  py         
    48     -1.331328  2 H  s                 86     -1.332577  4 H  s          
   119      1.335507  5 N  pz                67      1.300040  3 H  s          
   189      1.283191  8 H  s                 49     -1.039939  2 H  s          

 Vector   21  Occ=0.000000D+00  E= 1.386044D-01
              MO Center= -7.6D-04,  6.6D-01, -3.9D-02, r^2= 1.3D+01
   Bfn.  Coefficient  Atom+Function         Bfn.  Coefficient  Atom+Function  
  ----- ------------  ---------------      ----- ------------  ---------------
   116      2.947350  5 N  s                189      1.672561  8 H  s          
    48     -1.639100  2 H  s                 86     -1.641866  4 H  s          
    16     -1.520336  1 N  py               151     -1.436476  6 H  s          
   170     -1.434060  7 H  s                 10      1.167348  1 N  s          
    67     -0.858872  3 H  s                 14      0.720877  1 N  s          

 Vector   22  Occ=0.000000D+00  E= 1.422399D-01
              MO Center= -2.2D-04,  3.1D-01,  4.1D-02, r^2= 1.5D+01
   Bfn.  Coefficient  Atom+Function         Bfn.  Coefficient  Atom+Function  
  ----- ------------  ---------------      ----- ------------  ---------------
   116      6.330790  5 N  s                 14     -5.413671  1 N  s          
    16      2.940443  1 N  py                48      2.870398  2 H  s          
    86      2.874849  4 H  s                150     -2.594794  6 H  s          
   169     -2.597216  7 H  s                189     -2.413889  8 H  s          
   118      1.764452  5 N  py                10     -1.634207  1 N  s          

 Vector   23  Occ=0.000000D+00  E= 1.478682D-01
              MO Center= -9.3D-04,  6.4D-02,  2.3D-01, r^2= 1.1D+01
   Bfn.  Coefficient  Atom+Function         Bfn.  Coefficient  Atom+Function  
  ----- ------------  ---------------      ----- ------------  ---------------
   189      6.205967  8 H  s                188      5.220546  8 H  s          
   116     -3.610311  5 N  s                 67     -3.458986  3 H  s          
   118      3.123297  5 N  py                14      2.977500  1 N  s          
    16     -1.931688  1 N  py               169     -1.911344  7 H  s          
   150     -1.883197  6 H  s                114      1.617992  5 N  py         

 Vector   24  Occ=0.000000D+00  E= 1.685700D-01
              MO Center= -2.2D-05, -2.1D+00, -3.0D-01, r^2= 8.9D+00
   Bfn.  Coefficient  Atom+Function         Bfn.  Coefficient  Atom+Function  
  ----- ------------  ---------------      ----- ------------  ---------------
    49      2.654243  2 H  s                 87     -2.659034  4 H  s          
    86      1.931182  4 H  s                 48     -1.919608  2 H  s          
    11      1.124310  1 N  px                15     -0.914300  1 N  px         
   117     -0.853914  5 N  px               150     -0.532040  6 H  s          
   169      0.524205  7 H  s                 47     -0.404824  2 H  s          

 Vector   25  Occ=0.000000D+00  E= 1.711876D-01
              MO Center= -2.8D-03,  9.0D-01,  5.0D-01, r^2= 9.6D+00
   Bfn.  Coefficient  Atom+Function         Bfn.  Coefficient  Atom+Function  
  ----- ------------  ---------------      ----- ------------  ---------------
   150      4.880164  6 H  s                169     -4.855892  7 H  s          
    15     -3.312179  1 N  px               117      3.227711  5 N  px         
    86     -3.086145  4 H  s                 48      3.025012  2 H  s          
   113      1.842471  5 N  px                49      1.381918  2 H  s          
    87     -1.350068  4 H  s                 11     -0.885780  1 N  px         

 Vector   26  Occ=0.000000D+00  E= 1.747878D-01
              MO Center=  2.1D-03, -1.5D+00,  6.0D-01, r^2= 1.0D+01
   Bfn.  Coefficient  Atom+Function         Bfn.  Coefficient  Atom+Function  
  ----- ------------  ---------------      ----- ------------  ---------------
    68     -4.016028  3 H  s                 14      3.816244  1 N  s          
   189      2.512753  8 H  s                 48     -2.183590  2 H  s          
    17      2.151474  1 N  pz                86     -2.105687  4 H  s          
    87      1.390827  4 H  s                 49      1.366844  2 H  s          
   118      1.313852  5 N  py               116     -1.119799  5 N  s          

 Vector   27  Occ=0.000000D+00  E= 1.923843D-01
              MO Center=  5.5D-04,  1.9D+00, -2.1D-01, r^2= 1.0D+01
   Bfn.  Coefficient  Atom+Function         Bfn.  Coefficient  Atom+Function  
  ----- ------------  ---------------      ----- ------------  ---------------
   151      3.048766  6 H  s                170     -3.042384  7 H  s          
   117      2.520117  5 N  px                15     -1.513324  1 N  px         
    49      1.181464  2 H  s                 87     -1.182753  4 H  s          
    86     -1.132510  4 H  s                 48      1.114128  2 H  s          
   113     -0.454484  5 N  px                11     -0.345721  1 N  px         

 Vector   28  Occ=0.000000D+00  E= 2.085965D-01
              MO Center=  2.4D-03,  6.7D-01, -4.6D-01, r^2= 8.2D+00
   Bfn.  Coefficient  Atom+Function         Bfn.  Coefficient  Atom+Function  
  ----- ------------  ---------------      ----- ------------  ---------------
   116     10.238672  5 N  s                 14     -7.842434  1 N  s          
   169     -4.855226  7 H  s                150     -4.822083  6 H  s          
   112      3.990299  5 N  s                188     -3.555028  8 H  s          
    48      3.163425  2 H  s                 67      3.144160  3 H  s          
    86      3.143203  4 H  s                119     -1.916422  5 N  pz         

 Vector   29  Occ=0.000000D+00  E= 2.126995D-01
              MO Center=  5.2D-04,  9.3D-01, -6.3D-02, r^2= 8.3D+00
   Bfn.  Coefficient  Atom+Function         Bfn.  Coefficient  Atom+Function  
  ----- ------------  ---------------      ----- ------------  ---------------
   116      7.035788  5 N  s                189     -6.575485  8 H  s          
   150     -2.479593  6 H  s                169     -2.489172  7 H  s          
   118     -2.404713  5 N  py               188     -2.342360  8 H  s          
   151      1.753119  6 H  s                170      1.752475  7 H  s          
   112      1.072348  5 N  s                119     -0.844044  5 N  pz         

 Vector   30  Occ=0.000000D+00  E= 2.680520D-01
              MO Center= -4.9D-03, -1.1D+00,  1.3D-01, r^2= 5.6D+00
   Bfn.  Coefficient  Atom+Function         Bfn.  Coefficient  Atom+Function  
  ----- ------------  ---------------      ----- ------------  ---------------
   169     -1.429196  7 H  s                150      1.344097  6 H  s          
   113      1.109796  5 N  px                11     -0.951762  1 N  px         
    75      0.849824  3 H  px               117      0.723687  5 N  px         
    58      0.648043  2 H  pz                96     -0.648593  4 H  pz         
    86     -0.637127  4 H  s                196     -0.552650  8 H  px         

 Vector   31  Occ=0.000000D+00  E= 2.705375D-01
              MO Center=  3.8D-03,  8.7D-02, -4.5D-02, r^2= 8.6D+00
   Bfn.  Coefficient  Atom+Function         Bfn.  Coefficient  Atom+Function  
  ----- ------------  ---------------      ----- ------------  ---------------
   116     10.841373  5 N  s                 14     10.141938  1 N  s          
   188     -6.373720  8 H  s                189     -5.903479  8 H  s          
    67     -3.572417  3 H  s                 48     -3.413341  2 H  s          
    86     -3.389293  4 H  s                150     -3.067217  6 H  s          
   169     -3.014533  7 H  s                112      2.435841  5 N  s          

 Vector   32  Occ=0.000000D+00  E= 3.154068D-01
              MO Center=  5.7D-03,  2.2D-01, -2.2D-01, r^2= 8.3D+00
   Bfn.  Coefficient  Atom+Function         Bfn.  Coefficient  Atom+Function  
  ----- ------------  ---------------      ----- ------------  ---------------
    14     11.349915  1 N  s                188     -5.242536  8 H  s          
    48     -4.160892  2 H  s                 86     -4.139987  4 H  s          
    67     -3.487773  3 H  s                114     -2.129362  5 N  py         
    10      1.695991  1 N  s                150      1.384307  6 H  s          
   169      1.357591  7 H  s                 68     -0.974858  3 H  s          

 Vector   33  Occ=0.000000D+00  E= 3.355973D-01
              MO Center= -5.0D-03,  3.2D-01, -3.7D-01, r^2= 6.7D+00
   Bfn.  Coefficient  Atom+Function         Bfn.  Coefficient  Atom+Function  
  ----- ------------  ---------------      ----- ------------  ---------------
   169     -2.281119  7 H  s                150      2.259212  6 H  s          
   113      1.718628  5 N  px                86      1.307605  4 H  s          
    15      1.293014  1 N  px                48     -1.252329  2 H  s          
   159     -0.849045  6 H  py               178      0.844726  7 H  py         
   134     -0.818372  5 N  dxz              117      0.690377  5 N  px         

 Vector   34  Occ=0.000000D+00  E= 3.472723D-01
              MO Center= -8.9D-04, -1.6D+00, -1.8D-01, r^2= 6.9D+00
   Bfn.  Coefficient  Atom+Function         Bfn.  Coefficient  Atom+Function  
  ----- ------------  ---------------      ----- ------------  ---------------
    67      9.046380  3 H  s                 13     -3.386335  1 N  pz         
    48     -3.233484  2 H  s                 86     -3.197302  4 H  s          
    17     -3.034572  1 N  pz                14     -2.393217  1 N  s          
    77     -2.317637  3 H  pz                66      1.620610  3 H  s          
    16     -1.574132  1 N  py                12     -1.495704  1 N  py         

 Vector   35  Occ=0.000000D+00  E= 3.603902D-01
              MO Center=  6.4D-04, -6.2D-01,  3.0D-02, r^2= 8.7D+00
   Bfn.  Coefficient  Atom+Function         Bfn.  Coefficient  Atom+Function  
  ----- ------------  ---------------      ----- ------------  ---------------
    48      6.693306  2 H  s                 86     -6.722298  4 H  s          
    11     -3.211139  1 N  px                15     -2.754942  1 N  px         
   150     -2.721243  6 H  s                169      2.708624  7 H  s          
    31      1.774866  1 N  dxy              113     -1.663413  5 N  px         
    56     -1.455395  2 H  px                94     -1.459441  4 H  px         

 Vector   36  Occ=0.000000D+00  E= 3.881414D-01
              MO Center= -6.5D-04,  8.2D-01,  9.1D-02, r^2= 7.8D+00
   Bfn.  Coefficient  Atom+Function         Bfn.  Coefficient  Atom+Function  
  ----- ------------  ---------------      ----- ------------  ---------------
   188     -4.575239  8 H  s                150      4.326426  6 H  s          
   169      4.340625  7 H  s                 14     -3.188206  1 N  s          
   118     -2.981064  5 N  py               114     -2.680278  5 N  py         
    48      2.384466  2 H  s                 86      2.366659  4 H  s          
   116     -2.142445  5 N  s                197     -1.517030  8 H  py         

 Vector   37  Occ=0.000000D+00  E= 4.178642D-01
              MO Center= -9.1D-03,  1.6D+00, -7.8D-02, r^2= 7.4D+00
   Bfn.  Coefficient  Atom+Function         Bfn.  Coefficient  Atom+Function  
  ----- ------------  ---------------      ----- ------------  ---------------
   188      9.847038  8 H  s                116     -8.107053  5 N  s          
    14     -4.339315  1 N  s                114      2.928833  5 N  py         
    86      2.879506  4 H  s                 48      2.805173  2 H  s          
   118      2.518929  5 N  py               189      2.433338  8 H  s          
   197      2.370344  8 H  py                10     -2.238789  1 N  s          

 Vector   38  Occ=0.000000D+00  E= 4.197842D-01
              MO Center=  9.3D-03,  1.2D+00,  2.1D-01, r^2= 9.1D+00
   Bfn.  Coefficient  Atom+Function         Bfn.  Coefficient  Atom+Function  
  ----- ------------  ---------------      ----- ------------  ---------------
   150      7.111951  6 H  s                169     -7.124135  7 H  s          
    48      5.362838  2 H  s                 86     -5.318048  4 H  s          
   117      3.199819  5 N  px                15     -3.108847  1 N  px         
   113      2.918856  5 N  px                11     -2.060028  1 N  px         
   133      1.480813  5 N  dxy              158      1.450800  6 H  px         

 Vector   39  Occ=0.000000D+00  E= 4.578244D-01
              MO Center= -1.1D-03, -2.0D+00,  3.0D-01, r^2= 6.9D+00
   Bfn.  Coefficient  Atom+Function         Bfn.  Coefficient  Atom+Function  
  ----- ------------  ---------------      ----- ------------  ---------------
    14      9.218333  1 N  s                 67     -6.387303  3 H  s          
    10      5.683129  1 N  s                 48     -5.449353  2 H  s          
    86     -5.445636  4 H  s                116     -5.344876  5 N  s          
   188      4.632586  8 H  s                 16     -3.996698  1 N  py         
   189      3.773368  8 H  s                 12     -1.795197  1 N  py         

 Vector   40  Occ=0.000000D+00  E= 4.871070D-01
              MO Center= -7.6D-04,  6.7D-01, -3.7D-01, r^2= 7.1D+00
   Bfn.  Coefficient  Atom+Function         Bfn.  Coefficient  Atom+Function  
  ----- ------------  ---------------      ----- ------------  ---------------
   116     12.189331  5 N  s                150     -7.011165  6 H  s          
   169     -7.013861  7 H  s                 14     -5.387046  1 N  s          
   112      5.332877  5 N  s                188     -3.900407  8 H  s          
    48      2.797224  2 H  s                 86      2.808399  4 H  s          
   119     -2.710359  5 N  pz               115     -2.072213  5 N  pz         

 Vector   41  Occ=0.000000D+00  E= 5.133432D-01
              MO Center=  9.6D-04, -1.4D+00,  2.0D-01, r^2= 5.6D+00
   Bfn.  Coefficient  Atom+Function         Bfn.  Coefficient  Atom+Function  
  ----- ------------  ---------------      ----- ------------  ---------------
    75      1.294277  3 H  px                58     -0.978055  2 H  pz         
    96      0.972662  4 H  pz                48     -0.805836  2 H  s          
    86      0.788773  4 H  s                169      0.752301  7 H  s          
   150     -0.743416  6 H  s                 57     -0.530979  2 H  py         
    95      0.526102  4 H  py               133     -0.428545  5 N  dxy        


 center of mass
 --------------
 x =   0.00006546 y =   0.04400035 z =   0.02321485

 moments of inertia (a.u.)
 ------------------
         347.170293553014          -0.000000000000           0.000000000000
          -0.000000000000          14.868267920019          -0.000000000000
           0.000000000000          -0.000000000000         351.313583539608

     Multipole analysis of the density
     ---------------------------------

     L   x y z        total         alpha         beta         nuclear
     -   - - -        -----         -----         ----         -------
     0   0 0 0     -0.000000    -10.000000    -10.000000     20.000000

     1   1 0 0     -0.000801     -0.000401     -0.000401      0.000000
     1   0 1 0     -0.778006     -0.389003     -0.389003     -0.000000
     1   0 0 1     -0.305579     -0.152790     -0.152790     -0.000000

     2   2 0 0     -9.595843     -9.513908     -9.513908      9.431974
     2   1 1 0     -0.000966     -0.000475     -0.000475     -0.000016
     2   1 0 1     -0.000153     -0.000041     -0.000041     -0.000071
     2   0 2 0     -8.818607   -108.301135   -108.301135    207.783664
     2   0 1 1     -2.170735      0.728811      0.728811     -3.628357
     2   0 0 2    -12.267275     -8.732089     -8.732089      5.196904


------------------------------------------------------------
EAF file 0: "./NH3-NH3.aoints.0" size=1428684800 bytes
------------------------------------------------------------
               write      read    awrite     aread      wait
               -----      ----    ------     -----      ----
     calls:     2725         6         0     16344     16344
   data(b): 1.43e+09  3.15e+06  0.00e+00  8.57e+09
   time(s): 0.00e+00  0.00e+00  0.00e+00  0.00e+00  0.00e+00
rate(mb/s): 0.00e+00  0.00e+00
------------------------------------------------------------


 Parallel integral file used    2725 records with       0 large values


 Task  times  cpu:      106.5s     wall:      115.7s


                                NWChem Input Module
                                -------------------


 Summary of allocated global arrays
-----------------------------------
  No active global arrays



                         GA Statistics for process    0
                         ------------------------------

       create   destroy   get      put      acc     scatter   gather  read&inc
calls:  138      138     6.43e+04 1.07e+04 4.04e+04    0        0     1417     
number of processes/call 1.00e+00 1.00e+00 1.00e+00 0.00e+00 0.00e+00
bytes total:             3.66e+08 4.09e+07 2.37e+08 0.00e+00 0.00e+00 1.13e+04
bytes remote:            0.00e+00 0.00e+00 0.00e+00 0.00e+00 0.00e+00 0.00e+00
Max memory consumed for GA by this process: 12984192 bytes

MA_summarize_allocated_blocks: starting scan ...
MA_summarize_allocated_blocks: scan completed: 0 heap blocks, 0 stack blocks
MA usage statistics:

	allocation statistics:
					      heap	     stack
					      ----	     -----
	current number of blocks	         0	         0
	maximum number of blocks	        22	        51
	current total bytes		         0	         0
	maximum total bytes		   6264352	  26629800
	maximum total K-bytes		      6265	     26630
	maximum total M-bytes		         7	        27


                                     CITATION
                                     --------
                Please cite the following reference when publishing
                           results obtained with NWChem:

                 M. Valiev, E.J. Bylaska, N. Govind, K. Kowalski,
              T.P. Straatsma, H.J.J. van Dam, D. Wang, J. Nieplocha,
                        E. Apra, T.L. Windus, W.A. de Jong
                 "NWChem: a comprehensive and scalable open-source
                  solution for large scale molecular simulations"
                      Comput. Phys. Commun. 181, 1477 (2010)
                           doi:10.1016/j.cpc.2010.04.018

                                      AUTHORS
                                      -------
          E. Apra, E. J. Bylaska, W. A. de Jong, N. Govind, K. Kowalski,
       T. P. Straatsma, M. Valiev, H. J. J. van Dam, D. Wang, T. L. Windus,
        J. Hammond, J. Autschbach, K. Bhaskaran-Nair, J. Brabec, K. Lopata,
       S. A. Fischer, S. Krishnamoorthy, W. Ma, M. Klemm, O. Villa, Y. Chen,
    V. Anisimov, F. Aquino, S. Hirata, M. T. Hackler, T. Risthaus, M. Malagoli,
       A. Marenich, A. Otero-de-la-Roza, J. Mullin, P. Nichols, R. Peverati,
     J. Pittner, Y. Zhao, P.-D. Fan, A. Fonari, M. Williamson, R. J. Harrison,
       J. R. Rehr, M. Dupuis, D. Silverstein, D. M. A. Smith, J. Nieplocha,
        V. Tipparaju, M. Krishnan, B. E. Van Kuiken, A. Vazquez-Mayagoitia,
        L. Jensen, M. Swart, Q. Wu, T. Van Voorhis, A. A. Auer, M. Nooijen,
      L. D. Crosby, E. Brown, G. Cisneros, G. I. Fann, H. Fruchtl, J. Garza,
        K. Hirao, R. A. Kendall, J. A. Nichols, K. Tsemekhman, K. Wolinski,
     J. Anchell, D. E. Bernholdt, P. Borowski, T. Clark, D. Clerc, H. Dachsel,
   M. J. O. Deegan, K. Dyall, D. Elwood, E. Glendening, M. Gutowski, A. C. Hess,
         J. Jaffe, B. G. Johnson, J. Ju, R. Kobayashi, R. Kutteh, Z. Lin,
   R. Littlefield, X. Long, B. Meng, T. Nakajima, S. Niu, L. Pollack, M. Rosing,
   K. Glaesemann, G. Sandrone, M. Stave, H. Taylor, G. Thomas, J. H. van Lenthe,
                               A. T. Wong, Z. Zhang.

 Total times  cpu:      106.6s     wall:      115.9s
