[1537887645.105947] [r8n3:445  :0]         sys.c:744  MXM  WARN  Conflicting CPU frequencies detected, using: 2499.99
[1537887645.112170] [r8n3:445  :0]         mxm.c:196  MXM  WARN  The 'ulimit -s' on the system is set to 'unlimited'. This may have negative performance implications. Please set the stack size to the default value (10240) 
[1537887645.114355] [r8n3:445  :0]         mxm.c:196  MXM  WARN  The 'ulimit -s' on the system is set to 'unlimited'. This may have negative performance implications. Please set the stack size to the default value (10240) 
 argument  1 = /storage/home/bikashp/nwchem_run/rabeet/hb6/nwrevtpss/NH3-H2O.nw
                                         
                                         


              Northwest Computational Chemistry Package (NWChem) 6.6
              ------------------------------------------------------


                    Environmental Molecular Sciences Laboratory
                       Pacific Northwest National Laboratory
                                Richland, WA 99352

                              Copyright (c) 1994-2015
                       Pacific Northwest National Laboratory
                            Battelle Memorial Institute

             NWChem is an open-source computational chemistry package
                        distributed under the terms of the
                      Educational Community License (ECL) 2.0
             A copy of the license is included with this distribution
                              in the LICENSE.TXT file

                                  ACKNOWLEDGMENT
                                  --------------

            This software and its documentation were developed at the
            EMSL at Pacific Northwest National Laboratory, a multiprogram
            national laboratory, operated for the U.S. Department of Energy
            by Battelle under Contract Number DE-AC05-76RL01830. Support
            for this work was provided by the Department of Energy Office
            of Biological and Environmental Research, Office of Basic
            Energy Sciences, and the Office of Advanced Scientific Computing.


           Job information
           ---------------

    hostname        = r8n3.niserhpc.org
    program         = /home/bikashp/Code/nwchem-6.6_revtpss/bin/LINUX64/nwchem
    date            = Tue Sep 25 20:30:45 2018

    compiled        = Tue_Sep_25_17:05:19_2018
    source          = /home/bikashp/Code/nwchem-6.6_revtpss
    nwchem branch   = 6.6
    nwchem revision = 27746
    ga revision     = 10594
    input           = /storage/home/bikashp/nwchem_run/rabeet/hb6/nwrevtpss/NH3-H2O.nw
    prefix          = NH3-H2O.
    data base       = ./NH3-H2O.db
    status          = startup
    nproc           =        1
    time left       =     -1s



           Memory information
           ------------------

    heap     =   13107196 doubles =    100.0 Mbytes
    stack    =   13107201 doubles =    100.0 Mbytes
    global   =   26214400 doubles =    200.0 Mbytes (distinct from heap & stack)
    total    =   52428797 doubles =    400.0 Mbytes
    verify   = yes
    hardfail = no 


           Directory information
           ---------------------

  0 permanent = .
  0 scratch   = .




                                NWChem Input Module
                                -------------------



 Scaling coordinates for geometry "geometry" by  1.889725989
 (inverse scale =  0.529177249)

 C1  symmetry detected

          ------
          auto-z
          ------
  autoz: The atoms group into disjoint clusters
 cluster   1:    1    2    3    4
 cluster   2:    5    6    7
 Connecting clusters   1   2 via atoms    1    6 r = 2.00
  autoz: regenerating connections with new bonds


                             Geometry "geometry" -> ""
                             -------------------------

 Output coordinates in angstroms (scale by  1.889725989 to convert to a.u.)

  No.       Tag          Charge          X              Y              Z
 ---- ---------------- ---------- -------------- -------------- --------------
    1 N                    7.0000     0.00475759     1.39574844     0.00003136
    2 H                    1.0000     0.99165901     1.61139736    -0.10623245
    3 H                    1.0000    -0.47732829     1.87210053    -0.75597891
    4 H                    1.0000    -0.29613662     1.83946421     0.86230065
    5 O                    8.0000     0.07629403    -1.57021777     0.00001203
    6 H                    1.0000    -0.04539616    -0.60599175    -0.00063114
    7 H                    1.0000    -0.81645328    -1.92546728     0.00022607

      Atomic Mass 
      ----------- 

      N                 14.003070
      H                  1.007825
      O                 15.994910


 Effective nuclear repulsion energy (a.u.)      38.6352390965

            Nuclear Dipole moment (a.u.) 
            ----------------------------
        X                 Y               Z
 ---------------- ---------------- ----------------
     0.0000000000     0.0000000000     0.0000000000



                                Z-matrix (autoz)
                                -------- 

 Units are Angstrom for bonds and degrees for angles

      Type          Name      I     J     K     L     M      Value
      ----------- --------  ----- ----- ----- ----- ----- ----------
    1 Stretch                  1     6                       2.00237
    2 Stretch                  1     2                       1.01576
    3 Stretch                  1     3                       1.01532
    4 Stretch                  1     4                       1.01535
    5 Stretch                  5     6                       0.97187
    6 Stretch                  5     7                       0.96083
    7 Bend                     1     6     5               171.37158
    8 Bend                     2     1     6               103.68225
    9 Bend                     2     1     3               106.48836
   10 Bend                     2     1     4               106.49854
   11 Bend                     3     1     6               117.18592
   12 Bend                     3     1     4               106.65491
   13 Bend                     4     1     6               115.45044
   14 Bend                     6     5     7               104.50603
   15 Torsion                  1     6     5     7         179.62039
   16 Torsion                  2     1     6     5           6.56335
   17 Torsion                  3     1     6     5         123.52704
   18 Torsion                  4     1     6     5        -109.51227


            XYZ format geometry
            -------------------
     7
 geometry
 N                     0.00475759     1.39574844     0.00003136
 H                     0.99165901     1.61139736    -0.10623245
 H                    -0.47732829     1.87210053    -0.75597891
 H                    -0.29613662     1.83946421     0.86230065
 O                     0.07629403    -1.57021777     0.00001203
 H                    -0.04539616    -0.60599175    -0.00063114
 H                    -0.81645328    -1.92546728     0.00022607

 ==============================================================================
                                internuclear distances
 ------------------------------------------------------------------------------
       center one      |      center two      | atomic units |  angstroms
 ------------------------------------------------------------------------------
    2 H                |   1 N                |     1.91951  |     1.01576
    3 H                |   1 N                |     1.91867  |     1.01532
    4 H                |   1 N                |     1.91873  |     1.01535
    6 H                |   5 O                |     1.83658  |     0.97187
    7 H                |   5 O                |     1.81571  |     0.96083
 ------------------------------------------------------------------------------
                         number of included internuclear distances:          5
 ==============================================================================



 ==============================================================================
                                 internuclear angles
 ------------------------------------------------------------------------------
        center 1       |       center 2       |       center 3       |  degrees
 ------------------------------------------------------------------------------
    2 H                |   1 N                |   3 H                |   106.49
    2 H                |   1 N                |   4 H                |   106.50
    3 H                |   1 N                |   4 H                |   106.65
    6 H                |   5 O                |   7 H                |   104.51
 ------------------------------------------------------------------------------
                            number of included internuclear angles:          4
 ==============================================================================





 Summary of "ao basis" -> "" (cartesian)
 ------------------------------------------------------------------------------
       Tag                 Description            Shells   Functions and Types
 ---------------- ------------------------------  ------  ---------------------
 *                     6-311++G(3df,3pd)              on all atoms 



                                 NWChem DFT Module
                                 -----------------


                      Basis "ao basis" -> "ao basis" (cartesian)
                      -----
  N (Nitrogen)
  ------------
            Exponent  Coefficients 
       -------------- ---------------------------------------------------------
  1 S  6.29348000E+03  0.001970
  1 S  9.49044000E+02  0.014961
  1 S  2.18776000E+02  0.073501
  1 S  6.36916000E+01  0.248937
  1 S  1.88282000E+01  0.602460
  1 S  2.72023000E+00  0.256202

  2 S  3.06331000E+01  0.111906
  2 S  7.02614000E+00  0.921666
  2 S  2.11205000E+00 -0.002569

  3 P  3.06331000E+01  0.038312
  3 P  7.02614000E+00  0.237403
  3 P  2.11205000E+00  0.817592

  4 S  6.84009000E-01  1.000000

  5 P  6.84009000E-01  1.000000

  6 S  2.00878000E-01  1.000000

  7 P  2.00878000E-01  1.000000

  8 S  6.39000000E-02  1.000000

  9 P  6.39000000E-02  1.000000

 10 D  3.65200000E+00  1.000000

 11 D  9.13000000E-01  1.000000

 12 D  2.28250000E-01  1.000000

 13 F  1.00000000E+00  1.000000

  H (Hydrogen)
  ------------
            Exponent  Coefficients 
       -------------- ---------------------------------------------------------
  1 S  3.38650000E+01  0.025494
  1 S  5.09479000E+00  0.190373
  1 S  1.15879000E+00  0.852161

  2 S  3.25840000E-01  1.000000

  3 S  1.02741000E-01  1.000000

  4 S  3.60000000E-02  1.000000

  5 P  3.00000000E+00  1.000000

  6 P  7.50000000E-01  1.000000

  7 P  1.87500000E-01  1.000000

  8 D  1.00000000E+00  1.000000

  O (Oxygen)
  ----------
            Exponent  Coefficients 
       -------------- ---------------------------------------------------------
  1 S  8.58850000E+03  0.001895
  1 S  1.29723000E+03  0.014386
  1 S  2.99296000E+02  0.070732
  1 S  8.73771000E+01  0.240001
  1 S  2.56789000E+01  0.594797
  1 S  3.74004000E+00  0.280802

  2 S  4.21175000E+01  0.113889
  2 S  9.62837000E+00  0.920811
  2 S  2.85332000E+00 -0.003274

  3 P  4.21175000E+01  0.036511
  3 P  9.62837000E+00  0.237153
  3 P  2.85332000E+00  0.819702

  4 S  9.05661000E-01  1.000000

  5 P  9.05661000E-01  1.000000

  6 S  2.55611000E-01  1.000000

  7 P  2.55611000E-01  1.000000

  8 S  8.45000000E-02  1.000000

  9 P  8.45000000E-02  1.000000

 10 D  5.16000000E+00  1.000000

 11 D  1.29200000E+00  1.000000

 12 D  3.22500000E-01  1.000000

 13 F  1.40000000E+00  1.000000



 Summary of "ao basis" -> "ao basis" (cartesian)
 ------------------------------------------------------------------------------
       Tag                 Description            Shells   Functions and Types
 ---------------- ------------------------------  ------  ---------------------
 N                     6-311++G(3df,3pd)            13       45   5s4p3d1f
 H                     6-311++G(3df,3pd)             8       19   4s3p1d
 O                     6-311++G(3df,3pd)            13       45   5s4p3d1f




 Summary of "ao basis" -> "ao basis" (cartesian)
 ------------------------------------------------------------------------------
       Tag                 Description            Shells   Functions and Types
 ---------------- ------------------------------  ------  ---------------------
 N                     6-311++G(3df,3pd)            13       45   5s4p3d1f
 H                     6-311++G(3df,3pd)             8       19   4s3p1d
 O                     6-311++G(3df,3pd)            13       45   5s4p3d1f


  Caching 1-el integrals 

            General Information
            -------------------
          SCF calculation type: DFT
          Wavefunction type:  closed shell.
          No. of atoms     :     7
          No. of electrons :    20
           Alpha electrons :    10
            Beta electrons :    10
          Charge           :     0
          Spin multiplicity:     1
          Use of symmetry is: off; symmetry adaption is: off
          Maximum number of iterations: ***
          AO basis - number of functions:   185
                     number of shells:    66
          Convergence on energy requested: 1.00D-06
          Convergence on density requested: 1.00D-05
          Convergence on gradient requested: 5.00D-04

              XC Information
              --------------
                  TPSS metaGGA Exchange Functional  1.000          
             TPSS03 metaGGA Correlation Functional  1.000          

             Grid Information
             ----------------
          Grid used for XC integration:  medium    
          Radial quadrature: Mura-Knowles        
          Angular quadrature: Lebedev. 
          Tag              B.-S. Rad. Rad. Pts. Rad. Cut. Ang. Pts.
          ---              ---------- --------- --------- ---------
          N                   0.65       49          13.0       434
          H                   0.35       45          14.0       434
          O                   0.60       49          13.0       434
          Grid pruning is: on 
          Number of quadrature shells:   323
          Spatial weights used:  Erf1

          Convergence Information
          -----------------------
          Convergence aids based upon iterative change in 
          total energy or number of iterations. 
          Levelshifting, if invoked, occurs when the 
          HOMO/LUMO gap drops below (HL_TOL): 1.00D-02
          DIIS, if invoked, will attempt to extrapolate 
          using up to (NFOCK): 10 stored Fock matrices.

                    Damping( 0%)  Levelshifting(0.5)       DIIS
                  --------------- ------------------- ---------------
          dE  on:    start            ASAP                start   
          dE off:    2 iters        *** iters           *** iters 


      Screening Tolerance Information
      -------------------------------
          Density screening/tol_rho: 1.00D-10
          AO Gaussian exp screening on grid/accAOfunc:  14
          CD Gaussian exp screening on grid/accCDfunc:  20
          XC Gaussian exp screening on grid/accXCfunc:  20
          Schwarz screening/accCoul: 1.00D-08


      Superposition of Atomic Density Guess
      -------------------------------------

 Sum of atomic energies:        -131.58484456

      Non-variational initial energy
      ------------------------------

 Total energy =    -132.181270
 1-e energy   =    -254.896776
 2-e energy   =      84.080267
 HOMO         =      -0.393987
 LUMO         =       0.008152

   Time after variat. SCF:      1.5
   Time prior to 1st pass:      1.5

 Integral file          = ./NH3-H2O.aoints.0
 Record size in doubles =    65536    No. of integs per rec  =    43688
 Max. records in memory =        0    Max. records in file   = ********
 No. of bits per label  =        8    No. of bits per value  =       64


 #quartets = 1.950D+06 #integrals = 8.613D+07 #direct =  0.0% #cached =100.0%


 Grid_pts file          = ./NH3-H2O.gridpts.0
 Record size in doubles =  12289        No. of grid_pts per rec  =   3070
 Max. records in memory =     52        Max. recs in file   = 995180029


           Memory utilization after 1st SCF pass: 
           Heap Space remaining (MW):       12.46            12463300
          Stack Space remaining (MW):       13.11            13106084

   convergence    iter        energy       DeltaE   RMS-Dens  Diis-err    time
 ---------------- ----- ----------------- --------- --------- ---------  ------
 d= 0,ls=0.0,diis     1   -132.9413442976 -1.72D+02  5.22D-03  7.24D-01    26.5
 d= 0,ls=0.0,diis     2   -132.8614401489  7.99D-02  3.42D-03  1.54D+00    35.3
 d= 0,ls=0.0,diis     3   -133.0036134577 -1.42D-01  5.17D-04  6.10D-02    44.0
 d= 0,ls=0.0,diis     4   -133.0074831723 -3.87D-03  2.40D-04  8.56D-03    52.8
 d= 0,ls=0.0,diis     5   -133.0081274585 -6.44D-04  7.92D-05  1.24D-03    61.7
  Resetting Diis
 d= 0,ls=0.0,diis     6   -133.0082718754 -1.44D-04  1.09D-05  7.04D-06    70.7
 d= 0,ls=0.0,diis     7   -133.0082690933  2.78D-06  4.13D-06  3.95D-07    78.7
 d= 0,ls=0.0,diis     8   -133.0082696799 -5.87D-07  1.92D-06  5.76D-07    87.5


         Total DFT energy =     -133.008269679941
      One electron energy =     -257.722381313312
           Coulomb energy =      103.385997890735
          Exchange energy =      -16.636522040355
       Correlation energy =       -0.670603313488
 Nuclear repulsion energy =       38.635239096479

 Numeric. integr. density =       20.000001640895

     Total iterative time =     86.0s



                       DFT Final Molecular Orbital Analysis
                       ------------------------------------

 Vector    1  Occ=2.000000D+00  E=-1.888326D+01
              MO Center=  7.6D-02, -1.6D+00,  1.2D-05, r^2= 1.5D-02
   Bfn.  Coefficient  Atom+Function         Bfn.  Coefficient  Atom+Function  
  ----- ------------  ---------------      ----- ------------  ---------------
   103      0.552102  5 O  s                104      0.470213  5 O  s          

 Vector    2  Occ=2.000000D+00  E=-1.413941D+01
              MO Center=  4.8D-03,  1.4D+00,  3.1D-05, r^2= 2.0D-02
   Bfn.  Coefficient  Atom+Function         Bfn.  Coefficient  Atom+Function  
  ----- ------------  ---------------      ----- ------------  ---------------
     1      0.558218  1 N  s                  2      0.466706  1 N  s          

 Vector    3  Occ=2.000000D+00  E=-9.166663D-01
              MO Center= -9.7D-02, -1.5D+00, -5.5D-05, r^2= 5.1D-01
   Bfn.  Coefficient  Atom+Function         Bfn.  Coefficient  Atom+Function  
  ----- ------------  ---------------      ----- ------------  ---------------
   108      0.566140  5 O  s                112      0.532304  5 O  s          
   104     -0.204072  5 O  s          

 Vector    4  Occ=2.000000D+00  E=-8.267471D-01
              MO Center=  3.8D-02,  1.6D+00, -1.1D-05, r^2= 7.1D-01
   Bfn.  Coefficient  Atom+Function         Bfn.  Coefficient  Atom+Function  
  ----- ------------  ---------------      ----- ------------  ---------------
     6      0.503224  1 N  s                 10      0.435544  1 N  s          
     2     -0.192620  1 N  s          

 Vector    5  Occ=2.000000D+00  E=-4.540307D-01
              MO Center= -4.8D-02, -8.1D-01, -1.3D-02, r^2= 2.3D+00
   Bfn.  Coefficient  Atom+Function         Bfn.  Coefficient  Atom+Function  
  ----- ------------  ---------------      ----- ------------  ---------------
   110      0.253698  5 O  py               114      0.191077  5 O  py         
   106      0.181729  5 O  py               109      0.153911  5 O  px         

 Vector    6  Occ=2.000000D+00  E=-4.474331D-01
              MO Center= -1.4D-01,  1.6D+00,  4.9D-02, r^2= 9.7D-01
   Bfn.  Coefficient  Atom+Function         Bfn.  Coefficient  Atom+Function  
  ----- ------------  ---------------      ----- ------------  ---------------
     9      0.317984  1 N  pz                13      0.243024  1 N  pz         
     5      0.222521  1 N  pz                85      0.166227  4 H  s          
    84      0.161050  4 H  s                 66     -0.152413  3 H  s          

 Vector    7  Occ=2.000000D+00  E=-4.450500D-01
              MO Center=  1.5D-01,  9.4D-01, -3.6D-02, r^2= 2.4D+00
   Bfn.  Coefficient  Atom+Function         Bfn.  Coefficient  Atom+Function  
  ----- ------------  ---------------      ----- ------------  ---------------
     7      0.284089  1 N  px                11      0.219527  1 N  px         
     3      0.198669  1 N  px                47      0.165349  2 H  s          
    46      0.163367  2 H  s          

 Vector    8  Occ=2.000000D+00  E=-3.187967D-01
              MO Center=  1.0D-01, -1.3D+00,  2.0D-05, r^2= 1.4D+00
   Bfn.  Coefficient  Atom+Function         Bfn.  Coefficient  Atom+Function  
  ----- ------------  ---------------      ----- ------------  ---------------
   112      0.357860  5 O  s                109      0.299210  5 O  px         
   113      0.260360  5 O  px               105      0.215096  5 O  px         
   108      0.216013  5 O  s                110     -0.157991  5 O  py         

 Vector    9  Occ=2.000000D+00  E=-2.601769D-01
              MO Center=  5.2D-03,  9.0D-01,  4.2D-05, r^2= 1.9D+00
   Bfn.  Coefficient  Atom+Function         Bfn.  Coefficient  Atom+Function  
  ----- ------------  ---------------      ----- ------------  ---------------
    12      0.406317  1 N  py                 8      0.336854  1 N  py         
     4      0.238497  1 N  py                10     -0.189776  1 N  s          
     6     -0.174184  1 N  s                114      0.173763  5 O  py         

 Vector   10  Occ=2.000000D+00  E=-2.354661D-01
              MO Center=  4.1D-02, -1.5D+00, -8.5D-05, r^2= 7.4D-01
   Bfn.  Coefficient  Atom+Function         Bfn.  Coefficient  Atom+Function  
  ----- ------------  ---------------      ----- ------------  ---------------
   111      0.421639  5 O  pz               115      0.392320  5 O  pz         
   107      0.294508  5 O  pz         

 Vector   11  Occ=0.000000D+00  E=-3.950873D-02
              MO Center= -1.5D-01,  1.8D+00, -3.3D-03, r^2= 9.5D+00
   Bfn.  Coefficient  Atom+Function         Bfn.  Coefficient  Atom+Function  
  ----- ------------  ---------------      ----- ------------  ---------------
    14      1.894798  1 N  s                 68     -0.662037  3 H  s          
    87     -0.640070  4 H  s                 49     -0.534794  2 H  s          
    10      0.512512  1 N  s                 48     -0.501245  2 H  s          
    86     -0.420549  4 H  s                 67     -0.416883  3 H  s          
   150     -0.379422  6 H  s                116      0.337519  5 O  s          

 Vector   12  Occ=0.000000D+00  E= 6.680705D-04
              MO Center= -9.8D-01, -1.6D+00, -2.3D-03, r^2= 1.1D+01
   Bfn.  Coefficient  Atom+Function         Bfn.  Coefficient  Atom+Function  
  ----- ------------  ---------------      ----- ------------  ---------------
   170      1.368058  7 H  s                116     -0.930757  5 O  s          
    49     -0.715085  2 H  s                112     -0.351907  5 O  s          
   169      0.291771  7 H  s                 14      0.207031  1 N  s          
    48      0.205201  2 H  s                117      0.198041  5 O  px         
    87     -0.153052  4 H  s          

 Vector   13  Occ=0.000000D+00  E= 1.057184D-02
              MO Center= -6.0D-01,  2.1D+00,  5.8D-02, r^2= 1.2D+01
   Bfn.  Coefficient  Atom+Function         Bfn.  Coefficient  Atom+Function  
  ----- ------------  ---------------      ----- ------------  ---------------
    68      2.544572  3 H  s                 87     -2.463559  4 H  s          
    17      0.581232  1 N  pz         

 Vector   14  Occ=0.000000D+00  E= 1.285205D-02
              MO Center=  7.9D-01,  1.7D+00, -5.1D-02, r^2= 1.2D+01
   Bfn.  Coefficient  Atom+Function         Bfn.  Coefficient  Atom+Function  
  ----- ------------  ---------------      ----- ------------  ---------------
    49      2.745323  2 H  s                 87     -1.518596  4 H  s          
    68     -1.386263  3 H  s                150      0.474343  6 H  s          
   116     -0.448156  5 O  s                 15     -0.433592  1 N  px         
   151      0.328240  6 H  s                 14     -0.298029  1 N  s          
    86      0.230423  4 H  s                 67      0.223838  3 H  s          

 Vector   15  Occ=0.000000D+00  E= 5.364996D-02
              MO Center=  2.3D-01, -4.9D-01, -1.1D-03, r^2= 1.6D+01
   Bfn.  Coefficient  Atom+Function         Bfn.  Coefficient  Atom+Function  
  ----- ------------  ---------------      ----- ------------  ---------------
   151      5.720648  6 H  s                 14     -3.436777  1 N  s          
   170     -3.049131  7 H  s                116     -2.416759  5 O  s          
   150      1.478299  6 H  s                 67      1.278519  3 H  s          
    86      1.276413  4 H  s                 49     -1.258559  2 H  s          
    48      1.176544  2 H  s                 10     -0.887790  1 N  s          

 Vector   16  Occ=0.000000D+00  E= 9.542456D-02
              MO Center= -5.8D-01,  9.4D-01,  6.2D-02, r^2= 7.6D+00
   Bfn.  Coefficient  Atom+Function         Bfn.  Coefficient  Atom+Function  
  ----- ------------  ---------------      ----- ------------  ---------------
    48      4.627112  2 H  s                 15     -3.038993  1 N  px         
    67     -1.996528  3 H  s                 86     -1.899274  4 H  s          
   150     -1.654684  6 H  s                 11     -1.457769  1 N  px         
    49      1.366593  2 H  s                169      1.043239  7 H  s          
    47      0.925193  2 H  s                151     -0.833479  6 H  s          

 Vector   17  Occ=0.000000D+00  E= 1.002215D-01
              MO Center=  7.1D-02,  2.0D+00,  1.0D-03, r^2= 1.2D+01
   Bfn.  Coefficient  Atom+Function         Bfn.  Coefficient  Atom+Function  
  ----- ------------  ---------------      ----- ------------  ---------------
    14     11.101357  1 N  s                 48     -3.096477  2 H  s          
    86     -3.050023  4 H  s                 67     -2.628632  3 H  s          
   150     -1.945666  6 H  s                 16      1.767145  1 N  py         
    49     -1.626491  2 H  s                 10      1.577182  1 N  s          
    87     -1.475833  4 H  s                 68     -1.353352  3 H  s          

 Vector   18  Occ=0.000000D+00  E= 1.022358D-01
              MO Center=  3.4D-01,  9.4D-01, -1.1D-01, r^2= 6.5D+00
   Bfn.  Coefficient  Atom+Function         Bfn.  Coefficient  Atom+Function  
  ----- ------------  ---------------      ----- ------------  ---------------
    67      3.941360  3 H  s                 86     -3.857334  4 H  s          
    17      2.990617  1 N  pz                13      1.469284  1 N  pz         
    68      1.067170  3 H  s                 87     -0.965400  4 H  s          
    85     -0.741663  4 H  s                 66      0.714939  3 H  s          
    14     -0.603558  1 N  s                 96      0.532415  4 H  pz         

 Vector   19  Occ=0.000000D+00  E= 1.277910D-01
              MO Center=  4.4D-01,  7.4D-01,  3.6D-02, r^2= 1.2D+01
   Bfn.  Coefficient  Atom+Function         Bfn.  Coefficient  Atom+Function  
  ----- ------------  ---------------      ----- ------------  ---------------
   150      4.539620  6 H  s                151      4.506725  6 H  s          
    16      3.462362  1 N  py               116     -3.475833  5 O  s          
    67     -2.953530  3 H  s                 86     -2.500933  4 H  s          
   170     -1.812568  7 H  s                 14      1.471431  1 N  s          
    10      1.423142  1 N  s                118     -1.341340  5 O  py         

 Vector   20  Occ=0.000000D+00  E= 1.435085D-01
              MO Center= -6.4D-01, -1.6D+00,  6.0D-03, r^2= 9.0D+00
   Bfn.  Coefficient  Atom+Function         Bfn.  Coefficient  Atom+Function  
  ----- ------------  ---------------      ----- ------------  ---------------
   169      3.348746  7 H  s                150     -2.647348  6 H  s          
    14      1.866857  1 N  s                 48     -1.722584  2 H  s          
   170     -1.418554  7 H  s                118      1.197303  5 O  py         
    67     -1.036867  3 H  s                116      1.028310  5 O  s          
    86     -0.968485  4 H  s                159      0.854638  6 H  py         

 Vector   21  Occ=0.000000D+00  E= 1.626473D-01
              MO Center= -4.2D-01,  2.0D+00, -2.1D-01, r^2= 9.1D+00
   Bfn.  Coefficient  Atom+Function         Bfn.  Coefficient  Atom+Function  
  ----- ------------  ---------------      ----- ------------  ---------------
    68      3.387281  3 H  s                 87     -2.636843  4 H  s          
    17      1.927968  1 N  pz                67     -1.152798  3 H  s          
    49     -0.969105  2 H  s                 14      0.706822  1 N  s          
    13     -0.668196  1 N  pz                15      0.664682  1 N  px         
   150     -0.378208  6 H  s                 11     -0.269967  1 N  px         

 Vector   22  Occ=0.000000D+00  E= 1.633082D-01
              MO Center=  6.0D-01,  1.7D+00,  2.1D-01, r^2= 9.1D+00
   Bfn.  Coefficient  Atom+Function         Bfn.  Coefficient  Atom+Function  
  ----- ------------  ---------------      ----- ------------  ---------------
    49      3.601795  2 H  s                 14     -2.711486  1 N  s          
    87     -2.193248  4 H  s                 86      1.883081  4 H  s          
    15     -1.730741  1 N  px               116     -1.615224  5 O  s          
   150      1.589427  6 H  s                 67      1.568650  3 H  s          
   169      0.864897  7 H  s                 17      0.707180  1 N  pz         

 Vector   23  Occ=0.000000D+00  E= 1.693889D-01
              MO Center=  1.4D-01, -3.5D-01,  1.5D-01, r^2= 8.3D+00
   Bfn.  Coefficient  Atom+Function         Bfn.  Coefficient  Atom+Function  
  ----- ------------  ---------------      ----- ------------  ---------------
    14      5.780383  1 N  s                116      5.563665  5 O  s          
   169     -4.594396  7 H  s                 48     -3.334674  2 H  s          
   150     -3.265511  6 H  s                117     -2.519900  5 O  px         
    67     -2.266306  3 H  s                 86     -2.071080  4 H  s          
    10      1.476580  1 N  s                 16      1.111264  1 N  py         

 Vector   24  Occ=0.000000D+00  E= 1.830032D-01
              MO Center=  2.3D-01, -1.2D+00, -8.6D-02, r^2= 7.4D+00
   Bfn.  Coefficient  Atom+Function         Bfn.  Coefficient  Atom+Function  
  ----- ------------  ---------------      ----- ------------  ---------------
    86      2.220891  4 H  s                 14     -1.605579  1 N  s          
   119      1.342985  5 O  pz                17     -1.300774  1 N  pz         
   150      1.114268  6 H  s                 67     -0.979475  3 H  s          
    48      0.754858  2 H  s                116     -0.734604  5 O  s          
   118     -0.505394  5 O  py               115     -0.413847  5 O  pz         

 Vector   25  Occ=0.000000D+00  E= 1.918332D-01
              MO Center= -7.3D-02, -1.3D+00, -3.0D-02, r^2= 8.3D+00
   Bfn.  Coefficient  Atom+Function         Bfn.  Coefficient  Atom+Function  
  ----- ------------  ---------------      ----- ------------  ---------------
   169      3.560217  7 H  s                116     -2.673080  5 O  s          
   150     -2.506631  6 H  s                151      2.223961  6 H  s          
   118      2.082745  5 O  py                16      1.448317  1 N  py         
   117      1.224831  5 O  px                14      0.778236  1 N  s          
    68     -0.687429  3 H  s                159      0.660896  6 H  py         

 Vector   26  Occ=0.000000D+00  E= 2.262511D-01
              MO Center=  1.4D-01, -7.3D-01, -3.6D-02, r^2= 8.0D+00
   Bfn.  Coefficient  Atom+Function         Bfn.  Coefficient  Atom+Function  
  ----- ------------  ---------------      ----- ------------  ---------------
    14      6.364817  1 N  s                151     -4.390256  6 H  s          
    67     -2.497921  3 H  s                170      2.501512  7 H  s          
   150     -2.395197  6 H  s                 86     -2.204593  4 H  s          
    48     -2.020990  2 H  s                118      1.782419  5 O  py         
   169      1.564314  7 H  s                117      1.462675  5 O  px         

 Vector   27  Occ=0.000000D+00  E= 2.689613D-01
              MO Center= -8.2D-02,  5.6D-01, -2.3D-01, r^2= 7.0D+00
   Bfn.  Coefficient  Atom+Function         Bfn.  Coefficient  Atom+Function  
  ----- ------------  ---------------      ----- ------------  ---------------
   116      8.104378  5 O  s                 14     -4.863719  1 N  s          
   150     -4.137206  6 H  s                169     -3.984480  7 H  s          
    67      2.431822  3 H  s                 86      1.972820  4 H  s          
   117     -1.945601  5 O  px               118      1.617654  5 O  py         
    48      1.558733  2 H  s                151     -1.438335  6 H  s          

 Vector   28  Occ=0.000000D+00  E= 2.747080D-01
              MO Center= -8.5D-02,  3.9D-01,  2.6D-01, r^2= 7.5D+00
   Bfn.  Coefficient  Atom+Function         Bfn.  Coefficient  Atom+Function  
  ----- ------------  ---------------      ----- ------------  ---------------
   116      9.351369  5 O  s                 14     -4.950227  1 N  s          
   150     -4.957158  6 H  s                169     -4.453337  7 H  s          
    86      2.819720  4 H  s                117     -2.236514  5 O  px         
    67      2.042147  3 H  s                118      1.796817  5 O  py         
   151     -1.623803  6 H  s                112      1.463779  5 O  s          

 Vector   29  Occ=0.000000D+00  E= 2.911077D-01
              MO Center=  2.6D-01, -1.7D-01, -8.2D-03, r^2= 8.2D+00
   Bfn.  Coefficient  Atom+Function         Bfn.  Coefficient  Atom+Function  
  ----- ------------  ---------------      ----- ------------  ---------------
    14     15.103254  1 N  s                150     -9.601528  6 H  s          
   116      9.435366  5 O  s                 86     -5.266315  4 H  s          
    67     -5.212095  3 H  s                 48     -4.742509  2 H  s          
   151     -4.537011  6 H  s                 10      3.120797  1 N  s          
   118      2.038809  5 O  py               169     -1.503841  7 H  s          

 Vector   30  Occ=0.000000D+00  E= 3.156142D-01
              MO Center=  2.1D-01,  1.8D-01, -4.6D-03, r^2= 8.8D+00
   Bfn.  Coefficient  Atom+Function         Bfn.  Coefficient  Atom+Function  
  ----- ------------  ---------------      ----- ------------  ---------------
    14     11.265550  1 N  s                 48     -6.687442  2 H  s          
   116     -3.713228  5 O  s                 86     -2.821004  4 H  s          
    67     -2.782362  3 H  s                151      1.917988  6 H  s          
    10      1.843196  1 N  s                118     -1.738105  5 O  py         
    15      1.658872  1 N  px                11      1.362224  1 N  px         

 Vector   31  Occ=0.000000D+00  E= 3.480038D-01
              MO Center=  8.4D-02,  1.1D+00,  2.7D-02, r^2= 6.9D+00
   Bfn.  Coefficient  Atom+Function         Bfn.  Coefficient  Atom+Function  
  ----- ------------  ---------------      ----- ------------  ---------------
    67      8.512975  3 H  s                 86     -5.928843  4 H  s          
    13      3.343613  1 N  pz                17      3.099897  1 N  pz         
    48     -2.509315  2 H  s                 77      1.674435  3 H  pz         
    66      1.481001  3 H  s                 11      1.448687  1 N  px         
    34      1.424730  1 N  dyz               96      1.302952  4 H  pz         

 Vector   32  Occ=0.000000D+00  E= 3.532186D-01
              MO Center= -1.6D-01,  1.0D+00, -1.4D-04, r^2= 7.1D+00
   Bfn.  Coefficient  Atom+Function         Bfn.  Coefficient  Atom+Function  
  ----- ------------  ---------------      ----- ------------  ---------------
    48      7.894139  2 H  s                 86     -6.498931  4 H  s          
    11     -3.201878  1 N  px                15     -2.702728  1 N  px         
    56     -2.171240  2 H  px               116      1.974132  5 O  s          
   169     -1.811454  7 H  s                 67     -1.643257  3 H  s          
    47      1.541219  2 H  s                 13      1.531817  1 N  pz         

 Vector   33  Occ=0.000000D+00  E= 3.970552D-01
              MO Center= -5.8D-01, -1.6D+00,  4.7D-02, r^2= 4.6D+00
   Bfn.  Coefficient  Atom+Function         Bfn.  Coefficient  Atom+Function  
  ----- ------------  ---------------      ----- ------------  ---------------
    86     -2.441943  4 H  s                 67      2.293804  3 H  s          
   179      1.537692  7 H  pz                17      1.402845  1 N  pz         
    48     -1.001245  2 H  s                119     -0.924391  5 O  pz         
    13      0.919167  1 N  pz                14      0.910227  1 N  s          
    34      0.597931  1 N  dyz              116     -0.585168  5 O  s          

 Vector   34  Occ=0.000000D+00  E= 4.059245D-01
              MO Center= -1.2D-01, -4.7D-01, -9.9D-02, r^2= 6.5D+00
   Bfn.  Coefficient  Atom+Function         Bfn.  Coefficient  Atom+Function  
  ----- ------------  ---------------      ----- ------------  ---------------
    14      4.641724  1 N  s                150      3.079801  6 H  s          
   116     -2.930032  5 O  s                 67     -2.802519  3 H  s          
    10      2.157342  1 N  s                118     -2.048248  5 O  py         
    48     -1.778046  2 H  s                 86     -1.737704  4 H  s          
   178      1.123744  7 H  py               114     -0.759198  5 O  py         

 Vector   35  Occ=0.000000D+00  E= 4.415656D-01
              MO Center= -1.8D-01, -7.4D-01, -1.5D-02, r^2= 8.9D+00
   Bfn.  Coefficient  Atom+Function         Bfn.  Coefficient  Atom+Function  
  ----- ------------  ---------------      ----- ------------  ---------------
   150      9.933745  6 H  s                169     -7.615370  7 H  s          
   159     -2.908983  6 H  py               118     -2.807965  5 O  py         
    16      2.671129  1 N  py               116     -2.655530  5 O  s          
    86     -2.346966  4 H  s                 10      2.288330  1 N  s          
   114     -2.233461  5 O  py               151      2.103854  6 H  s          

 Vector   36  Occ=0.000000D+00  E= 4.530893D-01
              MO Center= -1.0D-01,  8.3D-01, -9.8D-04, r^2= 9.4D+00
   Bfn.  Coefficient  Atom+Function         Bfn.  Coefficient  Atom+Function  
  ----- ------------  ---------------      ----- ------------  ---------------
    14      8.190581  1 N  s                169      5.429893  7 H  s          
    10      5.375900  1 N  s                 67     -5.359631  3 H  s          
    86     -5.103902  4 H  s                 48     -4.727668  2 H  s          
    16      3.499102  1 N  py                12      2.533105  1 N  py         
   151      2.339988  6 H  s                159      2.198140  6 H  py         

 Vector   37  Occ=0.000000D+00  E= 4.807870D-01
              MO Center= -1.8D-01,  2.3D-01,  7.6D-02, r^2= 4.5D+00
   Bfn.  Coefficient  Atom+Function         Bfn.  Coefficient  Atom+Function  
  ----- ------------  ---------------      ----- ------------  ---------------
    67      1.430615  3 H  s                 86     -1.229545  4 H  s          
   160      1.226549  6 H  pz                13      1.163571  1 N  pz         
    95      0.896376  4 H  py                76     -0.821816  3 H  py         
    32     -0.577638  1 N  dxz              150      0.552431  6 H  s          
   119     -0.476710  5 O  pz               169     -0.463882  7 H  s          

 Vector   38  Occ=0.000000D+00  E= 5.061861D-01
              MO Center=  8.3D-02,  1.8D+00, -2.8D-03, r^2= 4.0D+00
   Bfn.  Coefficient  Atom+Function         Bfn.  Coefficient  Atom+Function  
  ----- ------------  ---------------      ----- ------------  ---------------
    58      1.261449  2 H  pz                94     -1.150384  4 H  px         
    75      1.020881  3 H  px                77     -0.748336  3 H  pz         
    96     -0.505103  4 H  pz               150      0.241502  6 H  s          
    95      0.211130  4 H  py                76     -0.181554  3 H  py         


 center of mass
 --------------
 x =   0.03442374 y =  -0.14871939 z =   0.00001690

 moments of inertia (a.u.)
 ------------------
         291.048302534648          -0.000000000000           0.000000000001
          -0.000000000000          12.146990529436           0.000000000000
           0.000000000001           0.000000000000         293.648188074914

     Multipole analysis of the density
     ---------------------------------

     L   x y z        total         alpha         beta         nuclear
     -   - - -        -----         -----         ----         -------
     0   0 0 0     -0.000000    -10.000000    -10.000000     20.000000

     1   1 0 0     -0.494948     -0.247474     -0.247474      0.000000
     1   0 1 0      1.283794      0.641897      0.641897      0.000000
     1   0 0 1      0.000019      0.000010      0.000010      0.000000

     2   2 0 0     -9.202902     -8.198063     -8.198063      7.193224
     2   1 1 0      2.376953     -0.324366     -0.324366      3.025685
     2   1 0 1     -0.001366     -0.000678     -0.000678     -0.000009
     2   0 2 0     -9.646670    -88.602481    -88.602481    167.558292
     2   0 1 1     -0.000545      0.000044      0.000044     -0.000634
     2   0 0 2    -10.559390     -7.647940     -7.647940      4.736489


------------------------------------------------------------
EAF file 0: "./NH3-H2O.aoints.0" size=1033895936 bytes
------------------------------------------------------------
               write      read    awrite     aread      wait
               -----      ----    ------     -----      ----
     calls:     1972         7         0     13797     13797
   data(b): 1.03e+09  3.67e+06  0.00e+00  7.23e+09
   time(s): 0.00e+00  0.00e+00  0.00e+00  0.00e+00  0.00e+00
rate(mb/s): 0.00e+00  0.00e+00
------------------------------------------------------------


 Parallel integral file used    1972 records with       0 large values


 Task  times  cpu:       87.9s     wall:       95.2s


                                NWChem Input Module
                                -------------------


 Summary of allocated global arrays
-----------------------------------
  No active global arrays



                         GA Statistics for process    0
                         ------------------------------

       create   destroy   get      put      acc     scatter   gather  read&inc
calls:  147      147     5.33e+04 9370     3.11e+04    0        0     1250     
number of processes/call 1.00e+00 1.00e+00 1.00e+00 0.00e+00 0.00e+00
bytes total:             3.23e+08 3.72e+07 1.98e+08 0.00e+00 0.00e+00 1.00e+04
bytes remote:            0.00e+00 0.00e+00 0.00e+00 0.00e+00 0.00e+00 0.00e+00
Max memory consumed for GA by this process: 10678200 bytes

MA_summarize_allocated_blocks: starting scan ...
MA_summarize_allocated_blocks: scan completed: 0 heap blocks, 0 stack blocks
MA usage statistics:

	allocation statistics:
					      heap	     stack
					      ----	     -----
	current number of blocks	         0	         0
	maximum number of blocks	        22	        51
	current total bytes		         0	         0
	maximum total bytes		   5150992	  29882664
	maximum total K-bytes		      5151	     29883
	maximum total M-bytes		         6	        30


                                     CITATION
                                     --------
                Please cite the following reference when publishing
                           results obtained with NWChem:

                 M. Valiev, E.J. Bylaska, N. Govind, K. Kowalski,
              T.P. Straatsma, H.J.J. van Dam, D. Wang, J. Nieplocha,
                        E. Apra, T.L. Windus, W.A. de Jong
                 "NWChem: a comprehensive and scalable open-source
                  solution for large scale molecular simulations"
                      Comput. Phys. Commun. 181, 1477 (2010)
                           doi:10.1016/j.cpc.2010.04.018

                                      AUTHORS
                                      -------
          E. Apra, E. J. Bylaska, W. A. de Jong, N. Govind, K. Kowalski,
       T. P. Straatsma, M. Valiev, H. J. J. van Dam, D. Wang, T. L. Windus,
        J. Hammond, J. Autschbach, K. Bhaskaran-Nair, J. Brabec, K. Lopata,
       S. A. Fischer, S. Krishnamoorthy, W. Ma, M. Klemm, O. Villa, Y. Chen,
    V. Anisimov, F. Aquino, S. Hirata, M. T. Hackler, T. Risthaus, M. Malagoli,
       A. Marenich, A. Otero-de-la-Roza, J. Mullin, P. Nichols, R. Peverati,
     J. Pittner, Y. Zhao, P.-D. Fan, A. Fonari, M. Williamson, R. J. Harrison,
       J. R. Rehr, M. Dupuis, D. Silverstein, D. M. A. Smith, J. Nieplocha,
        V. Tipparaju, M. Krishnan, B. E. Van Kuiken, A. Vazquez-Mayagoitia,
        L. Jensen, M. Swart, Q. Wu, T. Van Voorhis, A. A. Auer, M. Nooijen,
      L. D. Crosby, E. Brown, G. Cisneros, G. I. Fann, H. Fruchtl, J. Garza,
        K. Hirao, R. A. Kendall, J. A. Nichols, K. Tsemekhman, K. Wolinski,
     J. Anchell, D. E. Bernholdt, P. Borowski, T. Clark, D. Clerc, H. Dachsel,
   M. J. O. Deegan, K. Dyall, D. Elwood, E. Glendening, M. Gutowski, A. C. Hess,
         J. Jaffe, B. G. Johnson, J. Ju, R. Kobayashi, R. Kutteh, Z. Lin,
   R. Littlefield, X. Long, B. Meng, T. Nakajima, S. Niu, L. Pollack, M. Rosing,
   K. Glaesemann, G. Sandrone, M. Stave, H. Taylor, G. Thomas, J. H. van Lenthe,
                               A. T. Wong, Z. Zhang.

 Total times  cpu:       87.9s     wall:       95.4s
