Si                                      
   5.50000000000000     
     0.000000    0.495418    0.495418
     0.495418    0.000000    0.495418
     0.495418    0.495418    0.000000
   Si
     2
Direct
  0.875000  0.875000  0.875000
  0.125000  0.125000  0.125000
 
   48   48   48
  22.950      22.909      22.781      22.556      22.210      21.685      20.934      19.958      18.827      17.674    
  16.668      15.981      15.736      15.981      16.668      17.674      18.827      19.958      20.934      21.685    
  22.210      22.556      22.781      22.909      22.950      22.909      22.781      22.556      22.210      21.685    
  20.934      19.958      18.827      17.674      16.668      15.981      15.736      15.981      16.668      17.674    
  18.827      19.958      20.934      21.685      22.210      22.556      22.781      22.909      22.909      23.007    
  22.998      22.846      22.467      21.786      20.781      19.503      18.087      16.731      15.660      15.068    
  15.068      15.660      16.731      18.087      19.503      20.781      21.786      22.467      22.846      22.998    
  23.007      22.909      22.721      22.457      22.120      21.705      21.200      20.575      19.805      18.909    
  17.961      17.076      16.387      16.009      16.009      16.387      17.076      17.961      18.909      19.805    
  20.575      21.200      21.705      22.120      22.457      22.721      22.781      22.998      23.063      22.871    
  22.319      21.349      19.987      18.351      16.652      15.156      14.126      13.759      14.126      15.156    
  16.652      18.351      19.987      21.349      22.319      22.871      23.063      22.998      22.781      22.457    
  22.052      21.586      21.069      20.503      19.883      19.203      18.456      17.670      16.911      16.270    
  15.840      15.688      15.840      16.270      16.911      17.670      18.456      19.203      19.883      20.503    
  21.069      21.586      22.052      22.457      22.556      22.846      22.871      22.500      21.640      20.279    
  18.505      16.518      14.605      13.089      12.249      12.249      13.089      14.605      16.518      18.505    
  20.279      21.640      22.500      22.871      22.846      22.556      22.120      21.586      20.989      20.355    
  19.700      19.029      18.343      17.646      16.950      16.282      15.697      15.258      15.021      15.021    
  15.258      15.697      16.282      16.950      17.646      18.343      19.029      19.700      20.355      20.989    
  21.586      22.120      22.210      22.467      22.319      21.640      20.376      18.574      16.403      14.145    
  12.155      10.787      10.299      10.787      12.155      14.145      16.403      18.574      20.376      21.640    
  22.319      22.467      22.210      21.705      21.069      20.355      19.603      18.845      18.098      17.370    
  16.663      15.985      15.353      14.799      14.360      14.076      13.978      14.076      14.360      14.799    
  15.353      15.985      16.663      17.370      18.098      18.845      19.603      20.355      21.069      21.705    
  21.685      21.786      21.349      20.279      18.574      16.358      13.884      11.510      9.6309      8.5918    
  8.5918      9.6309      11.510      13.884      16.358      18.574      20.279      21.349      21.786      21.685    
  21.200      20.503      19.700      18.845      17.983      17.146      16.354      15.611      14.922      14.292    
  13.739      13.288      12.966      12.799      12.799      12.966      13.288      13.739      14.292      14.922    
  15.611      16.354      17.146      17.983      18.845      19.700      20.503      21.200      20.934      20.781    
  19.987      18.505      16.403      13.884      11.279      8.9930      7.4247      6.8661      7.4247      8.9930    
  11.279      13.884      16.403      18.505      19.987      20.781      20.934      20.575      19.883      19.029    
  18.098      17.146      16.220      15.351      14.554      13.832      13.187      12.624      12.157      11.804    
  11.584      11.508      11.584      11.804      12.157      12.624      13.187      13.832      14.554      15.351    
  16.220      17.146      18.098      19.029      19.883      20.575      19.958      19.503      18.351      16.518    
  14.145      11.510      8.9930      7.0100      5.9158      5.9158      7.0100      8.9930      11.510      14.145    
  16.518      18.351      19.503      19.958      19.805      19.203      18.343      17.370      16.354      15.351    
  14.406      13.544      12.775      12.099      11.515      11.028      10.647      10.384      10.249      10.249    
  10.384      10.647      11.028      11.515      12.099      12.775      13.544      14.406      15.351      16.354    
  17.370      18.343      19.203      19.805      18.827      18.087      16.652      14.605      12.155      9.6309    
  7.4247      5.9158      5.3794      5.9158      7.4247      9.6309      12.155      14.605      16.652      18.087    
  18.827      18.909      18.456      17.646      16.663      15.611      14.554      13.544      12.619      11.796    
  11.079      10.465      9.9516      9.5421      9.2423      9.0589      8.9971      9.0589      9.2423      9.5421    
  9.9516      10.465      11.079      11.796      12.619      13.544      14.554      15.611      16.663      17.646    
  18.456      18.909      17.674      16.731      15.156      13.089      10.787      8.5918      6.8661      5.9158    
  5.9158      6.8661      8.5918      10.787      13.089      15.156      16.731      17.674      17.961      17.670    
  16.950      15.985      14.922      13.832      12.775      11.796      10.922      10.161      9.5109      8.9677    
  8.5287      8.1949      7.9695      7.8559      7.8559      7.9695      8.1949      8.5287      8.9677      9.5109    
  10.161      10.922      11.796      12.775      13.832      14.922      15.985      16.950      17.670      17.961    
  16.668      15.660      14.126      12.249      10.299      8.5918      7.4247      7.0100      7.4247      8.5918    
  10.299      12.249      14.126      15.660      16.668      17.076      16.911      16.282      15.353      14.292    
  13.187      12.099      11.079      10.161      9.3584      8.6728      8.0985      7.6301      7.2648      7.0026    
  6.8446      6.7918      6.8446      7.0026      7.2648      7.6301      8.0985      8.6728      9.3584      10.161    
  11.079      12.099      13.187      14.292      15.353      16.282      16.911      17.076      15.981      15.068    
  13.759      12.249      10.787      9.6309      8.9930      8.9930      9.6309      10.787      12.249      13.759    
  15.068      15.981      16.387      16.270      15.697      14.799      13.739      12.624      11.515      10.465    
  9.5109      8.6728      7.9544      7.3507      6.8545      6.4604      6.1658      5.9698      5.8718      5.8718    
  5.9698      6.1658      6.4604      6.8545      7.3507      7.9544      8.6728      9.5109      10.465      11.515    
  12.624      13.739      14.799      15.697      16.270      16.387      15.736      15.068      14.126      13.089    
  12.155      11.510      11.279      11.510      12.155      13.089      14.126      15.068      15.736      16.009    
  15.840      15.258      14.360      13.288      12.157      11.028      9.9516      8.9677      8.0985      7.3507    
  6.7200      6.1984      5.7787      5.4559      5.2272      5.0908      5.0455      5.0908      5.2272      5.4559    
  5.7787      6.1984      6.7200      7.3507      8.0985      8.9677      9.9516      11.028      12.157      13.288    
  14.360      15.258      15.840      16.009      15.981      15.660      15.156      14.605      14.145      13.884    
  13.884      14.145      14.605      15.156      15.660      15.981      16.009      15.688      15.021      14.076    
  12.966      11.804      10.647      9.5421      8.5287      7.6301      6.8545      6.1984      5.6534      5.2104    
  4.8628      4.6061      4.4370      4.3531      4.3531      4.4370      4.6061      4.8628      5.2104      5.6534    
  6.1984      6.8545      7.6301      8.5287      9.5421      10.647      11.804      12.966      14.076      15.021    
  15.688      16.009      16.668      16.731      16.652      16.518      16.403      16.358      16.403      16.518    
  16.652      16.731      16.668      16.387      15.840      15.021      13.978      12.799      11.584      10.384    
  9.2423      8.1949      7.2648      6.4604      5.7787      5.2104      4.7454      4.3751      4.0936      3.8964    
  3.7798      3.7412      3.7798      3.8964      4.0936      4.3751      4.7454      5.2104      5.7787      6.4604    
  7.2648      8.1949      9.2423      10.384      11.584      12.799      13.978      15.021      15.840      16.387    
  17.674      18.087      18.351      18.505      18.574      18.574      18.505      18.351      18.087      17.674    
  17.076      16.270      15.258      14.076      12.799      11.508      10.249      9.0589      7.9695      7.0026    
  6.1658      5.4559      4.8628      4.3751      3.9828      3.6784      3.4560      3.3110      3.2396      3.2396    
  3.3110      3.4560      3.6784      3.9828      4.3751      4.8628      5.4559      6.1658      7.0026      7.9695    
  9.0589      10.249      11.508      12.799      14.076      15.258      16.270      17.076      18.827      19.503    
  19.987      20.279      20.376      20.279      19.987      19.503      18.827      17.961      16.911      15.697    
  14.360      12.966      11.584      10.249      8.9971      7.8559      6.8446      5.9698      5.2272      4.6061    
  4.0936      3.6784      3.3512      3.1053      2.9348      2.8348      2.8019      2.8348      2.9348      3.1053    
  3.3512      3.6784      4.0936      4.6061      5.2272      5.9698      6.8446      7.8559      8.9971      10.249    
  11.584      12.966      14.360      15.697      16.911      17.961      19.958      20.781      21.349      21.640    
  21.640      21.349      20.781      19.958      18.909      17.670      16.282      14.799      13.288      11.804    
  10.384      9.0589      7.8559      6.7918      5.8718      5.0908      4.4370      3.8964      3.4560      3.1053    
  2.8361      2.6414      2.5156      2.4540      2.4540      2.5156      2.6414      2.8361      3.1053      3.4560    
  3.8964      4.4370      5.0908      5.8718      6.7918      7.8559      9.0589      10.384      11.804      13.288    
  14.799      16.282      17.670      18.909      20.934      21.786      22.319      22.500      22.319      21.786    
  20.934      19.805      18.456      16.950      15.353      13.739      12.157      10.647      9.2423      7.9695    
  6.8446      5.8718      5.0455      4.3531      3.7798      3.3110      2.9348      2.6414      2.4231      2.2730    
  2.1854      2.1567      2.1854      2.2730      2.4231      2.6414      2.9348      3.3110      3.7798      4.3531    
  5.0455      5.8718      6.8446      7.9695      9.2423      10.647      12.157      13.739      15.353      16.950    
  18.456      19.805      21.685      22.467      22.871      22.871      22.467      21.685      20.575      19.203    
  17.646      15.985      14.292      12.624      11.028      9.5421      8.1949      7.0026      5.9698      5.0908    
  4.3531      3.7412      3.2396      2.8348      2.5156      2.2730      2.0989      1.9870      1.9324      1.9324    
  1.9870      2.0989      2.2730      2.5156      2.8348      3.2396      3.7412      4.3531      5.0908      5.9698    
  7.0026      8.1949      9.5421      11.028      12.624      14.292      15.985      17.646      19.203      20.575    
  22.210      22.846      23.063      22.846      22.210      21.200      19.883      18.343      16.663      14.922    
  13.187      11.515      9.9516      8.5287      7.2648      6.1658      5.2272      4.4370      3.7798      3.2396    
  2.8019      2.4540      2.1854      1.9870      1.8512      1.7722      1.7463      1.7722      1.8512      1.9870    
  2.1854      2.4540      2.8019      3.2396      3.7798      4.4370      5.2272      6.1658      7.2648      8.5287    
  9.9516      11.515      13.187      14.922      16.663      18.343      19.883      21.200      22.556      22.998    
  22.998      22.556      21.705      20.503      19.029      17.370      15.611      13.832      12.099      10.465    
  8.9677      7.6301      6.4604      5.4559      4.6061      3.8964      3.3110      2.8348      2.4540      2.1567    
  1.9324      1.7722      1.6694      1.6191      1.6191      1.6694      1.7722      1.9324      2.1567      2.4540    
  2.8348      3.3110      3.8964      4.6061      5.4559      6.4604      7.6301      8.9677      10.465      12.099    
  13.832      15.611      17.370      19.029      20.503      21.705      22.781      23.007      22.781      22.120    
  21.069      19.700      18.098      16.354      14.554      12.775      11.079      9.5109      8.0985      6.8545    
  5.7787      4.8628      4.0936      3.4560      2.9348      2.5156      2.1854      1.9324      1.7463      1.6191    
  1.5451      1.5208      1.5451      1.6191      1.7463      1.9324      2.1854      2.5156      2.9348      3.4560    
  4.0936      4.8628      5.7787      6.8545      8.0985      9.5109      11.079      12.775      14.554      16.354    
  18.098      19.700      21.069      22.120      22.909      22.909      22.457      21.586      20.355      18.845    
  17.146      15.351      13.544      11.796      10.161      8.6728      7.3507      6.1984      5.2104      4.3751    
  3.6784      3.1053      2.6414      2.2730      1.9870      1.7722      1.6191      1.5208      1.4728      1.4728    
  1.5208      1.6191      1.7722      1.9870      2.2730      2.6414      3.1053      3.6784      4.3751      5.2104    
  6.1984      7.3507      8.6728      10.161      11.796      13.544      15.351      17.146      18.845      20.355    
  21.586      22.457      22.950      22.721      22.052      20.989      19.603      17.983      16.220      14.406    
  12.619      10.922      9.3584      7.9544      6.7200      5.6534      4.7454      3.9828      3.3512      2.8361    
  2.4231      2.0989      1.8512      1.6694      1.5451      1.4728      1.4490      1.4728      1.5451      1.6694    
  1.8512      2.0989      2.4231      2.8361      3.3512      3.9828      4.7454      5.6534      6.7200      7.9544    
  9.3584      10.922      12.619      14.406      16.220      17.983      19.603      20.989      22.052      22.721    
  22.909      22.457      21.586      20.355      18.845      17.146      15.351      13.544      11.796      10.161    
  8.6728      7.3507      6.1984      5.2104      4.3751      3.6784      3.1053      2.6414      2.2730      1.9870    
  1.7722      1.6191      1.5208      1.4728      1.4728      1.5208      1.6191      1.7722      1.9870      2.2730    
  2.6414      3.1053      3.6784      4.3751      5.2104      6.1984      7.3507      8.6728      10.161      11.796    
  13.544      15.351      17.146      18.845      20.355      21.586      22.457      22.909      22.781      22.120    
  21.069      19.700      18.098      16.354      14.554      12.775      11.079      9.5109      8.0985      6.8545    
  5.7787      4.8628      4.0936      3.4560      2.9348      2.5156      2.1854      1.9324      1.7463      1.6191    
  1.5451      1.5208      1.5451      1.6191      1.7463      1.9324      2.1854      2.5156      2.9348      3.4560    
  4.0936      4.8628      5.7787      6.8545      8.0985      9.5109      11.079      12.775      14.554      16.354    
  18.098      19.700      21.069      22.120      22.781      23.007      22.556      21.705      20.503      19.029    
  17.370      15.611      13.832      12.099      10.465      8.9677      7.6301      6.4604      5.4559      4.6061    
  3.8964      3.3110      2.8348      2.4540      2.1567      1.9324      1.7722      1.6694      1.6191      1.6191    
  1.6694      1.7722      1.9324      2.1567      2.4540      2.8348      3.3110      3.8964      4.6061      5.4559    
  6.4604      7.6301      8.9677      10.465      12.099      13.832      15.611      17.370      19.029      20.503    
  21.705      22.556      22.998      22.998      22.210      21.200      19.883      18.343      16.663      14.922    
  13.187      11.515      9.9516      8.5287      7.2648      6.1658      5.2272      4.4370      3.7798      3.2396    
  2.8019      2.4540      2.1854      1.9870      1.8512      1.7722      1.7463      1.7722      1.8512      1.9870    
  2.1854      2.4540      2.8019      3.2396      3.7798      4.4370      5.2272      6.1658      7.2648      8.5287    
  9.9516      11.515      13.187      14.922      16.663      18.343      19.883      21.200      22.210      22.846    
  23.063      22.846      21.685      20.575      19.203      17.646      15.985      14.292      12.624      11.028    
  9.5421      8.1949      7.0026      5.9698      5.0908      4.3531      3.7412      3.2396      2.8348      2.5156    
  2.2730      2.0989      1.9870      1.9324      1.9324      1.9870      2.0989      2.2730      2.5156      2.8348    
  3.2396      3.7412      4.3531      5.0908      5.9698      7.0026      8.1949      9.5421      11.028      12.624    
  14.292      15.985      17.646      19.203      20.575      21.685      22.467      22.871      22.871      22.467    
  20.934      19.805      18.456      16.950      15.353      13.739      12.157      10.647      9.2423      7.9695    
  6.8446      5.8718      5.0455      4.3531      3.7798      3.3110      2.9348      2.6414      2.4231      2.2730    
  2.1854      2.1567      2.1854      2.2730      2.4231      2.6414      2.9348      3.3110      3.7798      4.3531    
  5.0455      5.8718      6.8446      7.9695      9.2423      10.647      12.157      13.739      15.353      16.950    
  18.456      19.805      20.934      21.786      22.319      22.500      22.319      21.786      19.958      18.909    
  17.670      16.282      14.799      13.288      11.804      10.384      9.0589      7.8559      6.7918      5.8718    
  5.0908      4.4370      3.8964      3.4560      3.1053      2.8361      2.6414      2.5156      2.4540      2.4540    
  2.5156      2.6414      2.8361      3.1053      3.4560      3.8964      4.4370      5.0908      5.8718      6.7918    
  7.8559      9.0589      10.384      11.804      13.288      14.799      16.282      17.670      18.909      19.958    
  20.781      21.349      21.640      21.640      21.349      20.781      18.827      17.961      16.911      15.697    
  14.360      12.966      11.584      10.249      8.9971      7.8559      6.8446      5.9698      5.2272      4.6061    
  4.0936      3.6784      3.3512      3.1053      2.9348      2.8348      2.8019      2.8348      2.9348      3.1053    
  3.3512      3.6784      4.0936      4.6061      5.2272      5.9698      6.8446      7.8559      8.9971      10.249    
  11.584      12.966      14.360      15.697      16.911      17.961      18.827      19.503      19.987      20.279    
  20.376      20.279      19.987      19.503      17.674      17.076      16.270      15.258      14.076      12.799    
  11.508      10.249      9.0589      7.9695      7.0026      6.1658      5.4559      4.8628      4.3751      3.9828    
  3.6784      3.4560      3.3110      3.2396      3.2396      3.3110      3.4560      3.6784      3.9828      4.3751    
  4.8628      5.4559      6.1658      7.0026      7.9695      9.0589      10.249      11.508      12.799      14.076    
  15.258      16.270      17.076      17.674      18.087      18.351      18.505      18.574      18.574      18.505    
  18.351      18.087      16.668      16.387      15.840      15.021      13.978      12.799      11.584      10.384    
  9.2423      8.1949      7.2648      6.4604      5.7787      5.2104      4.7454      4.3751      4.0936      3.8964    
  3.7798      3.7412      3.7798      3.8964      4.0936      4.3751      4.7454      5.2104      5.7787      6.4604    
  7.2648      8.1949      9.2423      10.384      11.584      12.799      13.978      15.021      15.840      16.387    
  16.668      16.731      16.652      16.518      16.403      16.358      16.403      16.518      16.652      16.731    
  15.981      16.009      15.688      15.021      14.076      12.966      11.804      10.647      9.5421      8.5287    
  7.6301      6.8545      6.1984      5.6534      5.2104      4.8628      4.6061      4.4370      4.3531      4.3531    
  4.4370      4.6061      4.8628      5.2104      5.6534      6.1984      6.8545      7.6301      8.5287      9.5421    
  10.647      11.804      12.966      14.076      15.021      15.688      16.009      15.981      15.660      15.156    
  14.605      14.145      13.884      13.884      14.145      14.605      15.156      15.660      15.736      16.009    
  15.840      15.258      14.360      13.288      12.157      11.028      9.9516      8.9677      8.0985      7.3507    
  6.7200      6.1984      5.7787      5.4559      5.2272      5.0908      5.0455      5.0908      5.2272      5.4559    
  5.7787      6.1984      6.7200      7.3507      8.0985      8.9677      9.9516      11.028      12.157      13.288    
  14.360      15.258      15.840      16.009      15.736      15.068      14.126      13.089      12.155      11.510    
  11.279      11.510      12.155      13.089      14.126      15.068      15.981      16.387      16.270      15.697    
  14.799      13.739      12.624      11.515      10.465      9.5109      8.6728      7.9544      7.3507      6.8545    
  6.4604      6.1658      5.9698      5.8718      5.8718      5.9698      6.1658      6.4604      6.8545      7.3507    
  7.9544      8.6728      9.5109      10.465      11.515      12.624      13.739      14.799      15.697      16.270    
  16.387      15.981      15.068      13.759      12.249      10.787      9.6309      8.9930      8.9930      9.6309    
  10.787      12.249      13.759      15.068      16.668      17.076      16.911      16.282      15.353      14.292    
  13.187      12.099      11.079      10.161      9.3584      8.6728      8.0985      7.6301      7.2648      7.0026    
  6.8446      6.7918      6.8446      7.0026      7.2648      7.6301      8.0985      8.6728      9.3584      10.161    
  11.079      12.099      13.187      14.292      15.353      16.282      16.911      17.076      16.668      15.660    
  14.126      12.249      10.299      8.5918      7.4247      7.0100      7.4247      8.5918      10.299      12.249    
  14.126      15.660      17.674      17.961      17.670      16.950      15.985      14.922      13.832      12.775    
  11.796      10.922      10.161      9.5109      8.9677      8.5287      8.1949      7.9695      7.8559      7.8559    
  7.9695      8.1949      8.5287      8.9677      9.5109      10.161      10.922      11.796      12.775      13.832    
  14.922      15.985      16.950      17.670      17.961      17.674      16.731      15.156      13.089      10.787    
  8.5918      6.8661      5.9158      5.9158      6.8661      8.5918      10.787      13.089      15.156      16.731    
  18.827      18.909      18.456      17.646      16.663      15.611      14.554      13.544      12.619      11.796    
  11.079      10.465      9.9516      9.5421      9.2423      9.0589      8.9971      9.0589      9.2423      9.5421    
  9.9516      10.465      11.079      11.796      12.619      13.544      14.554      15.611      16.663      17.646    
  18.456      18.909      18.827      18.087      16.652      14.605      12.155      9.6309      7.4247      5.9158    
  5.3794      5.9158      7.4247      9.6309      12.155      14.605      16.652      18.087      19.958      19.805    
  19.203      18.343      17.370      16.354      15.351      14.406      13.544      12.775      12.099      11.515    
  11.028      10.647      10.384      10.249      10.249      10.384      10.647      11.028      11.515      12.099    
  12.775      13.544      14.406      15.351      16.354      17.370      18.343      19.203      19.805      19.958    
  19.503      18.351      16.518      14.145      11.510      8.9930      7.0100      5.9158      5.9158      7.0100    
  8.9930      11.510      14.145      16.518      18.351      19.503      20.934      20.575      19.883      19.029    
  18.098      17.146      16.220      15.351      14.554      13.832      13.187      12.624      12.157      11.804    
  11.584      11.508      11.584      11.804      12.157      12.624      13.187      13.832      14.554      15.351    
  16.220      17.146      18.098      19.029      19.883      20.575      20.934      20.781      19.987      18.505    
  16.403      13.884      11.279      8.9930      7.4247      6.8661      7.4247      8.9930      11.279      13.884    
  16.403      18.505      19.987      20.781      21.685      21.200      20.503      19.700      18.845      17.983    
  17.146      16.354      15.611      14.922      14.292      13.739      13.288      12.966      12.799      12.799    
  12.966      13.288      13.739      14.292      14.922      15.611      16.354      17.146      17.983      18.845    
  19.700      20.503      21.200      21.685      21.786      21.349      20.279      18.574      16.358      13.884    
  11.510      9.6309      8.5918      8.5918      9.6309      11.510      13.884      16.358      18.574      20.279    
  21.349      21.786      22.210      21.705      21.069      20.355      19.603      18.845      18.098      17.370    
  16.663      15.985      15.353      14.799      14.360      14.076      13.978      14.076      14.360      14.799    
  15.353      15.985      16.663      17.370      18.098      18.845      19.603      20.355      21.069      21.705    
  22.210      22.467      22.319      21.640      20.376      18.574      16.403      14.145      12.155      10.787    
  10.299      10.787      12.155      14.145      16.403      18.574      20.376      21.640      22.319      22.467    
  22.556      22.120      21.586      20.989      20.355      19.700      19.029      18.343      17.646      16.950    
  16.282      15.697      15.258      15.021      15.021      15.258      15.697      16.282      16.950      17.646    
  18.343      19.029      19.700      20.355      20.989      21.586      22.120      22.556      22.846      22.871    
  22.500      21.640      20.279      18.505      16.518      14.605      13.089      12.249      12.249      13.089    
  14.605      16.518      18.505      20.279      21.640      22.500      22.871      22.846      22.781      22.457    
  22.052      21.586      21.069      20.503      19.883      19.203      18.456      17.670      16.911      16.270    
  15.840      15.688      15.840      16.270      16.911      17.670      18.456      19.203      19.883      20.503    
  21.069      21.586      22.052      22.457      22.781      22.998      23.063      22.871      22.319      21.349    
  19.987      18.351      16.652      15.156      14.126      13.759      14.126      15.156      16.652      18.351    
  19.987      21.349      22.319      22.871      23.063      22.998      22.909      22.721      22.457      22.120    
  21.705      21.200      20.575      19.805      18.909      17.961      17.076      16.387      16.009      16.009    
  16.387      17.076      17.961      18.909      19.805      20.575      21.200      21.705      22.120      22.457    
  22.721      22.909      23.007      22.998      22.846      22.467      21.786      20.781      19.503      18.087    
  16.731      15.660      15.068      15.068      15.660      16.731      18.087      19.503      20.781      21.786    
  22.467      22.846      22.998      23.007      22.909      23.007      22.998      22.846      22.467      21.786    
  20.781      19.503      18.087      16.731      15.660      15.068      15.068      15.660      16.731      18.087    
  19.503      20.781      21.786      22.467      22.846      22.998      23.007      22.909      22.721      22.457    
  22.120      21.705      21.200      20.575      19.805      18.909      17.961      17.076      16.387      16.009    
  16.009      16.387      17.076      17.961      18.909      19.805      20.575      21.200      21.705      22.120    
  22.457      22.721      23.007      23.224      23.286      23.084      22.512      21.515      20.116      18.438    
  16.695      15.161      14.106      13.729      14.106      15.161      16.695      18.438      20.116      21.515    
  22.512      23.084      23.286      23.224      23.007      22.681      22.272      21.801      21.277      20.702    
  20.073      19.382      18.620      17.818      17.042      16.387      15.946      15.791      15.946      16.387    
  17.042      17.818      18.620      19.382      20.073      20.702      21.277      21.801      22.272      22.681    
  22.998      23.286      23.294      22.886      21.969      20.530      18.660      16.568      14.556      12.961    
  12.078      12.078      12.961      14.556      16.568      18.660      20.530      21.969      22.886      23.294    
  23.286      22.998      22.557      22.015      21.406      20.758      20.086      19.396      18.690      17.972    
  17.252      16.560      15.951      15.493      15.247      15.247      15.493      15.951      16.560      17.252    
  17.972      18.690      19.396      20.086      20.758      21.406      22.015      22.557      22.846      23.084    