Si                                      
   5.50000000000000     
     0.000000    0.497151    0.497151
     0.497151    0.000000    0.497151
     0.497151    0.497151    0.000000
   Si
     2
Direct
  0.875000  0.875000  0.875000
  0.125000  0.125000  0.125000
 
   48   48   48
 0.22958500561E+02 0.22912517444E+02 0.22771319672E+02 0.22525111604E+02 0.22152002623E+02
 0.21594680288E+02 0.20809046251E+02 0.19802163945E+02 0.18645869621E+02 0.17473188981E+02
 0.16454801782E+02 0.15759979761E+02 0.15513133135E+02 0.15759979787E+02 0.16454801829E+02
 0.17473189020E+02 0.18645869616E+02 0.19802163910E+02 0.20809046246E+02 0.21594680352E+02
 0.22152002725E+02 0.22525111676E+02 0.22771319682E+02 0.22912517408E+02 0.22958500511E+02
 0.22912517408E+02 0.22771319682E+02 0.22525111676E+02 0.22152002725E+02 0.21594680352E+02
 0.20809046246E+02 0.19802163910E+02 0.18645869616E+02 0.17473189020E+02 0.16454801829E+02
 0.15759979787E+02 0.15513133135E+02 0.15759979761E+02 0.16454801782E+02 0.17473188981E+02
 0.18645869621E+02 0.19802163945E+02 0.20809046251E+02 0.21594680288E+02 0.22152002623E+02
 0.22525111604E+02 0.22771319672E+02 0.22912517444E+02 0.22912517444E+02 0.22995568712E+02
 0.22963180060E+02 0.22780511543E+02 0.22365095879E+02 0.21646287615E+02 0.20605883873E+02
 0.19299561825E+02 0.17862795870E+02 0.16494224986E+02 0.15416163145E+02 0.14821201977E+02
 0.14821200784E+02 0.15416160706E+02 0.16494223796E+02 0.17862797531E+02 0.19299565245E+02
 0.20605886025E+02 0.21646286645E+02 0.22365093125E+02 0.22780509812E+02 0.22963180247E+02
 0.22995569195E+02 0.22912516833E+02 0.22731556059E+02 0.22464091050E+02 0.22114759939E+02
 0.21680989391E+02 0.21153152642E+02 0.20500630768E+02 0.19701300048E+02 0.18778564711E+02
 0.17807749642E+02 0.16905685826E+02 0.16205173127E+02 0.15821492709E+02 0.15821490684E+02
 0.16205169190E+02 0.16905683823E+02 0.17807750925E+02 0.18778567554E+02 0.19701302306E+02
 0.20500631565E+02 0.21153151882E+02 0.21680987406E+02 0.22114757947E+02 0.22464090514E+02
 0.22731556920E+02 0.22771319672E+02 0.22963180060E+02 0.22995087905E+02 0.22763405118E+02
 0.22168720779E+02 0.21161103001E+02 0.19768130820E+02 0.18111195130E+02 0.16399835818E+02
 0.14898204677E+02 0.13867606940E+02 0.13500460624E+02 0.13867606781E+02 0.14898204554E+02
 0.16399835841E+02 0.18111195172E+02 0.19768130708E+02 0.21161102766E+02 0.22168720602E+02
 0.22763405074E+02 0.22995087900E+02 0.22963180018E+02 0.22771319640E+02 0.22464090521E+02
 0.22066880965E+02 0.21598993490E+02 0.21072094443E+02 0.20489708278E+02 0.19850362739E+02
 0.19147517550E+02 0.18376649291E+02 0.17568144733E+02 0.16790205691E+02 0.16135096550E+02
 0.15695836542E+02 0.15541017530E+02 0.15695836511E+02 0.16135096515E+02 0.16790205690E+02
 0.17568144753E+02 0.18376649264E+02 0.19147517456E+02 0.19850362690E+02 0.20489708405E+02
 0.21072094701E+02 0.21598993693E+02 0.22066881018E+02 0.22464090514E+02 0.22525111604E+02
 0.22780511543E+02 0.22763405118E+02 0.22346413158E+02 0.21445149438E+02 0.20050546805E+02
 0.18254278399E+02 0.16255905862E+02 0.14340972856E+02 0.12827317320E+02 0.11990381348E+02
 0.11990380718E+02 0.12827316388E+02 0.14340972486E+02 0.16255904828E+02 0.18254275828E+02
 0.20050544965E+02 0.21445151010E+02 0.22346416616E+02 0.22763406284E+02 0.22780509775E+02
 0.22525110719E+02 0.22114759926E+02 0.21598995184E+02 0.21010815082E+02 0.20376486077E+02
 0.19713076999E+02 0.19028340693E+02 0.18325220829E+02 0.17610047167E+02 0.16895132302E+02
 0.16210510332E+02 0.15610625145E+02 0.15160876623E+02 0.14919135773E+02 0.14919137943E+02
 0.15160880555E+02 0.15610626890E+02 0.16210509681E+02 0.16895131312E+02 0.17610045871E+02
 0.18325218197E+02 0.19028338532E+02 0.19713078523E+02 0.20376490466E+02 0.21010817565E+02
 0.21598993693E+02 0.22114757947E+02 0.22152002623E+02 0.22365095879E+02 0.22168720779E+02
 0.21445149438E+02 0.20144994688E+02 0.18318856845E+02 0.16136294232E+02 0.13878671402E+02
 0.11896665108E+02 0.10536050680E+02 0.10051285398E+02 0.10536050945E+02 0.11896665213E+02
 0.13878671166E+02 0.16136293958E+02 0.18318856792E+02 0.20144994691E+02 0.21445149267E+02
 0.22168720548E+02 0.22365095810E+02 0.22152002647E+02 0.21680987295E+02 0.21072094480E+02
 0.20376490362E+02 0.19633924982E+02 0.18875768461E+02 0.18122038657E+02 0.17382266447E+02
 0.16661363832E+02 0.15968279598E+02 0.15322968382E+02 0.14756241555E+02 0.14307018870E+02
 0.14016531020E+02 0.13915868242E+02 0.14016530992E+02 0.14307018882E+02 0.14756241595E+02
 0.15322968354E+02 0.15968279518E+02 0.16661363862E+02 0.17382266649E+02 0.18122038852E+02
 0.18875768478E+02 0.19633924932E+02 0.20376490466E+02 0.21072094701E+02 0.21680987406E+02
 0.21594680288E+02 0.21646287615E+02 0.21161103001E+02 0.20050546805E+02 0.18318856845E+02
 0.16090628440E+02 0.13618097436E+02 0.11254533722E+02 0.93896386300E+01 0.83596301779E+01
 0.83596331510E+01 0.93896437944E+01 0.11254535628E+02 0.13618096683E+02 0.16090628851E+02
 0.18318857944E+02 0.20050545054E+02 0.21161099188E+02 0.21646286544E+02 0.21594682609E+02
 0.21153152547E+02 0.20489705382E+02 0.19713077043E+02 0.18875772673E+02 0.18022427155E+02
 0.17186636582E+02 0.16388346225E+02 0.15636327709E+02 0.14935265015E+02 0.14293914669E+02
 0.13730031270E+02 0.13269696516E+02 0.12941848869E+02 0.12770975280E+02 0.12770973042E+02
 0.12941845317E+02 0.13269695770E+02 0.13730031874E+02 0.14293913481E+02 0.14935264131E+02
 0.15636331190E+02 0.16388351700E+02 0.17186637129E+02 0.18022421827E+02 0.18875768478E+02
 0.19713078523E+02 0.20489708405E+02 0.21153151882E+02 0.20809046251E+02 0.20605883873E+02
 0.19768130820E+02 0.18254278399E+02 0.16136294232E+02 0.13618097436E+02 0.11025611867E+02
 0.87581664738E+01 0.72056376051E+01 0.66532292033E+01 0.72056374917E+01 0.87581664741E+01
 0.11025611991E+02 0.13618097416E+02 0.16136293978E+02 0.18254278179E+02 0.19768130825E+02
 0.20605883927E+02 0.20809046146E+02 0.20500631411E+02 0.19850362671E+02 0.19028338546E+02
 0.18122038691E+02 0.17186636885E+02 0.16268556137E+02 0.15400015610E+02 0.14597897408E+02
 0.13868227639E+02 0.13214037784E+02 0.12642433567E+02 0.12167471900E+02 0.11808141491E+02
 0.11583359564E+02 0.11506785789E+02 0.11583359685E+02 0.11808141523E+02 0.12167471791E+02
 0.12642433525E+02 0.13214037924E+02 0.13868227757E+02 0.14597897300E+02 0.15400015428E+02
 0.16268556176E+02 0.17186637129E+02 0.18122038852E+02 0.19028338532E+02 0.19850362690E+02
 0.20500631565E+02 0.19802163945E+02 0.19299561825E+02 0.18111195130E+02 0.16255905862E+02
 0.13878671402E+02 0.11254533722E+02 0.87581664738E+01 0.67960246432E+01 0.57149528605E+01
 0.57149483335E+01 0.67960166330E+01 0.87581634784E+01 0.11254535654E+02 0.13878672388E+02
 0.16255904874E+02 0.18111196257E+02 0.19299565321E+02 0.19802165060E+02 0.19701300014E+02
 0.19147516726E+02 0.18325220822E+02 0.17382266983E+02 0.16388346266E+02 0.15400010517E+02
 0.14461391084E+02 0.13599709776E+02 0.12826564347E+02 0.12144287789E+02 0.11553821280E+02
 0.11060156581E+02 0.10673380058E+02 0.10406048696E+02 0.10269218545E+02 0.10269221095E+02
 0.10406052226E+02 0.10673379594E+02 0.11060155111E+02 0.11553823877E+02 0.12144291286E+02
 0.12826561577E+02 0.13599702205E+02 0.14461388086E+02 0.15400015428E+02 0.16388351700E+02
 0.17382266649E+02 0.18325218197E+02 0.19147517456E+02 0.19701302306E+02 0.18645869621E+02
 0.17862795870E+02 0.16399835818E+02 0.14340972856E+02 0.11896665108E+02 0.93896386300E+01
 0.72056376051E+01 0.57149528605E+01 0.51854628471E+01 0.57149530009E+01 0.72056375862E+01
 0.93896385197E+01 0.11896665273E+02 0.14340973222E+02 0.16399835930E+02 0.17862795715E+02
 0.18645869634E+02 0.18778567792E+02 0.18376649330E+02 0.17610045718E+02 0.16661363897E+02
 0.15636331483E+02 0.14597897444E+02 0.13599702083E+02 0.12679315175E+02 0.11856225925E+02
 0.11135852022E+02 0.10517031480E+02 0.99989751779E+01 0.95847549809E+01 0.92809166165E+01
 0.90948741870E+01 0.90321853030E+01 0.90948742486E+01 0.92809165771E+01 0.95847548929E+01
 0.99989752065E+01 0.10517031494E+02 0.11135851801E+02 0.11856225656E+02 0.12679315181E+02
 0.13599702205E+02 0.14597897300E+02 0.15636331190E+02 0.16661363862E+02 0.17610045871E+02
 0.18376649264E+02 0.18778567554E+02 0.17473188981E+02 0.16494224986E+02 0.14898204677E+02
 0.12827317320E+02 0.10536050680E+02 0.83596301779E+01 0.66532292033E+01 0.57149483335E+01
 0.57149530009E+01 0.66532374599E+01 0.83596333098E+01 0.10536048840E+02 0.12827316493E+02
 0.14898205808E+02 0.16494223916E+02 0.17473185466E+02 0.17807749637E+02 0.17568146808E+02
 0.16895132362E+02 0.15968278208E+02 0.14935265148E+02 0.13868232862E+02 0.12826564353E+02
 0.11856220841E+02 0.10984851585E+02 0.10223082399E+02 0.95706922503E+01 0.90240572069E+01
 0.85813717665E+01 0.82442020503E+01 0.80162351266E+01 0.79011653186E+01 0.79011627453E+01
 0.80162317028E+01 0.82442030441E+01 0.85813739606E+01 0.90240545143E+01 0.95706871406E+01
 0.10223083090E+02 0.10984858733E+02 0.11856225656E+02 0.12826561577E+02 0.13868227757E+02
 0.14935264131E+02 0.15968279518E+02 0.16895131312E+02 0.17568144753E+02 0.17807750925E+02
 0.16454801782E+02 0.15416163145E+02 0.13867606940E+02 0.11990381348E+02 0.10051285398E+02
 0.83596331510E+01 0.72056374917E+01 0.67960166330E+01 0.72056375862E+01 0.83596333098E+01
 0.10051285512E+02 0.11990381341E+02 0.13867606909E+02 0.15416163223E+02 0.16454801920E+02
 0.16905683890E+02 0.16790205705E+02 0.16210509746E+02 0.15322968430E+02 0.14293913484E+02
 0.13214037943E+02 0.12144291456E+02 0.11135852022E+02 0.10223083159E+02 0.94222118656E+01
 0.87356766657E+01 0.81592121195E+01 0.76880389722E+01 0.73199519972E+01 0.70553401852E+01
 0.68957111070E+01 0.68423466700E+01 0.68957110310E+01 0.70553401797E+01 0.73199520509E+01
 0.76880389245E+01 0.81592119821E+01 0.87356766182E+01 0.94222119084E+01 0.10223083090E+02
 0.11135851801E+02 0.12144291286E+02 0.13214037924E+02 0.14293913481E+02 0.15322968354E+02
 0.16210509681E+02 0.16790205690E+02 0.16905683823E+02 0.15759979761E+02 0.14821201977E+02
 0.13500460624E+02 0.11990380718E+02 0.10536050945E+02 0.93896437944E+01 0.87581664741E+01
 0.87581634784E+01 0.93896385197E+01 0.10536048840E+02 0.11990381341E+02 0.13500460244E+02
 0.14821200881E+02 0.15759981368E+02 0.16205173141E+02 0.16135098409E+02 0.15610625193E+02
 0.14756239526E+02 0.13730031316E+02 0.12642432316E+02 0.11553821389E+02 0.10517031714E+02
 0.95706922749E+01 0.87356817439E+01 0.80175071791E+01 0.74124912613E+01 0.69142782769E+01
 0.65179715779E+01 0.62212327246E+01 0.60234429280E+01 0.59245546498E+01 0.59245568261E+01
 0.60234458476E+01 0.62212318152E+01 0.65179693388E+01 0.69142801511E+01 0.74124960015E+01
 0.80175079643E+01 0.87356766182E+01 0.95706871406E+01 0.10517031494E+02 0.11553823877E+02
 0.12642433525E+02 0.13730031874E+02 0.14756241595E+02 0.15610626890E+02 0.16135096515E+02
 0.16205169190E+02 0.15513133135E+02 0.14821200784E+02 0.13867606781E+02 0.12827316388E+02
 0.11896665213E+02 0.11254535628E+02 0.11025611991E+02 0.11254535654E+02 0.11896665273E+02
 0.12827316493E+02 0.13867606909E+02 0.14821200881E+02 0.15513133165E+02 0.15821490673E+02
 0.15695836503E+02 0.15160880575E+02 0.14307018958E+02 0.13269695923E+02 0.12167471964E+02
 0.11060155198E+02 0.99989752082E+01 0.90240545639E+01 0.81592121319E+01 0.74124961106E+01
 0.67811793254E+01 0.62581041504E+01 0.58364510387E+01 0.55116788216E+01 0.52812488092E+01
 0.51436547933E+01 0.50979146813E+01 0.51436548911E+01 0.52812488302E+01 0.55116787308E+01
 0.58364510016E+01 0.62581042329E+01 0.67811793697E+01 0.74124960015E+01 0.81592119821E+01
 0.90240545143E+01 0.99989752065E+01 0.11060155111E+02 0.12167471791E+02 0.13269695770E+02
 0.14307018882E+02 0.15160880555E+02 0.15695836511E+02 0.15821490684E+02 0.15759979787E+02
 0.15416160706E+02 0.14898204554E+02 0.14340972486E+02 0.13878671166E+02 0.13618096683E+02
 0.13618097416E+02 0.13878672388E+02 0.14340973222E+02 0.14898205808E+02 0.15416163223E+02
 0.15759981368E+02 0.15821490673E+02 0.15541013194E+02 0.14919135735E+02 0.14016532941E+02
 0.12941848989E+02 0.11808143863E+02 0.10673380138E+02 0.95847542290E+01 0.85813717689E+01
 0.76880355910E+01 0.69142782442E+01 0.62581056984E+01 0.57118440776E+01 0.52671768168E+01
 0.49177128589E+01 0.46592063543E+01 0.44887315459E+01 0.44041253587E+01 0.44041241432E+01
 0.44887298054E+01 0.46592066108E+01 0.49177139816E+01 0.52671758150E+01 0.57118411150E+01
 0.62581042329E+01 0.69142801511E+01 0.76880389245E+01 0.85813739606E+01 0.95847548929E+01
 0.10673379594E+02 0.11808141523E+02 0.12941845317E+02 0.14016530992E+02 0.14919137943E+02
 0.15541017530E+02 0.15821492709E+02 0.16454801829E+02 0.16494223796E+02 0.16399835841E+02
 0.16255904828E+02 0.16136293958E+02 0.16090628851E+02 0.16136293978E+02 0.16255904874E+02
 0.16399835930E+02 0.16494223916E+02 0.16454801920E+02 0.16205173141E+02 0.15695836503E+02
 0.14919135735E+02 0.13915868209E+02 0.12770972996E+02 0.11583359670E+02 0.10406052298E+02
 0.92809166972E+01 0.82442031050E+01 0.73199520217E+01 0.65179692985E+01 0.58364510144E+01
 0.52671758526E+01 0.48005252686E+01 0.44284587525E+01 0.41451598872E+01 0.39463644095E+01
 0.38287072602E+01 0.37897881664E+01 0.38287072401E+01 0.39463643819E+01 0.41451598739E+01
 0.44284587542E+01 0.48005252545E+01 0.52671758150E+01 0.58364510016E+01 0.65179693388E+01
 0.73199520509E+01 0.82442030441E+01 0.92809165771E+01 0.10406052226E+02 0.11583359685E+02
 0.12770973042E+02 0.13915868242E+02 0.14919135773E+02 0.15695836542E+02 0.16205173127E+02
 0.17473189020E+02 0.17862797531E+02 0.18111195172E+02 0.18254275828E+02 0.18318856792E+02
 0.18318857944E+02 0.18254278179E+02 0.18111196257E+02 0.17862795715E+02 0.17473185466E+02
 0.16905683890E+02 0.16135098409E+02 0.15160880575E+02 0.14016532941E+02 0.12770972996E+02
 0.11506781386E+02 0.10269218580E+02 0.90948754981E+01 0.80162351752E+01 0.70553430951E+01
 0.62212327451E+01 0.55116780966E+01 0.49177128904E+01 0.44284579219E+01 0.40343226313E+01
 0.37279968378E+01 0.35039438880E+01 0.33576551148E+01 0.32855522024E+01 0.32855523635E+01
 0.33576554785E+01 0.35039442474E+01 0.37279971566E+01 0.40343230995E+01 0.44284587542E+01
 0.49177139816E+01 0.55116787308E+01 0.62212318152E+01 0.70553401797E+01 0.80162317028E+01
 0.90948742486E+01 0.10269221095E+02 0.11506785789E+02 0.12770975280E+02 0.14016531020E+02
 0.15160876623E+02 0.16135096550E+02 0.16905685826E+02 0.18645869616E+02 0.19299565245E+02
 0.19768130708E+02 0.20050544965E+02 0.20144994691E+02 0.20050545054E+02 0.19768130825E+02
 0.19299565321E+02 0.18645869634E+02 0.17807749637E+02 0.16790205705E+02 0.15610625193E+02
 0.14307018958E+02 0.12941848989E+02 0.11583359670E+02 0.10269218580E+02 0.90321852866E+01
 0.79011627603E+01 0.68957110965E+01 0.60234458820E+01 0.52812487876E+01 0.46592065688E+01
 0.41451599073E+01 0.37279972079E+01 0.33989267502E+01 0.31511623070E+01 0.29791262887E+01
 0.28781436817E+01 0.28448913473E+01 0.28781436266E+01 0.29791262789E+01 0.31511623610E+01
 0.33989267704E+01 0.37279971566E+01 0.41451598739E+01 0.46592066108E+01 0.52812488302E+01
 0.60234458476E+01 0.68957110310E+01 0.79011627453E+01 0.90321853030E+01 0.10269218545E+02
 0.11583359564E+02 0.12941848869E+02 0.14307018870E+02 0.15610625145E+02 0.16790205691E+02
 0.17807749642E+02 0.19802163910E+02 0.20605886025E+02 0.21161102766E+02 0.21445151010E+02
 0.21445149267E+02 0.21161099188E+02 0.20605883927E+02 0.19802165060E+02 0.18778567792E+02
 0.17568146808E+02 0.16210509746E+02 0.14756239526E+02 0.13269695923E+02 0.11808143863E+02
 0.10406052298E+02 0.90948754981E+01 0.79011627603E+01 0.68423424713E+01 0.59245546086E+01
 0.51436557161E+01 0.44887315181E+01 0.39463648235E+01 0.35039438277E+01 0.31511627244E+01
 0.28799333854E+01 0.26836220257E+01 0.25565650924E+01 0.24943031965E+01 0.24943036582E+01
 0.25565655850E+01 0.26836213711E+01 0.28799321463E+01 0.31511623610E+01 0.35039442474E+01
 0.39463643819E+01 0.44887298054E+01 0.51436548911E+01 0.59245568261E+01 0.68423466700E+01
 0.79011653186E+01 0.90948741870E+01 0.10406048696E+02 0.11808141491E+02 0.13269696516E+02
 0.14756241555E+02 0.16210510332E+02 0.17568144733E+02 0.18778564711E+02 0.20809046246E+02
 0.21646286645E+02 0.22168720602E+02 0.22346416616E+02 0.22168720548E+02 0.21646286544E+02
 0.20809046146E+02 0.19701300014E+02 0.18376649330E+02 0.16895132362E+02 0.15322968430E+02
 0.13730031316E+02 0.12167471964E+02 0.10673380138E+02 0.92809166972E+01 0.80162351752E+01
 0.68957110965E+01 0.59245546086E+01 0.50979146833E+01 0.44041242047E+01 0.38287072794E+01
 0.33576554376E+01 0.29791262233E+01 0.26836213858E+01 0.24633625124E+01 0.23117255218E+01
 0.22232522787E+01 0.21942085439E+01 0.22232523323E+01 0.23117255342E+01 0.24633624654E+01
 0.26836213711E+01 0.29791262789E+01 0.33576554785E+01 0.38287072401E+01 0.44041241432E+01
 0.50979146813E+01 0.59245546498E+01 0.68957111070E+01 0.80162351266E+01 0.92809166165E+01
 0.10673380058E+02 0.12167471900E+02 0.13730031270E+02 0.15322968382E+02 0.16895132302E+02
 0.18376649291E+02 0.19701300048E+02 0.21594680352E+02 0.22365093125E+02 0.22763405074E+02
 0.22763406284E+02 0.22365095810E+02 0.21594682609E+02 0.20500631411E+02 0.19147516726E+02
 0.17610045718E+02 0.15968278208E+02 0.14293913484E+02 0.12642432316E+02 0.11060155198E+02
 0.95847542290E+01 0.82442031050E+01 0.70553430951E+01 0.60234458820E+01 0.51436557161E+01
 0.44041242047E+01 0.37897868438E+01 0.32855522420E+01 0.28781440039E+01 0.25565651248E+01
 0.23117243874E+01 0.21359369590E+01 0.20227981001E+01 0.19675261476E+01 0.19675257231E+01
 0.20227976062E+01 0.21359374799E+01 0.23117255342E+01 0.25565655850E+01 0.28781436266E+01
 0.32855523635E+01 0.37897881664E+01 0.44041253587E+01 0.51436547933E+01 0.60234429280E+01
 0.70553401852E+01 0.82442020503E+01 0.95847549809E+01 0.11060156581E+02 0.12642433567E+02
 0.14293914669E+02 0.15968279598E+02 0.17610047167E+02 0.19147517550E+02 0.20500630768E+02
 0.22152002725E+02 0.22780509812E+02 0.22995087900E+02 0.22780509775E+02 0.22152002647E+02
 0.21153152547E+02 0.19850362671E+02 0.18325220822E+02 0.16661363897E+02 0.14935265148E+02
 0.13214037943E+02 0.11553821389E+02 0.99989752082E+01 0.85813717689E+01 0.73199520217E+01
 0.62212327451E+01 0.52812487876E+01 0.44887315181E+01 0.38287072794E+01 0.32855522420E+01
 0.28448913482E+01 0.24943036377E+01 0.22232523484E+01 0.20227976437E+01 0.18854927505E+01
 0.18055797441E+01 0.17793675950E+01 0.18055797796E+01 0.18854927543E+01 0.20227976062E+01
 0.22232523323E+01 0.24943036582E+01 0.28448913473E+01 0.32855522024E+01 0.38287072602E+01
 0.44887315459E+01 0.52812488092E+01 0.62212327246E+01 0.73199519972E+01 0.85813717665E+01
 0.99989751779E+01 0.11553821280E+02 0.13214037784E+02 0.14935265015E+02 0.16661363832E+02
 0.18325220829E+02 0.19850362739E+02 0.21153152642E+02 0.22525111676E+02 0.22963180247E+02
 0.22963180018E+02 0.22525110719E+02 0.21680987295E+02 0.20489705382E+02 0.19028338546E+02
 0.17382266983E+02 0.15636331483E+02 0.13868232862E+02 0.12144291456E+02 0.10517031714E+02
 0.90240545639E+01 0.76880355910E+01 0.65179692985E+01 0.55116780966E+01 0.46592065688E+01
 0.39463648235E+01 0.33576554376E+01 0.28781440039E+01 0.24943036377E+01 0.21942090488E+01
 0.19675261298E+01 0.18055799923E+01 0.17015556843E+01 0.16507455745E+01 0.16507455720E+01
 0.17015556268E+01 0.18055797796E+01 0.19675257231E+01 0.21942085439E+01 0.24943031965E+01
 0.28781436817E+01 0.33576551148E+01 0.39463644095E+01 0.46592063543E+01 0.55116788216E+01
 0.65179715779E+01 0.76880389722E+01 0.90240572069E+01 0.10517031480E+02 0.12144287789E+02
 0.13868227639E+02 0.15636327709E+02 0.17382266447E+02 0.19028340693E+02 0.20489708278E+02
 0.21680989391E+02 0.22771319682E+02 0.22995569195E+02 0.22771319640E+02 0.22114759926E+02
 0.21072094480E+02 0.19713077043E+02 0.18122038691E+02 0.16388346266E+02 0.14597897444E+02
 0.12826564353E+02 0.11135852022E+02 0.95706922749E+01 0.81592121319E+01 0.69142782442E+01
 0.58364510144E+01 0.49177128904E+01 0.41451599073E+01 0.35039438277E+01 0.29791262233E+01
 0.25565651248E+01 0.22232523484E+01 0.19675261298E+01 0.17793675274E+01 0.16507455860E+01
 0.15758728364E+01 0.15512959893E+01 0.15758727608E+01 0.16507455720E+01 0.17793675950E+01
 0.19675261476E+01 0.22232522787E+01 0.25565650924E+01 0.29791262887E+01 0.35039438880E+01
 0.41451598872E+01 0.49177128589E+01 0.58364510387E+01 0.69142782769E+01 0.81592121195E+01
 0.95706922503E+01 0.11135852022E+02 0.12826564347E+02 0.14597897408E+02 0.16388346225E+02
 0.18122038657E+02 0.19713076999E+02 0.21072094443E+02 0.22114759939E+02 0.22912517408E+02
 0.22912516833E+02 0.22464090521E+02 0.21598995184E+02 0.20376490362E+02 0.18875772673E+02
 0.17186636885E+02 0.15400010517E+02 0.13599702083E+02 0.11856220841E+02 0.10223083159E+02
 0.87356817439E+01 0.74124961106E+01 0.62581056984E+01 0.52671758526E+01 0.44284579219E+01
 0.37279972079E+01 0.31511627244E+01 0.26836213858E+01 0.23117243874E+01 0.20227976437E+01
 0.18055799923E+01 0.16507455860E+01 0.15512954384E+01 0.15026759471E+01 0.15026763141E+01
 0.15512959893E+01 0.16507455745E+01 0.18055797441E+01 0.20227981001E+01 0.23117255218E+01
 0.26836220257E+01 0.31511623070E+01 0.37279968378E+01 0.44284587525E+01 0.52671768168E+01
 0.62581041504E+01 0.74124912613E+01 0.87356766657E+01 0.10223082399E+02 0.11856225925E+02
 0.13599709776E+02 0.15400015610E+02 0.17186636582E+02 0.18875768461E+02 0.20376486077E+02
 0.21598993490E+02 0.22464091050E+02 0.22958500511E+02 0.22731556059E+02 0.22066880965E+02
 0.21010815082E+02 0.19633924982E+02 0.18022427155E+02 0.16268556137E+02 0.14461391084E+02
 0.12679315175E+02 0.10984851585E+02 0.94222118656E+01 0.80175071791E+01 0.67811793254E+01
 0.57118440776E+01 0.48005252686E+01 0.40343226313E+01 0.33989267502E+01 0.28799333854E+01
 0.24633625124E+01 0.21359369590E+01 0.18854927505E+01 0.17015556843E+01 0.15758728364E+01
 0.15026759471E+01 0.14786360126E+01 0.15026759471E+01 0.15758728364E+01 0.17015556843E+01
 0.18854927505E+01 0.21359369590E+01 0.24633625124E+01 0.28799333854E+01 0.33989267502E+01
 0.40343226313E+01 0.48005252686E+01 0.57118440776E+01 0.67811793254E+01 0.80175071791E+01
 0.94222118656E+01 0.10984851585E+02 0.12679315175E+02 0.14461391084E+02 0.16268556137E+02
 0.18022427155E+02 0.19633924982E+02 0.21010815082E+02 0.22066880965E+02 0.22731556059E+02
 0.22912517408E+02 0.22464091050E+02 0.21598993490E+02 0.20376486077E+02 0.18875768461E+02
 0.17186636582E+02 0.15400015610E+02 0.13599709776E+02 0.11856225925E+02 0.10223082399E+02
 0.87356766657E+01 0.74124912613E+01 0.62581041504E+01 0.52671768168E+01 0.44284587525E+01
 0.37279968378E+01 0.31511623070E+01 0.26836220257E+01 0.23117255218E+01 0.20227981001E+01
 0.18055797441E+01 0.16507455745E+01 0.15512959893E+01 0.15026763141E+01 0.15026759471E+01
 0.15512954384E+01 0.16507455860E+01 0.18055799923E+01 0.20227976437E+01 0.23117243874E+01
 0.26836213858E+01 0.31511627244E+01 0.37279972079E+01 0.44284579219E+01 0.52671758526E+01
 0.62581056984E+01 0.74124961106E+01 0.87356817439E+01 0.10223083159E+02 0.11856220841E+02
 0.13599702083E+02 0.15400010517E+02 0.17186636885E+02 0.18875772673E+02 0.20376490362E+02
 0.21598995184E+02 0.22464090521E+02 0.22912516833E+02 0.22771319682E+02 0.22114759939E+02
 0.21072094443E+02 0.19713076999E+02 0.18122038657E+02 0.16388346225E+02 0.14597897408E+02
 0.12826564347E+02 0.11135852022E+02 0.95706922503E+01 0.81592121195E+01 0.69142782769E+01
 0.58364510387E+01 0.49177128589E+01 0.41451598872E+01 0.35039438880E+01 0.29791262887E+01
 0.25565650924E+01 0.22232522787E+01 0.19675261476E+01 0.17793675950E+01 0.16507455720E+01
 0.15758727608E+01 0.15512959893E+01 0.15758728364E+01 0.16507455860E+01 0.17793675274E+01
 0.19675261298E+01 0.22232523484E+01 0.25565651248E+01 0.29791262233E+01 0.35039438277E+01
 0.41451599073E+01 0.49177128904E+01 0.58364510144E+01 0.69142782442E+01 0.81592121319E+01
 0.95706922749E+01 0.11135852022E+02 0.12826564353E+02 0.14597897444E+02 0.16388346266E+02
 0.18122038691E+02 0.19713077043E+02 0.21072094480E+02 0.22114759926E+02 0.22771319640E+02
 0.22995569195E+02 0.22525111676E+02 0.21680989391E+02 0.20489708278E+02 0.19028340693E+02
 0.17382266447E+02 0.15636327709E+02 0.13868227639E+02 0.12144287789E+02 0.10517031480E+02
 0.90240572069E+01 0.76880389722E+01 0.65179715779E+01 0.55116788216E+01 0.46592063543E+01
 0.39463644095E+01 0.33576551148E+01 0.28781436817E+01 0.24943031965E+01 0.21942085439E+01
 0.19675257231E+01 0.18055797796E+01 0.17015556268E+01 0.16507455720E+01 0.16507455745E+01
 0.17015556843E+01 0.18055799923E+01 0.19675261298E+01 0.21942090488E+01 0.24943036377E+01
 0.28781440039E+01 0.33576554376E+01 0.39463648235E+01 0.46592065688E+01 0.55116780966E+01
 0.65179692985E+01 0.76880355910E+01 0.90240545639E+01 0.10517031714E+02 0.12144291456E+02
 0.13868232862E+02 0.15636331483E+02 0.17382266983E+02 0.19028338546E+02 0.20489705382E+02
 0.21680987295E+02 0.22525110719E+02 0.22963180018E+02 0.22963180247E+02 0.22152002725E+02
 0.21153152642E+02 0.19850362739E+02 0.18325220829E+02 0.16661363832E+02 0.14935265015E+02
 0.13214037784E+02 0.11553821280E+02 0.99989751779E+01 0.85813717665E+01 0.73199519972E+01
 0.62212327246E+01 0.52812488092E+01 0.44887315459E+01 0.38287072602E+01 0.32855522024E+01
 0.28448913473E+01 0.24943036582E+01 0.22232523323E+01 0.20227976062E+01 0.18854927543E+01
 0.18055797796E+01 0.17793675950E+01 0.18055797441E+01 0.18854927505E+01 0.20227976437E+01
 0.22232523484E+01 0.24943036377E+01 0.28448913482E+01 0.32855522420E+01 0.38287072794E+01
 0.44887315181E+01 0.52812487876E+01 0.62212327451E+01 0.73199520217E+01 0.85813717689E+01
 0.99989752082E+01 0.11553821389E+02 0.13214037943E+02 0.14935265148E+02 0.16661363897E+02
 0.18325220822E+02 0.19850362671E+02 0.21153152547E+02 0.22152002647E+02 0.22780509775E+02
 0.22995087900E+02 0.22780509812E+02 0.21594680352E+02 0.20500630768E+02 0.19147517550E+02
 0.17610047167E+02 0.15968279598E+02 0.14293914669E+02 0.12642433567E+02 0.11060156581E+02
 0.95847549809E+01 0.82442020503E+01 0.70553401852E+01 0.60234429280E+01 0.51436547933E+01
 0.44041253587E+01 0.37897881664E+01 0.32855523635E+01 0.28781436266E+01 0.25565655850E+01
 0.23117255342E+01 0.21359374799E+01 0.20227976062E+01 0.19675257231E+01 0.19675261476E+01
 0.20227981001E+01 0.21359369590E+01 0.23117243874E+01 0.25565651248E+01 0.28781440039E+01
 0.32855522420E+01 0.37897868438E+01 0.44041242047E+01 0.51436557161E+01 0.60234458820E+01
 0.70553430951E+01 0.82442031050E+01 0.95847542290E+01 0.11060155198E+02 0.12642432316E+02
 0.14293913484E+02 0.15968278208E+02 0.17610045718E+02 0.19147516726E+02 0.20500631411E+02
 0.21594682609E+02 0.22365095810E+02 0.22763406284E+02 0.22763405074E+02 0.22365093125E+02
 0.20809046246E+02 0.19701300048E+02 0.18376649291E+02 0.16895132302E+02 0.15322968382E+02
 0.13730031270E+02 0.12167471900E+02 0.10673380058E+02 0.92809166165E+01 0.80162351266E+01
 0.68957111070E+01 0.59245546498E+01 0.50979146813E+01 0.44041241432E+01 0.38287072401E+01
 0.33576554785E+01 0.29791262789E+01 0.26836213711E+01 0.24633624654E+01 0.23117255342E+01
 0.22232523323E+01 0.21942085439E+01 0.22232522787E+01 0.23117255218E+01 0.24633625124E+01
 0.26836213858E+01 0.29791262233E+01 0.33576554376E+01 0.38287072794E+01 0.44041242047E+01
 0.50979146833E+01 0.59245546086E+01 0.68957110965E+01 0.80162351752E+01 0.92809166972E+01
 0.10673380138E+02 0.12167471964E+02 0.13730031316E+02 0.15322968430E+02 0.16895132362E+02
 0.18376649330E+02 0.19701300014E+02 0.20809046146E+02 0.21646286544E+02 0.22168720548E+02
 0.22346416616E+02 0.22168720602E+02 0.21646286645E+02 0.19802163910E+02 0.18778564711E+02
 0.17568144733E+02 0.16210510332E+02 0.14756241555E+02 0.13269696516E+02 0.11808141491E+02
 0.10406048696E+02 0.90948741870E+01 0.79011653186E+01 0.68423466700E+01 0.59245568261E+01
 0.51436548911E+01 0.44887298054E+01 0.39463643819E+01 0.35039442474E+01 0.31511623610E+01
 0.28799321463E+01 0.26836213711E+01 0.25565655850E+01 0.24943036582E+01 0.24943031965E+01
 0.25565650924E+01 0.26836220257E+01 0.28799333854E+01 0.31511627244E+01 0.35039438277E+01
 0.39463648235E+01 0.44887315181E+01 0.51436557161E+01 0.59245546086E+01 0.68423424713E+01
 0.79011627603E+01 0.90948754981E+01 0.10406052298E+02 0.11808143863E+02 0.13269695923E+02
 0.14756239526E+02 0.16210509746E+02 0.17568146808E+02 0.18778567792E+02 0.19802165060E+02
 0.20605883927E+02 0.21161099188E+02 0.21445149267E+02 0.21445151010E+02 0.21161102766E+02
 0.20605886025E+02 0.18645869616E+02 0.17807749642E+02 0.16790205691E+02 0.15610625145E+02
 0.14307018870E+02 0.12941848869E+02 0.11583359564E+02 0.10269218545E+02 0.90321853030E+01
 0.79011627453E+01 0.68957110310E+01 0.60234458476E+01 0.52812488302E+01 0.46592066108E+01
 0.41451598739E+01 0.37279971566E+01 0.33989267704E+01 0.31511623610E+01 0.29791262789E+01
 0.28781436266E+01 0.28448913473E+01 0.28781436817E+01 0.29791262887E+01 0.31511623070E+01
 0.33989267502E+01 0.37279972079E+01 0.41451599073E+01 0.46592065688E+01 0.52812487876E+01
 0.60234458820E+01 0.68957110965E+01 0.79011627603E+01 0.90321852866E+01 0.10269218580E+02
 0.11583359670E+02 0.12941848989E+02 0.14307018958E+02 0.15610625193E+02 0.16790205705E+02
 0.17807749637E+02 0.18645869634E+02 0.19299565321E+02 0.19768130825E+02 0.20050545054E+02
 0.20144994691E+02 0.20050544965E+02 0.19768130708E+02 0.19299565245E+02 0.17473189020E+02
 0.16905685826E+02 0.16135096550E+02 0.15160876623E+02 0.14016531020E+02 0.12770975280E+02
 0.11506785789E+02 0.10269221095E+02 0.90948742486E+01 0.80162317028E+01 0.70553401797E+01
 0.62212318152E+01 0.55116787308E+01 0.49177139816E+01 0.44284587542E+01 0.40343230995E+01
 0.37279971566E+01 0.35039442474E+01 0.33576554785E+01 0.32855523635E+01 0.32855522024E+01
 0.33576551148E+01 0.35039438880E+01 0.37279968378E+01 0.40343226313E+01 0.44284579219E+01
 0.49177128904E+01 0.55116780966E+01 0.62212327451E+01 0.70553430951E+01 0.80162351752E+01
 0.90948754981E+01 0.10269218580E+02 0.11506781386E+02 0.12770972996E+02 0.14016532941E+02
 0.15160880575E+02 0.16135098409E+02 0.16905683890E+02 0.17473185466E+02 0.17862795715E+02
 0.18111196257E+02 0.18254278179E+02 0.18318857944E+02 0.18318856792E+02 0.18254275828E+02