   2   2   0   0
  0.2079688E+02  0.3889087E-09  0.3889087E-09  0.3889087E-09  0.5000000E-15
  1.000000000000000E-004
  CAR 
 Si                                      
     30.02695299     -7.91049388  301      5.92968137      1.00000000
     -7.910  0.0000E+00  0.0000E+00
     -7.784  0.0000E+00  0.0000E+00
     -7.658  0.0000E+00  0.0000E+00
     -7.531  0.0000E+00  0.0000E+00
     -7.405  0.0000E+00  0.0000E+00
     -7.278  0.0000E+00  0.0000E+00
     -7.152  0.0000E+00  0.0000E+00
     -7.025  0.0000E+00  0.0000E+00
     -6.899  0.0000E+00  0.0000E+00
     -6.772  0.2858E-19  0.3614E-20
     -6.646  0.2262E-13  0.2861E-14
     -6.519  0.7978E-09  0.1009E-09
     -6.393  0.1499E-05  0.1896E-06
     -6.267  0.1901E-03  0.2423E-04
     -6.140  0.2575E-02  0.3499E-03
     -6.014  0.7718E-02  0.1326E-02
     -5.887  0.1168E-01  0.2804E-02
     -5.761  0.1461E-01  0.4652E-02
     -5.634  0.1711E-01  0.6816E-02
     -5.508  0.1915E-01  0.9238E-02
     -5.381  0.2159E-01  0.1197E-01
     -5.255  0.2303E-01  0.1488E-01
     -5.128  0.2576E-01  0.1814E-01
     -5.002  0.2653E-01  0.2149E-01
     -4.875  0.2975E-01  0.2526E-01
     -4.749  0.3048E-01  0.2911E-01
     -4.623  0.3325E-01  0.3332E-01
     -4.496  0.3555E-01  0.3781E-01
     -4.370  0.3659E-01  0.4244E-01
     -4.243  0.4144E-01  0.4768E-01
     -4.117  0.4312E-01  0.5313E-01
     -3.990  0.4779E-01  0.5917E-01
     -3.864  0.5809E-01  0.6652E-01
     -3.737  0.5667E-01  0.7369E-01
     -3.611  0.5562E-01  0.8072E-01
     -3.484  0.5473E-01  0.8764E-01
     -3.358  0.4888E-01  0.9382E-01
     -3.232  0.4572E-01  0.9960E-01
     -3.105  0.4510E-01  0.1053E+00
     -2.979  0.4336E-01  0.1108E+00
     -2.852  0.3168E-01  0.1148E+00
     -2.726  0.3791E-01  0.1196E+00
     -2.599  0.3411E-01  0.1239E+00
     -2.473  0.2071E-01  0.1265E+00
     -2.346  0.2353E-01  0.1295E+00
     -2.220  0.2201E-01  0.1323E+00
     -2.093  0.7596E-02  0.1332E+00
     -1.967  0.2027E-02  0.1335E+00
     -1.841  0.1363E-01  0.1352E+00
     -1.714  0.2186E-01  0.1380E+00
     -1.588  0.1445E-01  0.1398E+00
     -1.461  0.2298E-01  0.1427E+00
     -1.335  0.4624E-01  0.1486E+00
     -1.208  0.4390E-01  0.1541E+00
     -1.082  0.8213E-01  0.1645E+00
     -0.955  0.9389E-01  0.1764E+00
     -0.829  0.6860E-01  0.1851E+00
     -0.702  0.5006E-01  0.1914E+00
     -0.576  0.4456E-01  0.1970E+00
     -0.449  0.4439E-01  0.2026E+00
     -0.323  0.3974E-01  0.2077E+00
     -0.197  0.3251E-01  0.2118E+00
     -0.070  0.2999E-01  0.2156E+00
      0.056  0.3231E-01  0.2196E+00
      0.183  0.2586E-01  0.2229E+00
      0.309  0.2845E-01  0.2265E+00
      0.436  0.1795E-01  0.2288E+00
      0.562  0.2626E-01  0.2321E+00
      0.689  0.2019E-01  0.2347E+00
      0.815  0.1759E-01  0.2369E+00
      0.942  0.2040E-01  0.2395E+00
      1.068  0.1314E-01  0.2411E+00
      1.194  0.1884E-01  0.2435E+00
      1.321  0.2099E-01  0.2462E+00
      1.447  0.3642E-01  0.2508E+00
      1.574  0.6713E-01  0.2593E+00
      1.700  0.7769E-01  0.2691E+00
      1.827  0.7722E-01  0.2789E+00
      1.953  0.7108E-01  0.2878E+00
      2.080  0.7050E-01  0.2968E+00
      2.206  0.6691E-01  0.3052E+00
      2.333  0.7521E-01  0.3147E+00
      2.459  0.7238E-01  0.3239E+00
      2.586  0.7657E-01  0.3336E+00
      2.712  0.8555E-01  0.3444E+00
      2.838  0.9237E-01  0.3561E+00
      2.965  0.1029E+00  0.3691E+00
      3.091  0.9898E-01  0.3816E+00
      3.218  0.1007E+00  0.3943E+00
      3.344  0.9377E-01  0.4062E+00
      3.471  0.9499E-01  0.4182E+00
      3.597  0.9090E-01  0.4297E+00
      3.724  0.8808E-01  0.4408E+00
      3.850  0.8781E-01  0.4519E+00
      3.977  0.8296E-01  0.4624E+00
      4.103  0.8374E-01  0.4730E+00
      4.229  0.7791E-01  0.4829E+00
      4.356  0.8037E-01  0.4930E+00
      4.482  0.6726E-01  0.5015E+00
      4.609  0.5968E-01  0.5091E+00
      4.735  0.4238E-01  0.5144E+00
      4.862  0.3831E-01  0.5193E+00
      4.988  0.3109E-01  0.5232E+00
      5.115  0.2487E-01  0.5264E+00
      5.241  0.2116E-01  0.5290E+00
      5.368  0.1589E-01  0.5311E+00
      5.494  0.1141E-01  0.5325E+00
      5.621  0.5625E-02  0.5332E+00
      5.747  0.9583E-03  0.5333E+00
      5.873  0.2564E-04  0.5333E+00
      6.000  0.1895E-06  0.5333E+00
      6.126  0.5938E-04  0.5333E+00
      6.253  0.1708E-02  0.5336E+00
      6.379  0.7155E-02  0.5345E+00
      6.506  0.1673E-01  0.5366E+00
      6.632  0.2070E-01  0.5392E+00
      6.759  0.2791E-01  0.5427E+00
      6.885  0.3358E-01  0.5470E+00
      7.012  0.3475E-01  0.5514E+00
      7.138  0.4284E-01  0.5568E+00
      7.264  0.5269E-01  0.5634E+00
      7.391  0.5773E-01  0.5707E+00
      7.517  0.6399E-01  0.5788E+00
      7.644  0.7991E-01  0.5889E+00
      7.770  0.9089E-01  0.6004E+00
      7.897  0.1071E+00  0.6140E+00
      8.023  0.1029E+00  0.6270E+00
      8.150  0.1022E+00  0.6399E+00
      8.276  0.9193E-01  0.6516E+00
      8.403  0.7892E-01  0.6615E+00
      8.529  0.7384E-01  0.6709E+00
      8.656  0.7292E-01  0.6801E+00
      8.782  0.8066E-01  0.6903E+00
      8.908  0.1184E+00  0.7053E+00
      9.035  0.1447E+00  0.7236E+00
      9.161  0.1258E+00  0.7395E+00
      9.288  0.1106E+00  0.7535E+00
      9.414  0.1097E+00  0.7673E+00
      9.541  0.1102E+00  0.7813E+00
      9.667  0.8416E-01  0.7919E+00
      9.794  0.7607E-01  0.8015E+00
      9.920  0.9028E-01  0.8129E+00
     10.047  0.8781E-01  0.8240E+00
     10.173  0.7739E-01  0.8338E+00
     10.299  0.8480E-01  0.8446E+00
     10.426  0.9990E-01  0.8572E+00
     10.552  0.8646E-01  0.8681E+00
     10.679  0.7179E-01  0.8772E+00
     10.805  0.7990E-01  0.8873E+00
     10.932  0.8397E-01  0.8979E+00
     11.058  0.7969E-01  0.9080E+00
     11.185  0.7655E-01  0.9177E+00
     11.311  0.7156E-01  0.9267E+00
     11.438  0.7116E-01  0.9357E+00
     11.564  0.7977E-01  0.9458E+00
     11.691  0.6760E-01  0.9544E+00
     11.817  0.5725E-01  0.9616E+00
     11.943  0.6811E-01  0.9702E+00
     12.070  0.8596E-01  0.9811E+00
     12.196  0.8458E-01  0.9918E+00
     12.323  0.7867E-01  0.1002E+01
     12.449  0.6979E-01  0.1011E+01
     12.576  0.7620E-01  0.1020E+01
     12.702  0.9553E-01  0.1032E+01
     12.829  0.7867E-01  0.1042E+01
     12.955  0.6234E-01  0.1050E+01
     13.082  0.7019E-01  0.1059E+01
     13.208  0.8322E-01  0.1070E+01
     13.334  0.1039E+00  0.1083E+01
     13.461  0.9142E-01  0.1094E+01
     13.587  0.7698E-01  0.1104E+01
     13.714  0.7568E-01  0.1114E+01
     13.840  0.8724E-01  0.1125E+01
     13.967  0.8363E-01  0.1135E+01
     14.093  0.7501E-01  0.1145E+01
     14.220  0.6667E-01  0.1153E+01
     14.346  0.7967E-01  0.1163E+01
     14.473  0.9942E-01  0.1176E+01
     14.599  0.9794E-01  0.1188E+01
     14.726  0.8098E-01  0.1198E+01
     14.852  0.8413E-01  0.1209E+01
     14.978  0.9360E-01  0.1221E+01
     15.105  0.1071E+00  0.1234E+01
     15.231  0.8987E-01  0.1246E+01
     15.358  0.8689E-01  0.1257E+01
     15.484  0.8081E-01  0.1267E+01
     15.611  0.8756E-01  0.1278E+01
     15.737  0.1002E+00  0.1291E+01
     15.864  0.8280E-01  0.1301E+01
     15.990  0.7676E-01  0.1311E+01
     16.117  0.7270E-01  0.1320E+01
     16.243  0.7658E-01  0.1330E+01
     16.369  0.9611E-01  0.1342E+01
     16.496  0.8552E-01  0.1353E+01
     16.622  0.7911E-01  0.1363E+01
     16.749  0.8538E-01  0.1373E+01
     16.875  0.8846E-01  0.1385E+01
     17.002  0.8933E-01  0.1396E+01
     17.128  0.8055E-01  0.1406E+01
     17.255  0.8179E-01  0.1416E+01
     17.381  0.8234E-01  0.1427E+01
     17.508  0.8605E-01  0.1438E+01
     17.634  0.1055E+00  0.1451E+01
     17.761  0.1194E+00  0.1466E+01
     17.887  0.1134E+00  0.1481E+01
     18.013  0.9261E-01  0.1492E+01
     18.140  0.1061E+00  0.1506E+01
     18.266  0.1156E+00  0.1520E+01
     18.393  0.1133E+00  0.1535E+01
     18.519  0.1000E+00  0.1547E+01
     18.646  0.8475E-01  0.1558E+01
     18.772  0.9666E-01  0.1570E+01
     18.899  0.1053E+00  0.1584E+01
     19.025  0.9470E-01  0.1596E+01
     19.152  0.1051E+00  0.1609E+01
     19.278  0.1136E+00  0.1623E+01
     19.404  0.1291E+00  0.1639E+01
     19.531  0.1288E+00  0.1656E+01
     19.657  0.1183E+00  0.1671E+01
     19.784  0.1083E+00  0.1684E+01
     19.910  0.1038E+00  0.1698E+01
     20.037  0.8949E-01  0.1709E+01
     20.163  0.8351E-01  0.1719E+01
     20.290  0.8667E-01  0.1730E+01
     20.416  0.8620E-01  0.1741E+01
     20.543  0.9717E-01  0.1754E+01
     20.669  0.1105E+00  0.1768E+01
     20.796  0.1080E+00  0.1781E+01
     20.922  0.1138E+00  0.1796E+01
     21.048  0.1215E+00  0.1811E+01
     21.175  0.8756E-01  0.1822E+01
     21.301  0.8372E-01  0.1833E+01
     21.428  0.8593E-01  0.1844E+01
     21.554  0.8786E-01  0.1855E+01
     21.681  0.1001E+00  0.1867E+01
     21.807  0.8888E-01  0.1879E+01
     21.934  0.8280E-01  0.1889E+01
     22.060  0.8511E-01  0.1900E+01
     22.187  0.1012E+00  0.1913E+01
     22.313  0.1159E+00  0.1927E+01
     22.439  0.1118E+00  0.1941E+01
     22.566  0.1058E+00  0.1955E+01
     22.692  0.9220E-01  0.1966E+01
     22.819  0.9420E-01  0.1978E+01
     22.945  0.1111E+00  0.1992E+01
     23.072  0.1064E+00  0.2006E+01
     23.198  0.1023E+00  0.2019E+01
     23.325  0.1063E+00  0.2032E+01
     23.451  0.1096E+00  0.2046E+01
     23.578  0.1092E+00  0.2060E+01
     23.704  0.9564E-01  0.2072E+01
     23.831  0.9898E-01  0.2084E+01
     23.957  0.9367E-01  0.2096E+01
     24.083  0.7296E-01  0.2106E+01
     24.210  0.4317E-01  0.2111E+01
     24.336  0.3076E-01  0.2115E+01
     24.463  0.1808E-01  0.2117E+01
     24.589  0.1640E-01  0.2119E+01
     24.716  0.1521E-01  0.2121E+01
     24.842  0.1973E-01  0.2124E+01
     24.969  0.1489E-01  0.2126E+01
     25.095  0.7954E-02  0.2127E+01
     25.222  0.8467E-02  0.2128E+01
     25.348  0.8024E-02  0.2129E+01
     25.474  0.7690E-02  0.2130E+01
     25.601  0.7378E-02  0.2131E+01
     25.727  0.5593E-02  0.2131E+01
     25.854  0.2695E-02  0.2132E+01
     25.980  0.1303E-02  0.2132E+01
     26.107  0.3827E-03  0.2132E+01
     26.233  0.7881E-03  0.2132E+01
     26.360  0.1367E-02  0.2132E+01
     26.486  0.2705E-02  0.2132E+01
     26.613  0.1423E-02  0.2133E+01
     26.739  0.7032E-04  0.2133E+01
     26.865  0.2551E-05  0.2133E+01
     26.992  0.1827E-03  0.2133E+01
     27.118  0.1010E-02  0.2133E+01
     27.245  0.1325E-02  0.2133E+01
     27.371  0.9991E-03  0.2133E+01
     27.498  0.8430E-04  0.2133E+01
     27.624  0.4419E-05  0.2133E+01
     27.751  0.2380E-03  0.2133E+01
     27.877  0.9664E-03  0.2133E+01
     28.004  0.3283E-03  0.2133E+01
     28.130  0.1166E-04  0.2133E+01
     28.257  0.1289E-03  0.2133E+01
     28.383  0.3165E-03  0.2133E+01
     28.509  0.6478E-04  0.2133E+01
     28.636  0.8819E-06  0.2133E+01
     28.762  0.6227E-09  0.2133E+01
     28.889  0.2024E-13  0.2133E+01
     29.015  0.0000E+00  0.2133E+01
     29.142  0.0000E+00  0.2133E+01
     29.268  0.0000E+00  0.2133E+01
     29.395  0.0000E+00  0.2133E+01
     29.521  0.0000E+00  0.2133E+01
     29.648  0.0000E+00  0.2133E+01
     29.774  0.0000E+00  0.2133E+01
     29.900  0.0000E+00  0.2133E+01
     30.027  0.0000E+00  0.2133E+01
