    2    2   15    1
  0.2079688E+02  0.3889087E-09  0.3889087E-09  0.3889087E-09  0.5000000E-15
  1.000000000000000E-004
  CAR 
 Si                                      
      8    408     16
 
  0.3125000E-01  0.3125000E-01  0.3125000E-01  0.4882812E-03
    1       -6.186064   1.000000
    2        5.466017   1.000000
    3        5.594551   0.999999
    4        5.594551   0.999999
    5        8.204232   0.000000
    6        8.204784   0.000000
    7        8.204784   0.000000
    8        8.847497   0.000000
    9       13.281137   0.000000
   10       13.281137   0.000000
   11       13.550335   0.000000
   12       16.745906   0.000000
   13       16.884055   0.000000
   14       16.884055   0.000000
   15       20.981640   0.000000
   16       28.302524   0.000000
 
  0.9375000E-01  0.3125000E-01  0.3125000E-01  0.1464844E-02
    1       -6.119001   1.000000
    2        4.888396   1.000000
    3        5.347587   1.000000
    4        5.565100   1.000000
    5        8.261901   0.000000
    6        8.271725   0.000000
    7        8.401027   0.000000
    8        9.369427   0.000000
    9       12.957748   0.000000
   10       13.214199   0.000000
   11       13.835429   0.000000
   12       16.614540   0.000000
   13       17.050477   0.000000
   14       17.437784   0.000000
   15       21.430955   0.000000
   16       27.247934   0.000000
 
  0.1562500E+00  0.3125000E-01  0.3125000E-01  0.1464844E-02
    1       -5.952491   1.000000
    2        3.821333   1.000000
    3        5.089038   1.000000
    4        5.397138   1.000000
    5        8.102205   0.000000
    6        8.530588   0.000000
    7        8.750556   0.000000
    8       10.365651   0.000000
    9       12.593333   0.000000
   10       12.998596   0.000000
   11       14.417919   0.000000
   12       16.273417   0.000000
   13       17.846633   0.000000
   14       18.375741   0.000000
   15       22.346898   0.000000
   16       25.686415   0.000000
 
  0.2187500E+00  0.3125000E-01  0.3125000E-01  0.1464844E-02
    1       -5.689907   1.000000
    2        2.669615   1.000000
    3        4.838405   1.000000
    4        5.168600   1.000000
    5        7.863698   0.000000
    6        8.831946   0.000000
    7        9.076285   0.000000
    8       11.412261   0.000000
    9       12.416111   0.000000
   10       12.961858   0.000000
   11       14.761831   0.000000
   12       16.484356   0.000000
   13       18.917941   0.000000
   14       19.506486   0.000000
   15       23.349639   0.000000
   16       24.066223   0.000000
 
  0.2812500E+00  0.3125000E-01  0.3125000E-01  0.1464844E-02
    1       -5.338503   1.000000
    2        1.548618   1.000000
    3        4.625371   1.000000
    4        4.938227   1.000000
    5        7.628660   0.000000
    6        9.025058   0.000000
    7        9.235333   0.000000
    8       12.324320   0.000000
    9       12.585784   0.000000
   10       13.365291   0.000000
   11       14.580658   0.000000
   12       17.553087   0.000000
   13       19.967676   0.000000
   14       20.585458   0.000000
   15       22.615627   0.000000
   16       23.381931   0.000000
 
  0.3437500E+00  0.3125000E-01  0.3125000E-01  0.1464844E-02
    1       -4.913579   1.000000
    2        0.512041   1.000000
    3        4.465023   1.000000
    4        4.736269   1.000000
    5        7.431142   0.000000
    6        9.066227   0.000000
    7        9.213564   0.000000
    8       13.059499   0.000000
    9       13.142633   0.000000
   10       14.020057   0.000000
   11       14.602560   0.000000
   12       18.823360   0.000000
   13       19.925048   0.000000
   14       20.581096   0.000000
   15       22.289389   0.000000
   16       22.707093   0.000000
 
  0.4062500E+00  0.3125000E-01  0.3125000E-01  0.1464844E-02
    1       -4.451558   1.000000
    2       -0.386194   1.000000
    3        4.363328   1.000000
    4        4.577006   1.000000
    5        7.286898   0.000000
    6        9.029520   0.000000
    7        9.105393   0.000000
    8       13.414270   0.000000
    9       14.005566   0.000000
   10       14.538859   0.000000
   11       15.493227   0.000000
   12       18.537680   0.000000
   13       19.349940   0.000000
   14       19.615923   0.000000
   15       22.174395   0.000000
   16       23.924253   0.000000
 
  0.4687500E+00  0.3125000E-01  0.3125000E-01  0.1464844E-02
    1       -4.048628   1.000000
    2       -1.040995   1.000000
    3        4.321552   1.000000
    4        4.467484   1.000000
    5        7.203056   0.000000
    6        8.998346   0.000000
    7        8.999634   0.000000
    8       13.391795   0.000000
    9       15.072471   0.000000
   10       15.459087   0.000000
   11       16.557413   0.000000
   12       17.259923   0.000000
   13       17.977217   0.000000
   14       18.922038   0.000000
   15       23.487005   0.000000
   16       25.519412   0.000000
 
 -0.4687500E+00  0.3125000E-01  0.3125000E-01  0.1464844E-02
    1       -3.914704   1.000000
    2       -1.238156   1.000000
    3        4.338603   1.000000
    4        4.411763   1.000000
    5        7.182479   0.000000
    6        8.942380   0.000000
    7        9.016329   0.000000
    8       13.367577   0.000000
    9       15.632413   0.000000
   10       16.102572   0.000000
   11       16.825863   0.000000
   12       16.861251   0.000000
   13       17.210340   0.000000
   14       18.488141   0.000000
   15       24.609560   0.000000
   16       25.477317   0.000000
 
 -0.4062500E+00  0.3125000E-01  0.3125000E-01  0.1464844E-02
    1       -4.165681   1.000000
    2       -0.860867   1.000000
    3        4.412265   1.000000
    4        4.412682   1.000000
    5        7.225690   0.000000
    6        8.945231   0.000000
    7        9.092050   0.000000
    8       13.391079   0.000000
    9       14.611187   0.000000
   10       15.337738   0.000000
   11       16.117303   0.000000
   12       17.772143   0.000000
   13       18.247913   0.000000
   14       19.289811   0.000000
   15       22.961886   0.000000
   16       24.994714   0.000000
 
 -0.3437500E+00  0.3125000E-01  0.3125000E-01  0.1464844E-02
    1       -4.605645   1.000000
    2       -0.106979   1.000000
    3        4.472176   1.000000
    4        4.539516   1.000000
    5        7.331283   0.000000
    6        8.988766   0.000000
    7        9.203526   0.000000
    8       13.201465   0.000000
    9       13.908000   0.000000
   10       14.322498   0.000000
   11       15.081239   0.000000
   12       19.135893   0.000000
   13       19.261400   0.000000
   14       19.950029   0.000000
   15       22.067384   0.000000
   16       23.461432   0.000000
 
 -0.2812500E+00  0.3125000E-01  0.3125000E-01  0.1464844E-02
    1       -5.061753   1.000000
    2        0.845162   1.000000
    3        4.590624   1.000000
    4        4.715794   1.000000
    5        7.494994   0.000000
    6        9.014498   0.000000
    7        9.291970   0.000000
    8       12.549545   0.000000
    9       13.512982   0.000000
   10       13.520987   0.000000
   11       14.501382   0.000000
   12       18.432242   0.000000
   13       20.168049   0.000000
   14       20.742067   0.000000
   15       22.463198   0.000000
   16       22.592304   0.000000
 
 -0.2187500E+00  0.3125000E-01  0.3125000E-01  0.1464844E-02
    1       -5.464769   1.000000
    2        1.915212   1.000000
    3        4.765258   1.000000
    4        4.932518   1.000000
    5        7.706941   0.000000
    6        8.928582   0.000000
    7        9.262224   0.000000
    8       11.916064   0.000000
    9       12.747379   0.000000
   10       13.040065   0.000000
   11       14.655417   0.000000
   12       17.144594   0.000000
   13       19.693240   0.000000
   14       20.216866   0.000000
   15       23.182139   0.000000
   16       23.382880   0.000000
 
 -0.1562500E+00  0.3125000E-01  0.3125000E-01  0.1464844E-02
    1       -5.787739   1.000000
    2        3.054415   1.000000
    3        4.987039   1.000000
    4        5.171438   1.000000
    5        7.944827   0.000000
    6        8.685797   0.000000
    7        9.047640   0.000000
    8       11.049966   0.000000
    9       12.462809   0.000000
   10       12.934736   0.000000
   11       14.721565   0.000000
   12       16.299302   0.000000
   13       18.590342   0.000000
   14       19.062129   0.000000
   15       23.056936   0.000000
   16       24.745359   0.000000
 
 -0.9375000E-01  0.3125000E-01  0.3125000E-01  0.1464844E-02
    1       -6.018863   1.000000
    2        4.200948   1.000000
    3        5.234491   1.000000
    4        5.393329   1.000000
    5        8.146659   0.000000
    6        8.401112   0.000000
    7        8.705736   0.000000
    8        9.997749   0.000000
    9       12.667721   0.000000
   10       13.108620   0.000000
   11       14.211347   0.000000
   12       16.367139   0.000000
   13       17.591916   0.000000
   14       17.970684   0.000000
   15       22.015442   0.000000
   16       26.413033   0.000000
 
 -0.3125000E-01  0.3125000E-01  0.3125000E-01  0.1464844E-02
    1       -6.152496   1.000000
    2        5.200403   1.000000
    3        5.462441   1.000000
    4        5.525600   1.000000
    5        8.125759   0.000000
    6        8.331035   0.000000
    7        8.377549   0.000000
    8        9.088247   0.000000
    9       13.034533   0.000000
   10       13.320121   0.000000
   11       13.696253   0.000000
   12       16.732814   0.000000
   13       16.941717   0.000000
   14       17.132012   0.000000
   15       21.218051   0.000000
   16       27.821998   0.000000
 
  0.9375000E-01  0.9375000E-01  0.3125000E-01  0.1464844E-02
    1       -6.085415   1.000000
    2        4.828803   1.000000
    3        5.240048   1.000000
    4        5.316539   1.000000
    5        7.979664   0.000000
    6        8.594775   0.000000
    7        8.680929   0.000000
    8        9.455025   0.000000
    9       12.644239   0.000000
   10       13.398067   0.000000
   11       13.973938   0.000000
   12       16.815200   0.000000
   13       17.056759   0.000000
   14       17.445575   0.000000
   15       21.676758   0.000000
   16       27.075189   0.000000
 
  0.1562500E+00  0.9375000E-01  0.3125000E-01  0.2929688E-02
    1       -5.951935   1.000000
    2        4.080684   1.000000
    3        4.854623   1.000000
    4        5.226835   1.000000
    5        7.961477   0.000000
    6        8.734330   0.000000
    7        9.020041   0.000000
    8       10.135869   0.000000
    9       12.286420   0.000000
   10       13.381719   0.000000
   11       14.468678   0.000000
   12       16.725020   0.000000
   13       17.348449   0.000000
   14       18.238314   0.000000
   15       22.458852   0.000000
   16       25.632971   0.000000
 
  0.2187500E+00  0.9375000E-01  0.3125000E-01  0.2929688E-02
    1       -5.721061   1.000000
    2        3.013906   1.000000
    3        4.557669   1.000000
    4        5.046792   1.000000
    5        8.084771   0.000000
    6        8.690025   0.000000
    7        9.399681   0.000000
    8       10.807172   0.000000
    9       12.320271   0.000000
   10       13.358757   0.000000
   11       15.029784   0.000000
   12       16.573422   0.000000
   13       18.233417   0.000000
   14       19.368342   0.000000
   15       23.447105   0.000000
   16       24.004227   0.000000
 
  0.2812500E+00  0.9375000E-01  0.3125000E-01  0.2929688E-02
    1       -5.398445   1.000000
    2        1.910507   1.000000
    3        4.319915   1.000000
    4        4.809305   1.000000
    5        8.039156   0.000000
    6        8.803498   0.000000
    7        9.623298   0.000000
    8       11.153121   0.000000
    9       12.878280   0.000000
   10       13.707275   0.000000
   11       15.043800   0.000000
   12       17.265341   0.000000
   13       19.283462   0.000000
   14       20.546004   0.000000
   15       22.460238   0.000000
   16       23.428809   0.000000
 
  0.3437500E+00  0.9375000E-01  0.3125000E-01  0.2929688E-02
    1       -4.995759   1.000000
    2        0.859642   1.000000
    3        4.137815   1.000000
    4        4.579677   1.000000
    5        7.885396   0.000000
    6        8.898128   0.000000
    7        9.636826   0.000000
    8       11.626538   0.000000
    9       13.564046   0.000000
   10       14.494609   0.000000
   11       14.840892   0.000000
   12       18.428507   0.000000
   13       19.694037   0.000000
   14       20.995969   0.000000
   15       21.878567   0.000000
   16       22.821821   0.000000
 
  0.4062500E+00  0.9375000E-01  0.3125000E-01  0.2929688E-02
    1       -4.539725   1.000000
    2       -0.081769   1.000000
    3        4.004935   1.000000
    4        4.398949   1.000000
    5        7.742502   0.000000
    6        8.891843   0.000000
    7        9.524073   0.000000
    8       12.363662   0.000000
    9       14.166148   0.000000
   10       14.759878   0.000000
   11       15.676314   0.000000
   12       18.401803   0.000000
   13       19.274191   0.000000
   14       20.546405   0.000000
   15       22.270491   0.000000
   16       23.047216   0.000000
 
  0.4687500E+00  0.9375000E-01  0.3125000E-01  0.2929688E-02
    1       -4.099229   1.000000
    2       -0.830433   1.000000
    3        3.907475   1.000000
    4        4.297063   1.000000
    5        7.646156   0.000000
    6        8.863297   0.000000
    7        9.389355   0.000000
    8       13.170682   0.000000
    9       14.305455   0.000000
   10       15.590901   0.000000
   11       16.784374   0.000000
   12       17.175792   0.000000
   13       18.278481   0.000000
   14       20.065758   0.000000
   15       22.926690   0.000000
   16       24.570920   0.000000
 
 -0.4687500E+00  0.9375000E-01  0.3125000E-01  0.2929688E-02
    1       -3.847513   1.000000
    2       -1.206175   1.000000
    3        3.838202   1.000000
    4        4.288297   1.000000
    5        7.607716   0.000000
    6        8.866367   0.000000
    7        9.298194   0.000000
    8       13.570751   0.000000
    9       14.798087   0.000000
   10       15.682123   0.000000
   11       16.869595   0.000000
   12       17.104261   0.000000
   13       18.053985   0.000000
   14       19.048624   0.000000
   15       24.533364   0.000000
   16       25.269421   0.000000
 
 -0.4062500E+00  0.9375000E-01  0.3125000E-01  0.2929688E-02
    1       -3.982325   1.000000
    2       -1.008876   1.000000
    3        3.807424   1.000000
    4        4.364548   1.000000
    5        7.630314   0.000000
    6        8.909605   0.000000
    7        9.283504   0.000000
    8       13.525505   0.000000
    9       14.487366   0.000000
   10       15.312882   0.000000
   11       16.680830   0.000000
   12       17.451666   0.000000
   13       18.340828   0.000000
   14       19.473449   0.000000
   15       23.365466   0.000000
   16       25.101022   0.000000
 
 -0.3437500E+00  0.9375000E-01  0.3125000E-01  0.2929688E-02
    1       -4.386193   1.000000
    2       -0.357226   1.000000
    3        3.830077   1.000000
    4        4.509532   1.000000
    5        7.712982   0.000000
    6        8.970000   0.000000
    7        9.348407   0.000000
    8       12.960485   0.000000
    9       13.876703   0.000000
   10       14.745532   0.000000
   11       16.321306   0.000000
   12       17.760754   0.000000
   13       19.526667   0.000000
   14       20.287718   0.000000
   15       22.152812   0.000000
   16       23.487908   0.000000
 
 -0.2812500E+00  0.9375000E-01  0.3125000E-01  0.2929688E-02
    1       -4.848260   1.000000
    2        0.532288   1.000000
    3        3.916452   1.000000
    4        4.707602   1.000000
    5        7.851014   0.000000
    6        9.000158   0.000000
    7        9.447327   0.000000
    8       12.181095   0.000000
    9       13.169649   0.000000
   10       14.730449   0.000000
   11       15.206290   0.000000
   12       18.550221   0.000000
   13       19.592619   0.000000
   14       21.029935   0.000000
   15       21.867128   0.000000
   16       22.817560   0.000000
 
 -0.2187500E+00  0.9375000E-01  0.3125000E-01  0.2929688E-02
    1       -5.272793   1.000000
    2        1.551573   1.000000
    3        4.072645   1.000000
    4        4.940885   1.000000
    5        8.032705   0.000000
    6        8.922642   0.000000
    7        9.470749   0.000000
    8       11.580366   0.000000
    9       12.539956   0.000000
   10       14.195390   0.000000
   11       14.993368   0.000000
   12       17.596618   0.000000
   13       19.503361   0.000000
   14       21.055955   0.000000
   15       21.803030   0.000000
   16       23.500499   0.000000
 
 -0.1562500E+00  0.9375000E-01  0.3125000E-01  0.2929688E-02
    1       -5.623729   1.000000
    2        2.637192   1.000000
    3        4.303894   1.000000
    4        5.181467   1.000000
    5        8.223783   0.000000
    6        8.702955   0.000000
    7        9.286676   0.000000
    8       11.144548   0.000000
    9       12.210873   0.000000
   10       13.482040   0.000000
   11       15.123433   0.000000
   12       16.682053   0.000000
   13       18.474802   0.000000
   14       19.977862   0.000000
   15       23.158906   0.000000
   16       23.698212   0.000000
 
 -0.9375000E-01  0.9375000E-01  0.3125000E-01  0.2929688E-02
    1       -5.885885   1.000000
    2        3.699838   1.000000
    3        4.628971   1.000000
    4        5.378986   1.000000
    5        8.258375   0.000000
    6        8.559875   0.000000
    7        8.911622   0.000000
    8       10.525813   0.000000
    9       12.278345   0.000000
   10       13.242486   0.000000
   11       14.670996   0.000000
   12       16.601915   0.000000
   13       17.496766   0.000000
   14       18.821549   0.000000
   15       22.728687   0.000000
   16       24.823497   0.000000
 
 -0.3125000E-01  0.9375000E-01  0.3125000E-01  0.2929688E-02
    1       -6.052089   1.000000
    2        4.502891   1.000000
    3        5.124981   1.000000
    4        5.460943   1.000000
    5        8.143908   0.000000
    6        8.449897   0.000000
    7        8.640746   0.000000
    8        9.763447   0.000000
    9       12.640790   0.000000
   10       13.254709   0.000000
   11       14.100059   0.000000
   12       16.617659   0.000000
   13       17.173292   0.000000
   14       17.836652   0.000000
   15       21.851307   0.000000
   16       26.469681   0.000000
 
  0.1562500E+00  0.1562500E+00  0.3125000E-01  0.1464844E-02
    1       -5.851458   1.000000
    2        3.909393   1.000000
    3        4.689350   1.000000
    4        4.728077   1.000000
    5        7.569020   0.000000
    6        9.378965   0.000000
    7        9.511824   0.000000
    8       10.032438   0.000000
    9       12.056722   0.000000
   10       13.670621   0.000000
   11       14.836180   0.000000
   12       17.196329   0.000000
   13       17.455003   0.000000
   14       18.121200   0.000000
   15       23.122715   0.000000
   16       25.407635   0.000000
 
  0.2187500E+00  0.1562500E+00  0.3125000E-01  0.2929688E-02
    1       -5.652833   1.000000
    2        3.169377   1.000000
    3        4.280655   1.000000
    4        4.601387   1.000000
    5        7.528109   0.000000
    6        9.463663   0.000000
    7        9.939083   0.000000
    8       10.206762   0.000000
    9       12.367959   0.000000
   10       13.789748   0.000000
   11       15.427899   0.000000
   12       17.181764   0.000000
   13       17.862109   0.000000
   14       19.002522   0.000000
   15       23.941979   0.000000
   16       24.045248   0.000000
 
  0.2812500E+00  0.1562500E+00  0.3125000E-01  0.2929688E-02
    1       -5.360387   1.000000
    2        2.193783   1.000000
    3        3.971876   1.000000
    4        4.397898   1.000000
    5        7.710236   0.000000
    6        9.391707   0.000000
    7       10.187049   0.000000
    8       10.268457   0.000000
    9       13.177885   0.000000
   10       14.060490   0.000000
   11       15.793857   0.000000
   12       17.337807   0.000000
   13       18.738917   0.000000
   14       20.203498   0.000000
   15       22.399856   0.000000
   16       23.404215   0.000000
 
  0.3437500E+00  0.1562500E+00  0.3125000E-01  0.2929688E-02
    1       -4.983025   1.000000
    2        1.188047   1.000000
    3        3.715887   1.000000
    4        4.179696   1.000000
    5        7.837579   0.000000
    6        9.416345   0.000000
    7       10.270375   0.000000
    8       10.391464   0.000000
    9       13.993873   0.000000
   10       14.822265   0.000000
   11       15.610862   0.000000
   12       18.222766   0.000000
   13       19.371835   0.000000
   14       20.906154   0.000000
   15       21.476220   0.000000
   16       22.731156   0.000000
 
  0.4062500E+00  0.1562500E+00  0.3125000E-01  0.2929688E-02
    1       -4.540412   1.000000
    2        0.243125   1.000000
    3        3.484183   1.000000
    4        4.028085   1.000000
    5        7.840562   0.000000
    6        9.353316   0.000000
    7       10.252122   0.000000
    8       10.902875   0.000000
    9       14.793285   0.000000
   10       15.334607   0.000000
   11       15.937815   0.000000
   12       18.309902   0.000000
   13       19.127714   0.000000
   14       20.687378   0.000000
   15       22.200005   0.000000
   16       23.307390   0.000000
 
  0.4687500E+00  0.1562500E+00  0.3125000E-01  0.2929688E-02
    1       -4.081495   1.000000
    2       -0.561332   1.000000
    3        3.276073   1.000000
    4        3.972993   1.000000
    5        7.819720   0.000000
    6        9.243225   0.000000
    7       10.100726   0.000000
    8       11.807917   0.000000
    9       14.895118   0.000000
   10       15.896922   0.000000
   11       17.079005   0.000000
   12       17.139754   0.000000
   13       18.293744   0.000000
   14       21.359602   0.000000
   15       22.730910   0.000000
   16       23.694896   0.000000
 
 -0.4687500E+00  0.1562500E+00  0.3125000E-01  0.2929688E-02
    1       -3.738166   1.000000
    2       -1.079068   1.000000
    3        3.109447   1.000000
    4        4.010305   1.000000
    5        7.840601   0.000000
    6        9.162943   0.000000
    7        9.959208   0.000000
    8       12.861343   0.000000
    9       14.544437   0.000000
   10       15.692108   0.000000
   11       17.007130   0.000000
   12       17.374060   0.000000
   13       18.449350   0.000000
   14       20.580492   0.000000
   15       23.914199   0.000000
   16       25.119763   0.000000
 
 -0.4062500E+00  0.1562500E+00  0.3125000E-01  0.2929688E-02
    1       -3.741254   1.000000
    2       -1.073523   1.000000
    3        3.002253   1.000000
    4        4.127836   1.000000
    5        7.922295   0.000000
    6        9.135076   0.000000
    7        9.867030   0.000000
    8       13.720231   0.000000
    9       14.005675   0.000000
   10       14.787905   0.000000
   11       16.505013   0.000000
   12       18.532275   0.000000
   13       19.250299   0.000000
   14       19.740386   0.000000
   15       23.419363   0.000000
   16       25.328911   0.000000
 
 -0.3437500E+00  0.1562500E+00  0.3125000E-01  0.2929688E-02
    1       -4.087649   1.000000
    2       -0.548636   1.000000
    3        2.968188   1.000000
    4        4.312562   1.000000
    5        8.061151   0.000000
    6        9.155584   0.000000
    7        9.831012   0.000000
    8       12.821498   0.000000
    9       13.800375   0.000000
   10       14.828809   0.000000
   11       16.778535   0.000000
   12       18.035467   0.000000
   13       19.823823   0.000000
   14       20.633462   0.000000
   15       22.043536   0.000000
   16       23.777981   0.000000
 
 -0.2812500E+00  0.1562500E+00  0.3125000E-01  0.2929688E-02
    1       -4.546585   1.000000
    2        0.256008   1.000000
    3        3.019988   1.000000
    4        4.548735   1.000000
    5        8.242307   0.000000
    6        9.180692   0.000000
    7        9.827948   0.000000
    8       11.924552   0.000000
    9       12.923753   0.000000
   10       15.325497   0.000000
   11       16.813860   0.000000
   12       17.630993   0.000000
   13       19.766876   0.000000
   14       21.246559   0.000000
   15       21.745837   0.000000
   16       22.966386   0.000000
 
 -0.2187500E+00  0.1562500E+00  0.3125000E-01  0.2929688E-02
    1       -4.988237   1.000000
    2        1.185998   1.000000
    3        3.177073   1.000000
    4        4.813385   1.000000
    5        8.443296   0.000000
    6        9.096514   0.000000
    7        9.784974   0.000000
    8       11.270790   0.000000
    9       12.274364   0.000000
   10       15.545078   0.000000
   11       15.765899   0.000000
   12       17.726366   0.000000
   13       19.413356   0.000000
   14       20.693763   0.000000
   15       21.906884   0.000000
   16       23.635461   0.000000
 
 -0.1562500E+00  0.1562500E+00  0.3125000E-01  0.2929688E-02
    1       -5.364414   1.000000
    2        2.124770   1.000000
    3        3.489031   1.000000
    4        5.068459   1.000000
    5        8.621205   0.000000
    6        8.817238   0.000000
    7        9.550303   0.000000
    8       10.997019   0.000000
    9       12.015597   0.000000
   10       14.484748   0.000000
   11       15.808846   0.000000
   12       17.013628   0.000000
   13       18.671979   0.000000
   14       21.084788   0.000000
   15       21.554419   0.000000
   16       24.128708   0.000000
 
 -0.9375000E-01  0.1562500E+00  0.3125000E-01  0.2929688E-02
    1       -5.655666   1.000000
    2        2.894929   1.000000
    3        4.065828   1.000000
    4        5.250789   1.000000
    5        8.449206   0.000000
    6        8.665629   0.000000
    7        9.210127   0.000000
    8       10.956393   0.000000
    9       12.082113   0.000000
   10       13.591980   0.000000
   11       15.282928   0.000000
   12       16.736234   0.000000
   13       17.985823   0.000000
   14       19.940408   0.000000
   15       23.139325   0.000000
   16       23.654178   0.000000
 
 -0.3125000E-01  0.1562500E+00  0.3125000E-01  0.2929688E-02
    1       -5.853136   1.000000
    2        3.420747   1.000000
    3        4.838150   1.000000
    4        5.288218   1.000000
    5        8.138311   0.000000
    6        8.534974   0.000000
    7        9.022856   0.000000
    8       10.715107   0.000000
    9       12.352575   0.000000
   10       13.120813   0.000000
   11       14.697787   0.000000
   12       16.350989   0.000000
   13       18.027412   0.000000
   14       18.884363   0.000000
   15       22.839521   0.000000
   16       24.842471   0.000000
 
  0.2187500E+00  0.2187500E+00  0.3125000E-01  0.1464844E-02
    1       -5.486314   1.000000
    2        2.873350   1.000000
    3        4.138251   1.000000
    4        4.139924   1.000000
    5        7.121539   0.000000
    6        9.441871   0.000000
    7       10.452836   0.000000
    8       10.492936   0.000000
    9       12.666419   0.000000
   10       14.097965   0.000000
   11       15.966765   0.000000
   12       17.813000   0.000000
   13       18.054231   0.000000
   14       18.843473   0.000000
   15       23.763409   0.000000
   16       23.865969   0.000000
 
  0.2812500E+00  0.2187500E+00  0.3125000E-01  0.2929688E-02
    1       -5.224682   1.000000
    2        2.192314   1.000000
    3        3.746167   1.000000
    4        3.989250   1.000000
    5        7.105035   0.000000
    6        9.108749   0.000000
    7       10.684148   0.000000
    8       10.968250   0.000000
    9       13.424349   0.000000
   10       14.388986   0.000000
   11       16.544960   0.000000
   12       17.894583   0.000000
   13       18.549646   0.000000
   14       19.747377   0.000000
   15       22.411895   0.000000
   16       23.164559   0.000000
 
  0.3437500E+00  0.2187500E+00  0.3125000E-01  0.2929688E-02
    1       -4.874747   1.000000
    2        1.352478   1.000000
    3        3.380287   1.000000
    4        3.797647   1.000000
    5        7.310273   0.000000
    6        9.080902   0.000000
    7       10.605218   0.000000
    8       11.203847   0.000000
    9       14.338601   0.000000
   10       15.042856   0.000000
   11       16.626015   0.000000
   12       18.320173   0.000000
   13       19.146370   0.000000
   14       20.612647   0.000000
   15       21.303660   0.000000
   16       22.494147   0.000000
 
  0.4062500E+00  0.2187500E+00  0.3125000E-01  0.2929688E-02
    1       -4.450967   1.000000
    2        0.486197   1.000000
    3        3.019760   1.000000
    4        3.667445   1.000000
    5        7.440824   0.000000
    6        9.526164   0.000000
    7       10.431137   0.000000
    8       11.188708   0.000000
    9       15.219106   0.000000
   10       16.107812   0.000000
   11       16.314519   0.000000
   12       18.320438   0.000000
   13       19.164927   0.000000
   14       20.479419   0.000000
   15       21.694107   0.000000
   16       23.282604   0.000000
 
  0.4687500E+00  0.2187500E+00  0.3125000E-01  0.2929688E-02
    1       -3.988041   1.000000
    2       -0.311731   1.000000
    3        2.693340   1.000000
    4        3.629368   1.000000
    5        7.482555   0.000000
    6       10.229972   0.000000
    7       10.380239   0.000000
    8       11.047995   0.000000
    9       15.725915   0.000000
   10       16.221202   0.000000
   11       17.206562   0.000000
   12       17.362458   0.000000
   13       18.474050   0.000000
   14       21.442138   0.000000
   15       22.922557   0.000000
   16       23.846483   0.000000
 
 -0.4687500E+00  0.2187500E+00  0.3125000E-01  0.2929688E-02
    1       -3.581461   1.000000
    2       -0.914472   1.000000
    3        2.429709   1.000000
    4        3.680079   1.000000
    5        7.544090   0.000000