
 Sitting POTCAR..


Initializing SCF run using PBE..


 running on   16 total cores
 distrk:  each k-point on   16 cores,    1 groups
 distr:  one band on    1 cores,   16 groups
 using from now: INCAR     
 vasp.5.4.4.18Apr17-6-g9f103f2a35 (build Jul 29 2018 09:17:02) complex          
  
 POSCAR found :  1 types and       2 ions
 scaLAPACK will be used

 ----------------------------------------------------------------------------- 
|                                                                             |
|           W    W    AA    RRRRR   N    N  II  N    N   GGGG   !!!           |
|           W    W   A  A   R    R  NN   N  II  NN   N  G    G  !!!           |
|           W    W  A    A  R    R  N N  N  II  N N  N  G       !!!           |
|           W WW W  AAAAAA  RRRRR   N  N N  II  N  N N  G  GGG   !            |
|           WW  WW  A    A  R   R   N   NN  II  N   NN  G    G                |
|           W    W  A    A  R    R  N    N  II  N    N   GGGG   !!!           |
|                                                                             |
|      For optimal performance we recommend to set                            |
|        NCORE= 4 - approx SQRT( number of cores)                             |
|      NCORE specifies how many cores store one orbital (NPAR=cpu/NCORE).     |
|      This setting can  greatly improve the performance of VASP for DFT.     |
|      The default,   NCORE=1            might be grossly inefficient         |
|      on modern multi-core architectures or massively parallel machines.     |
|      Do your own testing !!!!                                               |
|      Unfortunately you need to use the default for GW and RPA calculations. |
|      (for HF NCORE is supported but not extensively tested yet)             |
|                                                                             |
 ----------------------------------------------------------------------------- 

 LDA part: xc-table for Pade appr. of Perdew
 POSCAR, INCAR and KPOINTS ok, starting setup
 FFT: planning ...
 WAVECAR not read
 entering main loop
       N       E                     dE             d eps       ncg     rms          rms(c)
DAV:   1    -0.457489025542E+00   -0.45749E+00   -0.35960E+03 13056   0.449E+02
DAV:   2    -0.109337531795E+02   -0.10476E+02   -0.10297E+02 18944   0.384E+01
DAV:   3    -0.110052725430E+02   -0.71519E-01   -0.71519E-01 14800   0.403E+00
DAV:   4    -0.110054699236E+02   -0.19738E-03   -0.19738E-03 23936   0.233E-01
DAV:   5    -0.110054699378E+02   -0.14262E-07   -0.14255E-07 14768   0.164E-03    0.464E+00
DAV:   6    -0.108965376406E+02    0.10893E+00   -0.70528E-02 18064   0.694E-01    0.281E+00
DAV:   7    -0.108454866183E+02    0.51051E-01   -0.13536E-01 19888   0.103E+00    0.151E-01
DAV:   8    -0.108465746445E+02   -0.10880E-02   -0.27333E-03 15920   0.202E-01    0.781E-02
DAV:   9    -0.108467889152E+02   -0.21427E-03   -0.23898E-04 22192   0.606E-02    0.511E-02
DAV:  10    -0.108468015348E+02   -0.12620E-04   -0.85627E-06 11344   0.130E-02
   1 F= -.10846802E+02 E0= -.10846802E+02  d E =-.679013E-09
 writing wavefunctions
1. Optimizing Lattic parameter..


 running on   16 total cores
 distrk:  each k-point on   16 cores,    1 groups
 distr:  one band on    1 cores,   16 groups
 using from now: INCAR     
 vasp.5.4.4.18Apr17-6-g9f103f2a35 (build Jul 29 2018 09:17:02) complex          
  
 POSCAR found :  1 types and       2 ions
 scaLAPACK will be used

 ----------------------------------------------------------------------------- 
|                                                                             |
|           W    W    AA    RRRRR   N    N  II  N    N   GGGG   !!!           |
|           W    W   A  A   R    R  NN   N  II  NN   N  G    G  !!!           |
|           W    W  A    A  R    R  N N  N  II  N N  N  G       !!!           |
|           W WW W  AAAAAA  RRRRR   N  N N  II  N  N N  G  GGG   !            |
|           WW  WW  A    A  R   R   N   NN  II  N   NN  G    G                |
|           W    W  A    A  R    R  N    N  II  N    N   GGGG   !!!           |
|                                                                             |
|      For optimal performance we recommend to set                            |
|        NCORE= 4 - approx SQRT( number of cores)                             |
|      NCORE specifies how many cores store one orbital (NPAR=cpu/NCORE).     |
|      This setting can  greatly improve the performance of VASP for DFT.     |
|      The default,   NCORE=1            might be grossly inefficient         |
|      on modern multi-core architectures or massively parallel machines.     |
|      Do your own testing !!!!                                               |
|      Unfortunately you need to use the default for GW and RPA calculations. |
|      (for HF NCORE is supported but not extensively tested yet)             |
|                                                                             |
 ----------------------------------------------------------------------------- 

 LDA part: xc-table for Pade appr. of Perdew
 found WAVECAR, reading the header
 POSCAR, INCAR and KPOINTS ok, starting setup
 FFT: planning ...
 reading WAVECAR
 the WAVECAR file was read successfully
 initial charge from wavefunction
 entering main loop
       N       E                     dE             d eps       ncg     rms          rms(c)
DAV:   1    -0.108468041065E+02   -0.10847E+02   -0.40619E-06 22080   0.783E-03    0.106E-03
DAV:   2    -0.108468041509E+02   -0.44458E-07   -0.23500E-08 16080   0.785E-04    0.665E-04
DAV:   3    -0.108468041986E+02   -0.47637E-07   -0.40594E-08 21600   0.802E-04    0.677E-05
DAV:   4    -0.108468041949E+02    0.36105E-08   -0.42812E-10 14144   0.949E-05
   1 F= -.10846804E+02 E0= -.10846804E+02  d E =-.108468E+02
 curvature:   0.00 expect dE= 0.000E+00 dE for cont linesearch  0.000E+00
 trial: gam= 0.00000 g(F)=  0.878E-46 g(S)=  0.104E-01 ort = 0.000E+00 (trialstep = 0.100E+01)
 search vector abs. value=  0.104E-01
 bond charge predicted
       N       E                     dE             d eps       ncg     rms          rms(c)
DAV:   1    -0.108530998420E+02   -0.62956E-02   -0.16822E-01 15728   0.118E+00    0.403E-01
DAV:   2    -0.108502632521E+02    0.28366E-02   -0.20443E-03 16064   0.175E-01    0.233E-01
DAV:   3    -0.108488274887E+02    0.14358E-02   -0.30593E-03 16640   0.143E-01    0.865E-02
DAV:   4    -0.108488290166E+02   -0.15279E-05   -0.17071E-05 19056   0.213E-02    0.783E-02
DAV:   5    -0.108488302373E+02   -0.12206E-05   -0.47358E-06 18320   0.822E-03    0.114E-02
DAV:   6    -0.108488319970E+02   -0.17597E-05   -0.59764E-07 19120   0.303E-03    0.107E-02
DAV:   7    -0.108488319927E+02    0.43289E-08   -0.11744E-07 18080   0.138E-03    0.266E-03
DAV:   8    -0.108488319707E+02    0.21939E-07   -0.53481E-09 21040   0.288E-04    0.290E-03
DAV:   9    -0.108488319567E+02    0.14061E-07   -0.12442E-09 10000   0.162E-04    0.526E-05
DAV:  10    -0.108488319598E+02   -0.31016E-08   -0.46593E-11  7936   0.357E-05
   2 F= -.10848832E+02 E0= -.10848832E+02  d E =-.202776E-02
 trial-energy change:   -0.002028  1 .order   -0.001894   -0.010446    0.006658
 step:   0.6218(harm=  0.6107)  dis= 0.00000  next Energy=   -10.850084 (dE=-0.328E-02)
 bond charge predicted
       N       E                     dE             d eps       ncg     rms          rms(c)
DAV:   1    -0.108507169593E+02   -0.18850E-02   -0.23799E-02 15840   0.441E-01    0.152E-01
DAV:   2    -0.108503078203E+02    0.40914E-03   -0.29298E-04 15776   0.661E-02    0.880E-02
DAV:   3    -0.108500937483E+02    0.21407E-03   -0.43747E-04 16816   0.539E-02    0.319E-02
DAV:   4    -0.108500934664E+02    0.28189E-06   -0.24464E-06 18752   0.803E-03    0.285E-02
DAV:   5    -0.108500909489E+02    0.25175E-05   -0.73412E-07 18080   0.320E-03    0.376E-03
DAV:   6    -0.108500904148E+02    0.53412E-06   -0.74121E-08 19328   0.107E-03    0.351E-03
DAV:   7    -0.108500904745E+02   -0.59728E-07   -0.18403E-08 17904   0.539E-04    0.108E-03
DAV:   8    -0.108500904816E+02   -0.71357E-08   -0.47462E-10 12112   0.868E-05
   3 F= -.10850090E+02 E0= -.10850090E+02  d E =-.328629E-02
 curvature:  -0.31 expect dE=-0.442E-07 dE for cont linesearch -0.442E-07
 trial: gam= 0.00000 g(F)=  0.185E-45 g(S)=  0.145E-06 ort =-0.389E-04 (trialstep = 0.924E+00)
 search vector abs. value=  0.145E-06
 reached required accuracy - stopping structural energy minimisation
 writing wavefunctions
