       N       E                     dE             d eps       ncg     rms          rms(c)
DAV:   1    -0.108468041065E+02   -0.10847E+02   -0.40619E-06 22080   0.783E-03    0.106E-03
DAV:   2    -0.108468041509E+02   -0.44458E-07   -0.23500E-08 16080   0.785E-04    0.665E-04
DAV:   3    -0.108468041986E+02   -0.47637E-07   -0.40594E-08 21600   0.802E-04    0.677E-05
DAV:   4    -0.108468041949E+02    0.36105E-08   -0.42812E-10 14144   0.949E-05
   1 F= -.10846804E+02 E0= -.10846804E+02  d E =-.108468E+02
       N       E                     dE             d eps       ncg     rms          rms(c)
DAV:   1    -0.108530998420E+02   -0.62956E-02   -0.16822E-01 15728   0.118E+00    0.403E-01
DAV:   2    -0.108502632521E+02    0.28366E-02   -0.20443E-03 16064   0.175E-01    0.233E-01
DAV:   3    -0.108488274887E+02    0.14358E-02   -0.30593E-03 16640   0.143E-01    0.865E-02
DAV:   4    -0.108488290166E+02   -0.15279E-05   -0.17071E-05 19056   0.213E-02    0.783E-02
DAV:   5    -0.108488302373E+02   -0.12206E-05   -0.47358E-06 18320   0.822E-03    0.114E-02
DAV:   6    -0.108488319970E+02   -0.17597E-05   -0.59764E-07 19120   0.303E-03    0.107E-02
DAV:   7    -0.108488319927E+02    0.43289E-08   -0.11744E-07 18080   0.138E-03    0.266E-03
DAV:   8    -0.108488319707E+02    0.21939E-07   -0.53481E-09 21040   0.288E-04    0.290E-03
DAV:   9    -0.108488319567E+02    0.14061E-07   -0.12442E-09 10000   0.162E-04    0.526E-05
DAV:  10    -0.108488319598E+02   -0.31016E-08   -0.46593E-11  7936   0.357E-05
   2 F= -.10848832E+02 E0= -.10848832E+02  d E =-.202776E-02
       N       E                     dE             d eps       ncg     rms          rms(c)
DAV:   1    -0.108507169593E+02   -0.18850E-02   -0.23799E-02 15840   0.441E-01    0.152E-01
DAV:   2    -0.108503078203E+02    0.40914E-03   -0.29298E-04 15776   0.661E-02    0.880E-02
DAV:   3    -0.108500937483E+02    0.21407E-03   -0.43747E-04 16816   0.539E-02    0.319E-02
DAV:   4    -0.108500934664E+02    0.28189E-06   -0.24464E-06 18752   0.803E-03    0.285E-02
DAV:   5    -0.108500909489E+02    0.25175E-05   -0.73412E-07 18080   0.320E-03    0.376E-03
DAV:   6    -0.108500904148E+02    0.53412E-06   -0.74121E-08 19328   0.107E-03    0.351E-03
DAV:   7    -0.108500904745E+02   -0.59728E-07   -0.18403E-08 17904   0.539E-04    0.108E-03
DAV:   8    -0.108500904816E+02   -0.71357E-08   -0.47462E-10 12112   0.868E-05
   3 F= -.10850090E+02 E0= -.10850090E+02  d E =-.328629E-02
