<?xml version="1.0" encoding="ISO-8859-1"?>
<modeling>
 <generator>
  <i name="program" type="string">vasp </i>
  <i name="version" type="string">5.4.4.18Apr17-6-g9f103f2a35  </i>
  <i name="subversion" type="string">(build Jul 29 2018 09:17:02) complex            parallel </i>
  <i name="platform" type="string">LinuxIFC </i>
  <i name="date" type="string">2018 08 05 </i>
  <i name="time" type="string">18:30:01 </i>
 </generator>
 <incar>
  <i type="string" name="SYSTEM"> Si</i>
  <i type="string" name="PREC">normal</i>
  <i type="int" name="IBRION">     2</i>
  <i name="EDIFF">      0.00000001</i>
  <i name="EDIFFG">     -0.01000000</i>
  <i type="int" name="NSW">    15</i>
  <i type="int" name="ISIF">     3</i>
  <i name="ENCUT">    600.00000000</i>
  <i type="int" name="ISMEAR">     0</i>
  <i name="SIGMA">      0.10000000</i>
  <v type="int" name="KPOINT_BSE">    -1     0     0     0</v>
  <i type="string" name="GGA"> PE</i>
 </incar>
 <structure name="primitive_cell" >
  <crystal>
   <varray name="basis" >
    <v>       0.00000000       2.75000000       2.75000000 </v>
    <v>       2.75000000       0.00000000       2.75000000 </v>
    <v>       2.75000000       2.75000000       0.00000000 </v>
   </varray>
   <i name="volume">     41.59375000 </i>
   <varray name="rec_basis" >
    <v>      -0.18181818       0.18181818       0.18181818 </v>
    <v>       0.18181818      -0.18181818       0.18181818 </v>
    <v>       0.18181818       0.18181818      -0.18181818 </v>
   </varray>
  </crystal>
  <varray name="positions" >
   <v>      -0.12500000      -0.12500000      -0.12500000 </v>
   <v>       0.12500000       0.12500000       0.12500000 </v>
  </varray>
 </structure>
 <varray name="primitive_index" >
  <v type="int" >        1 </v>
  <v type="int" >        2 </v>
 </varray>
 <kpoints>
  <generation param="Monkhorst-Pack">
   <v type="int" name="divisions">      16       16       16 </v>
   <v name="usershift">      0.00000000       0.00000000       0.00000000 </v>
   <v name="genvec1">      0.06250000       0.00000000       0.00000000 </v>
   <v name="genvec2">      0.00000000       0.06250000       0.00000000 </v>
   <v name="genvec3">      0.00000000       0.00000000       0.06250000 </v>
   <v name="shift">      0.50000000       0.50000000       0.50000000 </v>
  </generation>
  <varray name="kpointlist" >
   <v>       0.03125000       0.03125000       0.03125000 </v>
   <v>       0.09375000       0.03125000       0.03125000 </v>
   <v>       0.15625000       0.03125000       0.03125000 </v>
   <v>       0.21875000       0.03125000       0.03125000 </v>
   <v>       0.28125000       0.03125000       0.03125000 </v>
   <v>       0.34375000       0.03125000       0.03125000 </v>
   <v>       0.40625000       0.03125000       0.03125000 </v>
   <v>       0.46875000       0.03125000       0.03125000 </v>
   <v>      -0.46875000       0.03125000       0.03125000 </v>
   <v>      -0.40625000       0.03125000       0.03125000 </v>
   <v>      -0.34375000       0.03125000       0.03125000 </v>
   <v>      -0.28125000       0.03125000       0.03125000 </v>
   <v>      -0.21875000       0.03125000       0.03125000 </v>
   <v>      -0.15625000       0.03125000       0.03125000 </v>
   <v>      -0.09375000       0.03125000       0.03125000 </v>
   <v>      -0.03125000       0.03125000       0.03125000 </v>
   <v>       0.09375000       0.09375000       0.03125000 </v>
   <v>       0.15625000       0.09375000       0.03125000 </v>
   <v>       0.21875000       0.09375000       0.03125000 </v>
   <v>       0.28125000       0.09375000       0.03125000 </v>
   <v>       0.34375000       0.09375000       0.03125000 </v>
   <v>       0.40625000       0.09375000       0.03125000 </v>
   <v>       0.46875000       0.09375000       0.03125000 </v>
   <v>      -0.46875000       0.09375000       0.03125000 </v>
   <v>      -0.40625000       0.09375000       0.03125000 </v>
   <v>      -0.34375000       0.09375000       0.03125000 </v>
   <v>      -0.28125000       0.09375000       0.03125000 </v>
   <v>      -0.21875000       0.09375000       0.03125000 </v>
   <v>      -0.15625000       0.09375000       0.03125000 </v>
   <v>      -0.09375000       0.09375000       0.03125000 </v>
   <v>      -0.03125000       0.09375000       0.03125000 </v>
   <v>       0.15625000       0.15625000       0.03125000 </v>
   <v>       0.21875000       0.15625000       0.03125000 </v>
   <v>       0.28125000       0.15625000       0.03125000 </v>
   <v>       0.34375000       0.15625000       0.03125000 </v>
   <v>       0.40625000       0.15625000       0.03125000 </v>
   <v>       0.46875000       0.15625000       0.03125000 </v>
   <v>      -0.46875000       0.15625000       0.03125000 </v>
   <v>      -0.40625000       0.15625000       0.03125000 </v>
   <v>      -0.34375000       0.15625000       0.03125000 </v>
   <v>      -0.28125000       0.15625000       0.03125000 </v>
   <v>      -0.21875000       0.15625000       0.03125000 </v>
   <v>      -0.15625000       0.15625000       0.03125000 </v>
   <v>      -0.09375000       0.15625000       0.03125000 </v>
   <v>      -0.03125000       0.15625000       0.03125000 </v>
   <v>       0.21875000       0.21875000       0.03125000 </v>
   <v>       0.28125000       0.21875000       0.03125000 </v>
   <v>       0.34375000       0.21875000       0.03125000 </v>
   <v>       0.40625000       0.21875000       0.03125000 </v>
   <v>       0.46875000       0.21875000       0.03125000 </v>
   <v>      -0.46875000       0.21875000       0.03125000 </v>
   <v>      -0.40625000       0.21875000       0.03125000 </v>
   <v>      -0.34375000       0.21875000       0.03125000 </v>
   <v>      -0.28125000       0.21875000       0.03125000 </v>
   <v>      -0.21875000       0.21875000       0.03125000 </v>
   <v>      -0.15625000       0.21875000       0.03125000 </v>
   <v>      -0.09375000       0.21875000       0.03125000 </v>
   <v>      -0.03125000       0.21875000       0.03125000 </v>
   <v>       0.28125000       0.28125000       0.03125000 </v>
   <v>       0.34375000       0.28125000       0.03125000 </v>
   <v>       0.40625000       0.28125000       0.03125000 </v>
   <v>       0.46875000       0.28125000       0.03125000 </v>
   <v>      -0.46875000       0.28125000       0.03125000 </v>
   <v>      -0.40625000       0.28125000       0.03125000 </v>
   <v>      -0.34375000       0.28125000       0.03125000 </v>
   <v>      -0.28125000       0.28125000       0.03125000 </v>
   <v>      -0.21875000       0.28125000       0.03125000 </v>
   <v>      -0.15625000       0.28125000       0.03125000 </v>
   <v>      -0.09375000       0.28125000       0.03125000 </v>
   <v>      -0.03125000       0.28125000       0.03125000 </v>
   <v>       0.34375000       0.34375000       0.03125000 </v>
   <v>       0.40625000       0.34375000       0.03125000 </v>
   <v>       0.46875000       0.34375000       0.03125000 </v>
   <v>      -0.46875000       0.34375000       0.03125000 </v>
   <v>      -0.40625000       0.34375000       0.03125000 </v>
   <v>      -0.34375000       0.34375000       0.03125000 </v>
   <v>      -0.28125000       0.34375000       0.03125000 </v>
   <v>      -0.21875000       0.34375000       0.03125000 </v>
   <v>      -0.15625000       0.34375000       0.03125000 </v>
   <v>      -0.09375000       0.34375000       0.03125000 </v>
   <v>      -0.03125000       0.34375000       0.03125000 </v>
   <v>       0.40625000       0.40625000       0.03125000 </v>
   <v>       0.46875000       0.40625000       0.03125000 </v>
   <v>      -0.46875000       0.40625000       0.03125000 </v>
   <v>      -0.40625000       0.40625000       0.03125000 </v>
   <v>      -0.34375000       0.40625000       0.03125000 </v>
   <v>      -0.28125000       0.40625000       0.03125000 </v>
   <v>      -0.21875000       0.40625000       0.03125000 </v>
   <v>      -0.15625000       0.40625000       0.03125000 </v>
   <v>      -0.09375000       0.40625000       0.03125000 </v>
   <v>      -0.03125000       0.40625000       0.03125000 </v>
   <v>       0.46875000       0.46875000       0.03125000 </v>
   <v>      -0.46875000       0.46875000       0.03125000 </v>
   <v>      -0.40625000       0.46875000       0.03125000 </v>
   <v>      -0.34375000       0.46875000       0.03125000 </v>
   <v>      -0.28125000       0.46875000       0.03125000 </v>
   <v>      -0.21875000       0.46875000       0.03125000 </v>
   <v>      -0.15625000       0.46875000       0.03125000 </v>
   <v>      -0.09375000       0.46875000       0.03125000 </v>
   <v>      -0.03125000       0.46875000       0.03125000 </v>
   <v>      -0.46875000      -0.46875000       0.03125000 </v>
   <v>      -0.40625000      -0.46875000       0.03125000 </v>
   <v>      -0.34375000      -0.46875000       0.03125000 </v>
   <v>      -0.28125000      -0.46875000       0.03125000 </v>
   <v>      -0.21875000      -0.46875000       0.03125000 </v>
   <v>      -0.15625000      -0.46875000       0.03125000 </v>
   <v>      -0.09375000      -0.46875000       0.03125000 </v>
   <v>      -0.40625000      -0.40625000       0.03125000 </v>
   <v>      -0.34375000      -0.40625000       0.03125000 </v>
   <v>      -0.28125000      -0.40625000       0.03125000 </v>
   <v>      -0.21875000      -0.40625000       0.03125000 </v>
   <v>      -0.15625000      -0.40625000       0.03125000 </v>
   <v>      -0.09375000      -0.40625000       0.03125000 </v>
   <v>      -0.34375000      -0.34375000       0.03125000 </v>
   <v>      -0.28125000      -0.34375000       0.03125000 </v>
   <v>      -0.21875000      -0.34375000       0.03125000 </v>
   <v>      -0.15625000      -0.34375000       0.03125000 </v>
   <v>      -0.09375000      -0.34375000       0.03125000 </v>
   <v>      -0.28125000      -0.28125000       0.03125000 </v>
   <v>      -0.21875000      -0.28125000       0.03125000 </v>
   <v>      -0.15625000      -0.28125000       0.03125000 </v>
   <v>      -0.09375000      -0.28125000       0.03125000 </v>
   <v>      -0.21875000      -0.21875000       0.03125000 </v>
   <v>      -0.15625000      -0.21875000       0.03125000 </v>
   <v>      -0.09375000      -0.21875000       0.03125000 </v>
   <v>      -0.15625000      -0.15625000       0.03125000 </v>
   <v>      -0.09375000      -0.15625000       0.03125000 </v>
   <v>      -0.09375000      -0.09375000       0.03125000 </v>
   <v>       0.09375000       0.09375000       0.09375000 </v>
   <v>       0.15625000       0.09375000       0.09375000 </v>
   <v>       0.21875000       0.09375000       0.09375000 </v>
   <v>       0.28125000       0.09375000       0.09375000 </v>
   <v>       0.34375000       0.09375000       0.09375000 </v>
   <v>       0.40625000       0.09375000       0.09375000 </v>
   <v>       0.46875000       0.09375000       0.09375000 </v>
   <v>      -0.46875000       0.09375000       0.09375000 </v>
   <v>      -0.40625000       0.09375000       0.09375000 </v>
   <v>      -0.34375000       0.09375000       0.09375000 </v>
   <v>      -0.28125000       0.09375000       0.09375000 </v>
   <v>      -0.21875000       0.09375000       0.09375000 </v>
   <v>      -0.15625000       0.09375000       0.09375000 </v>
   <v>      -0.09375000       0.09375000       0.09375000 </v>
   <v>       0.15625000       0.15625000       0.09375000 </v>
   <v>       0.21875000       0.15625000       0.09375000 </v>
   <v>       0.28125000       0.15625000       0.09375000 </v>
   <v>       0.34375000       0.15625000       0.09375000 </v>
   <v>       0.40625000       0.15625000       0.09375000 </v>
   <v>       0.46875000       0.15625000       0.09375000 </v>
   <v>      -0.46875000       0.15625000       0.09375000 </v>
   <v>      -0.40625000       0.15625000       0.09375000 </v>
   <v>      -0.34375000       0.15625000       0.09375000 </v>
   <v>      -0.28125000       0.15625000       0.09375000 </v>
   <v>      -0.21875000       0.15625000       0.09375000 </v>
   <v>      -0.15625000       0.15625000       0.09375000 </v>
   <v>      -0.09375000       0.15625000       0.09375000 </v>
   <v>       0.21875000       0.21875000       0.09375000 </v>
   <v>       0.28125000       0.21875000       0.09375000 </v>
   <v>       0.34375000       0.21875000       0.09375000 </v>
   <v>       0.40625000       0.21875000       0.09375000 </v>
   <v>       0.46875000       0.21875000       0.09375000 </v>
   <v>      -0.46875000       0.21875000       0.09375000 </v>
   <v>      -0.40625000       0.21875000       0.09375000 </v>
   <v>      -0.34375000       0.21875000       0.09375000 </v>
   <v>      -0.28125000       0.21875000       0.09375000 </v>
   <v>      -0.21875000       0.21875000       0.09375000 </v>
   <v>      -0.15625000       0.21875000       0.09375000 </v>
   <v>      -0.09375000       0.21875000       0.09375000 </v>
   <v>       0.28125000       0.28125000       0.09375000 </v>
   <v>       0.34375000       0.28125000       0.09375000 </v>
   <v>       0.40625000       0.28125000       0.09375000 </v>
   <v>       0.46875000       0.28125000       0.09375000 </v>
   <v>      -0.46875000       0.28125000       0.09375000 </v>
   <v>      -0.40625000       0.28125000       0.09375000 </v>
   <v>      -0.34375000       0.28125000       0.09375000 </v>
   <v>      -0.28125000       0.28125000       0.09375000 </v>
   <v>      -0.21875000       0.28125000       0.09375000 </v>
   <v>      -0.15625000       0.28125000       0.09375000 </v>
   <v>      -0.09375000       0.28125000       0.09375000 </v>
   <v>       0.34375000       0.34375000       0.09375000 </v>
   <v>       0.40625000       0.34375000       0.09375000 </v>
   <v>       0.46875000       0.34375000       0.09375000 </v>
   <v>      -0.46875000       0.34375000       0.09375000 </v>
   <v>      -0.40625000       0.34375000       0.09375000 </v>
   <v>      -0.34375000       0.34375000       0.09375000 </v>
   <v>      -0.28125000       0.34375000       0.09375000 </v>
   <v>      -0.21875000       0.34375000       0.09375000 </v>
   <v>      -0.15625000       0.34375000       0.09375000 </v>
   <v>      -0.09375000       0.34375000       0.09375000 </v>
   <v>       0.40625000       0.40625000       0.09375000 </v>
   <v>       0.46875000       0.40625000       0.09375000 </v>
   <v>      -0.46875000       0.40625000       0.09375000 </v>
   <v>      -0.40625000       0.40625000       0.09375000 </v>
   <v>      -0.34375000       0.40625000       0.09375000 </v>
   <v>      -0.28125000       0.40625000       0.09375000 </v>
   <v>      -0.21875000       0.40625000       0.09375000 </v>
   <v>      -0.15625000       0.40625000       0.09375000 </v>
   <v>      -0.09375000       0.40625000       0.09375000 </v>
   <v>       0.46875000       0.46875000       0.09375000 </v>
   <v>      -0.46875000       0.46875000       0.09375000 </v>
   <v>      -0.40625000       0.46875000       0.09375000 </v>
   <v>      -0.34375000       0.46875000       0.09375000 </v>
   <v>      -0.28125000       0.46875000       0.09375000 </v>
   <v>      -0.21875000       0.46875000       0.09375000 </v>
   <v>      -0.15625000       0.46875000       0.09375000 </v>
   <v>      -0.09375000       0.46875000       0.09375000 </v>
   <v>      -0.46875000      -0.46875000       0.09375000 </v>
   <v>      -0.40625000      -0.46875000       0.09375000 </v>
   <v>      -0.34375000      -0.46875000       0.09375000 </v>
   <v>      -0.28125000      -0.46875000       0.09375000 </v>
   <v>      -0.21875000      -0.46875000       0.09375000 </v>
   <v>      -0.15625000      -0.46875000       0.09375000 </v>
   <v>      -0.40625000      -0.40625000       0.09375000 </v>
   <v>      -0.34375000      -0.40625000       0.09375000 </v>
   <v>      -0.28125000      -0.40625000       0.09375000 </v>
   <v>      -0.21875000      -0.40625000       0.09375000 </v>
   <v>      -0.15625000      -0.40625000       0.09375000 </v>
   <v>      -0.34375000      -0.34375000       0.09375000 </v>
   <v>      -0.28125000      -0.34375000       0.09375000 </v>
   <v>      -0.21875000      -0.34375000       0.09375000 </v>
   <v>      -0.15625000      -0.34375000       0.09375000 </v>
   <v>      -0.28125000      -0.28125000       0.09375000 </v>
   <v>      -0.21875000      -0.28125000       0.09375000 </v>
   <v>      -0.15625000      -0.28125000       0.09375000 </v>
   <v>      -0.21875000      -0.21875000       0.09375000 </v>
   <v>      -0.15625000      -0.21875000       0.09375000 </v>
   <v>      -0.15625000      -0.15625000       0.09375000 </v>
   <v>       0.15625000       0.15625000       0.15625000 </v>
   <v>       0.21875000       0.15625000       0.15625000 </v>
   <v>       0.28125000       0.15625000       0.15625000 </v>
   <v>       0.34375000       0.15625000       0.15625000 </v>
   <v>       0.40625000       0.15625000       0.15625000 </v>
   <v>       0.46875000       0.15625000       0.15625000 </v>
   <v>      -0.46875000       0.15625000       0.15625000 </v>
   <v>      -0.40625000       0.15625000       0.15625000 </v>
   <v>      -0.34375000       0.15625000       0.15625000 </v>
   <v>      -0.28125000       0.15625000       0.15625000 </v>
   <v>      -0.21875000       0.15625000       0.15625000 </v>
   <v>      -0.15625000       0.15625000       0.15625000 </v>
   <v>       0.21875000       0.21875000       0.15625000 </v>
   <v>       0.28125000       0.21875000       0.15625000 </v>
   <v>       0.34375000       0.21875000       0.15625000 </v>
   <v>       0.40625000       0.21875000       0.15625000 </v>
   <v>       0.46875000       0.21875000       0.15625000 </v>
   <v>      -0.46875000       0.21875000       0.15625000 </v>
   <v>      -0.40625000       0.21875000       0.15625000 </v>
   <v>      -0.34375000       0.21875000       0.15625000 </v>
   <v>      -0.28125000       0.21875000       0.15625000 </v>
   <v>      -0.21875000       0.21875000       0.15625000 </v>
   <v>      -0.15625000       0.21875000       0.15625000 </v>
   <v>       0.28125000       0.28125000       0.15625000 </v>
   <v>       0.34375000       0.28125000       0.15625000 </v>
   <v>       0.40625000       0.28125000       0.15625000 </v>
   <v>       0.46875000       0.28125000       0.15625000 </v>
   <v>      -0.46875000       0.28125000       0.15625000 </v>
   <v>      -0.40625000       0.28125000       0.15625000 </v>
   <v>      -0.34375000       0.28125000       0.15625000 </v>
   <v>      -0.28125000       0.28125000       0.15625000 </v>
   <v>      -0.21875000       0.28125000       0.15625000 </v>
   <v>      -0.15625000       0.28125000       0.15625000 </v>
   <v>       0.34375000       0.34375000       0.15625000 </v>
   <v>       0.40625000       0.34375000       0.15625000 </v>
   <v>       0.46875000       0.34375000       0.15625000 </v>
   <v>      -0.46875000       0.34375000       0.15625000 </v>
   <v>      -0.40625000       0.34375000       0.15625000 </v>
   <v>      -0.34375000       0.34375000       0.15625000 </v>
   <v>      -0.28125000       0.34375000       0.15625000 </v>
   <v>      -0.21875000       0.34375000       0.15625000 </v>
   <v>      -0.15625000       0.34375000       0.15625000 </v>
   <v>       0.40625000       0.40625000       0.15625000 </v>
   <v>       0.46875000       0.40625000       0.15625000 </v>
   <v>      -0.46875000       0.40625000       0.15625000 </v>
   <v>      -0.40625000       0.40625000       0.15625000 </v>
   <v>      -0.34375000       0.40625000       0.15625000 </v>
   <v>      -0.28125000       0.40625000       0.15625000 </v>
   <v>      -0.21875000       0.40625000       0.15625000 </v>
   <v>      -0.15625000       0.40625000       0.15625000 </v>
   <v>       0.46875000       0.46875000       0.15625000 </v>
   <v>      -0.46875000       0.46875000       0.15625000 </v>
   <v>      -0.40625000       0.46875000       0.15625000 </v>
   <v>      -0.34375000       0.46875000       0.15625000 </v>
   <v>      -0.28125000       0.46875000       0.15625000 </v>
   <v>      -0.21875000       0.46875000       0.15625000 </v>
   <v>      -0.15625000       0.46875000       0.15625000 </v>
   <v>      -0.46875000      -0.46875000       0.15625000 </v>
   <v>      -0.40625000      -0.46875000       0.15625000 </v>
   <v>      -0.34375000      -0.46875000       0.15625000 </v>
   <v>      -0.28125000      -0.46875000       0.15625000 </v>
   <v>      -0.21875000      -0.46875000       0.15625000 </v>
   <v>      -0.40625000      -0.40625000       0.15625000 </v>
   <v>      -0.34375000      -0.40625000       0.15625000 </v>
   <v>      -0.28125000      -0.40625000       0.15625000 </v>
   <v>      -0.21875000      -0.40625000       0.15625000 </v>
   <v>      -0.34375000      -0.34375000       0.15625000 </v>
   <v>      -0.28125000      -0.34375000       0.15625000 </v>
   <v>      -0.21875000      -0.34375000       0.15625000 </v>
   <v>      -0.28125000      -0.28125000       0.15625000 </v>
   <v>      -0.21875000      -0.28125000       0.15625000 </v>
   <v>      -0.21875000      -0.21875000       0.15625000 </v>
   <v>       0.21875000       0.21875000       0.21875000 </v>
   <v>       0.28125000       0.21875000       0.21875000 </v>
   <v>       0.34375000       0.21875000       0.21875000 </v>
   <v>       0.40625000       0.21875000       0.21875000 </v>
   <v>       0.46875000       0.21875000       0.21875000 </v>
   <v>      -0.46875000       0.21875000       0.21875000 </v>
   <v>      -0.40625000       0.21875000       0.21875000 </v>
   <v>      -0.34375000       0.21875000       0.21875000 </v>
   <v>      -0.28125000       0.21875000       0.21875000 </v>
   <v>      -0.21875000       0.21875000       0.21875000 </v>
   <v>       0.28125000       0.28125000       0.21875000 </v>
   <v>       0.34375000       0.28125000       0.21875000 </v>
   <v>       0.40625000       0.28125000       0.21875000 </v>
   <v>       0.46875000       0.28125000       0.21875000 </v>
   <v>      -0.46875000       0.28125000       0.21875000 </v>
   <v>      -0.40625000       0.28125000       0.21875000 </v>
   <v>      -0.34375000       0.28125000       0.21875000 </v>
   <v>      -0.28125000       0.28125000       0.21875000 </v>
   <v>      -0.21875000       0.28125000       0.21875000 </v>
   <v>       0.34375000       0.34375000       0.21875000 </v>
   <v>       0.40625000       0.34375000       0.21875000 </v>
   <v>       0.46875000       0.34375000       0.21875000 </v>
   <v>      -0.46875000       0.34375000       0.21875000 </v>
   <v>      -0.40625000       0.34375000       0.21875000 </v>
   <v>      -0.34375000       0.34375000       0.21875000 </v>
   <v>      -0.28125000       0.34375000       0.21875000 </v>
   <v>      -0.21875000       0.34375000       0.21875000 </v>
   <v>       0.40625000       0.40625000       0.21875000 </v>
   <v>       0.46875000       0.40625000       0.21875000 </v>
   <v>      -0.46875000       0.40625000       0.21875000 </v>
   <v>      -0.40625000       0.40625000       0.21875000 </v>
   <v>      -0.34375000       0.40625000       0.21875000 </v>
   <v>      -0.28125000       0.40625000       0.21875000 </v>
   <v>      -0.21875000       0.40625000       0.21875000 </v>
   <v>       0.46875000       0.46875000       0.21875000 </v>
   <v>      -0.46875000       0.46875000       0.21875000 </v>
   <v>      -0.40625000       0.46875000       0.21875000 </v>
   <v>      -0.34375000       0.46875000       0.21875000 </v>
   <v>      -0.28125000       0.46875000       0.21875000 </v>
   <v>      -0.21875000       0.46875000       0.21875000 </v>
   <v>      -0.46875000      -0.46875000       0.21875000 </v>
   <v>      -0.40625000      -0.46875000       0.21875000 </v>
   <v>      -0.34375000      -0.46875000       0.21875000 </v>
   <v>      -0.28125000      -0.46875000       0.21875000 </v>
   <v>      -0.40625000      -0.40625000       0.21875000 </v>
   <v>      -0.34375000      -0.40625000       0.21875000 </v>
   <v>      -0.28125000      -0.40625000       0.21875000 </v>
   <v>      -0.34375000      -0.34375000       0.21875000 </v>
   <v>      -0.28125000      -0.34375000       0.21875000 </v>
   <v>      -0.28125000      -0.28125000       0.21875000 </v>
   <v>       0.28125000       0.28125000       0.28125000 </v>
   <v>       0.34375000       0.28125000       0.28125000 </v>
   <v>       0.40625000       0.28125000       0.28125000 </v>
   <v>       0.46875000       0.28125000       0.28125000 </v>
   <v>      -0.46875000       0.28125000       0.28125000 </v>
   <v>      -0.40625000       0.28125000       0.28125000 </v>
   <v>      -0.34375000       0.28125000       0.28125000 </v>
   <v>      -0.28125000       0.28125000       0.28125000 </v>
   <v>       0.34375000       0.34375000       0.28125000 </v>
   <v>       0.40625000       0.34375000       0.28125000 </v>
   <v>       0.46875000       0.34375000       0.28125000 </v>
   <v>      -0.46875000       0.34375000       0.28125000 </v>
   <v>      -0.40625000       0.34375000       0.28125000 </v>
   <v>      -0.34375000       0.34375000       0.28125000 </v>
   <v>      -0.28125000       0.34375000       0.28125000 </v>
   <v>       0.40625000       0.40625000       0.28125000 </v>
   <v>       0.46875000       0.40625000       0.28125000 </v>
   <v>      -0.46875000       0.40625000       0.28125000 </v>
   <v>      -0.40625000       0.40625000       0.28125000 </v>
   <v>      -0.34375000       0.40625000       0.28125000 </v>
   <v>      -0.28125000       0.40625000       0.28125000 </v>
   <v>       0.46875000       0.46875000       0.28125000 </v>
   <v>      -0.46875000       0.46875000       0.28125000 </v>
   <v>      -0.40625000       0.46875000       0.28125000 </v>
   <v>      -0.34375000       0.46875000       0.28125000 </v>
   <v>      -0.28125000       0.46875000       0.28125000 </v>
   <v>      -0.46875000      -0.46875000       0.28125000 </v>
   <v>      -0.40625000      -0.46875000       0.28125000 </v>
   <v>      -0.34375000      -0.46875000       0.28125000 </v>
   <v>      -0.40625000      -0.40625000       0.28125000 </v>
   <v>      -0.34375000      -0.40625000       0.28125000 </v>
   <v>      -0.34375000      -0.34375000       0.28125000 </v>
   <v>       0.34375000       0.34375000       0.34375000 </v>
   <v>       0.40625000       0.34375000       0.34375000 </v>
   <v>       0.46875000       0.34375000       0.34375000 </v>
   <v>      -0.46875000       0.34375000       0.34375000 </v>
   <v>      -0.40625000       0.34375000       0.34375000 </v>
   <v>      -0.34375000       0.34375000       0.34375000 </v>
   <v>       0.40625000       0.40625000       0.34375000 </v>
   <v>       0.46875000       0.40625000       0.34375000 </v>
   <v>      -0.46875000       0.40625000       0.34375000 </v>
   <v>      -0.40625000       0.40625000       0.34375000 </v>
   <v>      -0.34375000       0.40625000       0.34375000 </v>
   <v>       0.46875000       0.46875000       0.34375000 </v>
   <v>      -0.46875000       0.46875000       0.34375000 </v>
   <v>      -0.40625000       0.46875000       0.34375000 </v>
   <v>      -0.34375000       0.46875000       0.34375000 </v>
   <v>      -0.46875000      -0.46875000       0.34375000 </v>
   <v>      -0.40625000      -0.46875000       0.34375000 </v>
   <v>      -0.40625000      -0.40625000       0.34375000 </v>
   <v>       0.40625000       0.40625000       0.40625000 </v>
   <v>       0.46875000       0.40625000       0.40625000 </v>
   <v>      -0.46875000       0.40625000       0.40625000 </v>
   <v>      -0.40625000       0.40625000       0.40625000 </v>
   <v>       0.46875000       0.46875000       0.40625000 </v>
   <v>      -0.46875000       0.46875000       0.40625000 </v>
   <v>      -0.40625000       0.46875000       0.40625000 </v>
   <v>      -0.46875000      -0.46875000       0.40625000 </v>
   <v>       0.46875000       0.46875000       0.46875000 </v>
   <v>      -0.46875000       0.46875000       0.46875000 </v>
  </varray>
  <varray name="weights" >
   <v>       0.00048828 </v>
   <v>       0.00146484 </v>
   <v>       0.00146484 </v>
   <v>       0.00146484 </v>
   <v>       0.00146484 </v>
   <v>       0.00146484 </v>
   <v>       0.00146484 </v>
   <v>       0.00146484 </v>
   <v>       0.00146484 </v>
   <v>       0.00146484 </v>
   <v>       0.00146484 </v>
   <v>       0.00146484 </v>
   <v>       0.00146484 </v>
   <v>       0.00146484 </v>
   <v>       0.00146484 </v>
   <v>       0.00146484 </v>
   <v>       0.00146484 </v>
   <v>       0.00292969 </v>
   <v>       0.00292969 </v>
   <v>       0.00292969 </v>
   <v>       0.00292969 </v>
   <v>       0.00292969 </v>
   <v>       0.00292969 </v>
   <v>       0.00292969 </v>
   <v>       0.00292969 </v>
   <v>       0.00292969 </v>
   <v>       0.00292969 </v>
   <v>       0.00292969 </v>
   <v>       0.00292969 </v>
   <v>       0.00292969 </v>
   <v>       0.00292969 </v>
   <v>       0.00146484 </v>
   <v>       0.00292969 </v>
   <v>       0.00292969 </v>
   <v>       0.00292969 </v>
   <v>       0.00292969 </v>
   <v>       0.00292969 </v>
   <v>       0.00292969 </v>
   <v>       0.00292969 </v>
   <v>       0.00292969 </v>
   <v>       0.00292969 </v>
   <v>       0.00292969 </v>
   <v>       0.00292969 </v>
   <v>       0.00292969 </v>
   <v>       0.00292969 </v>
   <v>       0.00146484 </v>
   <v>       0.00292969 </v>
   <v>       0.00292969 </v>
   <v>       0.00292969 </v>
   <v>       0.00292969 </v>
   <v>       0.00292969 </v>
   <v>       0.00292969 </v>
   <v>       0.00292969 </v>
   <v>       0.00292969 </v>
   <v>       0.00292969 </v>
   <v>       0.00292969 </v>
   <v>       0.00292969 </v>
   <v>       0.00292969 </v>
   <v>       0.00146484 </v>
   <v>       0.00292969 </v>
   <v>       0.00292969 </v>
   <v>       0.00292969 </v>
   <v>       0.00292969 </v>
   <v>       0.00292969 </v>
   <v>       0.00292969 </v>
   <v>       0.00292969 </v>
   <v>       0.00292969 </v>
   <v>       0.00292969 </v>
   <v>       0.00292969 </v>
   <v>       0.00292969 </v>
   <v>       0.00146484 </v>
   <v>       0.00292969 </v>
   <v>       0.00292969 </v>
   <v>       0.00292969 </v>
   <v>       0.00292969 </v>
   <v>       0.00292969 </v>
   <v>       0.00292969 </v>
   <v>       0.00292969 </v>
   <v>       0.00292969 </v>
   <v>       0.00292969 </v>
   <v>       0.00292969 </v>
   <v>       0.00146484 </v>
   <v>       0.00292969 </v>
   <v>       0.00292969 </v>
   <v>       0.00292969 </v>
   <v>       0.00292969 </v>
   <v>       0.00292969 </v>
   <v>       0.00292969 </v>
   <v>       0.00292969 </v>
   <v>       0.00292969 </v>
   <v>       0.00292969 </v>
   <v>       0.00146484 </v>
   <v>       0.00292969 </v>
   <v>       0.00292969 </v>
   <v>       0.00292969 </v>
   <v>       0.00292969 </v>
   <v>       0.00292969 </v>
   <v>       0.00292969 </v>
   <v>       0.00292969 </v>
   <v>       0.00292969 </v>
   <v>       0.00146484 </v>
   <v>       0.00292969 </v>
   <v>       0.00292969 </v>
   <v>       0.00292969 </v>
   <v>       0.00292969 </v>
   <v>       0.00292969 </v>
   <v>       0.00292969 </v>
   <v>       0.00146484 </v>
   <v>       0.00292969 </v>
   <v>       0.00292969 </v>
   <v>       0.00292969 </v>
   <v>       0.00292969 </v>
   <v>       0.00292969 </v>
   <v>       0.00146484 </v>
   <v>       0.00292969 </v>
   <v>       0.00292969 </v>
   <v>       0.00292969 </v>
   <v>       0.00292969 </v>
   <v>       0.00146484 </v>
   <v>       0.00292969 </v>
   <v>       0.00292969 </v>
   <v>       0.00292969 </v>
   <v>       0.00146484 </v>
   <v>       0.00292969 </v>
   <v>       0.00292969 </v>
   <v>       0.00146484 </v>
   <v>       0.00292969 </v>
   <v>       0.00146484 </v>
   <v>       0.00048828 </v>
   <v>       0.00146484 </v>
   <v>       0.00146484 </v>
   <v>       0.00146484 </v>
   <v>       0.00146484 </v>
   <v>       0.00146484 </v>
   <v>       0.00146484 </v>
   <v>       0.00146484 </v>
   <v>       0.00146484 </v>
   <v>       0.00146484 </v>
   <v>       0.00146484 </v>
   <v>       0.00146484 </v>
   <v>       0.00146484 </v>
   <v>       0.00146484 </v>
   <v>       0.00146484 </v>
   <v>       0.00292969 </v>
   <v>       0.00292969 </v>
   <v>       0.00292969 </v>
   <v>       0.00292969 </v>
   <v>       0.00292969 </v>
   <v>       0.00292969 </v>
   <v>       0.00292969 </v>
   <v>       0.00292969 </v>
   <v>       0.00292969 </v>
   <v>       0.00292969 </v>
   <v>       0.00292969 </v>
   <v>       0.00292969 </v>
   <v>       0.00146484 </v>
   <v>       0.00292969 </v>
   <v>       0.00292969 </v>
   <v>       0.00292969 </v>
   <v>       0.00292969 </v>
   <v>       0.00292969 </v>
   <v>       0.00292969 </v>
   <v>       0.00292969 </v>
   <v>       0.00292969 </v>
   <v>       0.00292969 </v>
   <v>       0.00292969 </v>
   <v>       0.00292969 </v>
   <v>       0.00146484 </v>
   <v>       0.00292969 </v>
   <v>       0.00292969 </v>
   <v>       0.00292969 </v>
   <v>       0.00292969 </v>
   <v>       0.00292969 </v>
   <v>       0.00292969 </v>
   <v>       0.00292969 </v>
   <v>       0.00292969 </v>
   <v>       0.00292969 </v>
   <v>       0.00292969 </v>
   <v>       0.00146484 </v>
   <v>       0.00292969 </v>
   <v>       0.00292969 </v>
   <v>       0.00292969 </v>
   <v>       0.00292969 </v>
   <v>       0.00292969 </v>
   <v>       0.00292969 </v>
   <v>       0.00292969 </v>
   <v>       0.00292969 </v>
   <v>       0.00292969 </v>
   <v>       0.00146484 </v>
   <v>       0.00292969 </v>
   <v>       0.00292969 </v>
   <v>       0.00292969 </v>
   <v>       0.00292969 </v>
   <v>       0.00292969 </v>
   <v>       0.00292969 </v>
   <v>       0.00292969 </v>
   <v>       0.00292969 </v>
   <v>       0.00146484 </v>
   <v>       0.00292969 </v>
   <v>       0.00292969 </v>
   <v>       0.00292969 </v>
   <v>       0.00292969 </v>
   <v>       0.00292969 </v>
   <v>       0.00292969 </v>
   <v>       0.00292969 </v>
   <v>       0.00146484 </v>
   <v>       0.00292969 </v>
   <v>       0.00292969 </v>
   <v>       0.00292969 </v>
   <v>       0.00292969 </v>
   <v>       0.00292969 </v>
   <v>       0.00146484 </v>
   <v>       0.00292969 </v>
   <v>       0.00292969 </v>
   <v>       0.00292969 </v>
   <v>       0.00292969 </v>
   <v>       0.00146484 </v>
   <v>       0.00292969 </v>
   <v>       0.00292969 </v>
   <v>       0.00292969 </v>
   <v>       0.00146484 </v>
   <v>       0.00292969 </v>
   <v>       0.00292969 </v>
   <v>       0.00146484 </v>
   <v>       0.00292969 </v>
   <v>       0.00146484 </v>
   <v>       0.00048828 </v>
   <v>       0.00146484 </v>
   <v>       0.00146484 </v>
   <v>       0.00146484 </v>
   <v>       0.00146484 </v>
   <v>       0.00146484 </v>
   <v>       0.00146484 </v>
   <v>       0.00146484 </v>
   <v>       0.00146484 </v>
   <v>       0.00146484 </v>
   <v>       0.00146484 </v>
   <v>       0.00146484 </v>
   <v>       0.00146484 </v>
   <v>       0.00292969 </v>
   <v>       0.00292969 </v>
   <v>       0.00292969 </v>
   <v>       0.00292969 </v>
   <v>       0.00292969 </v>
   <v>       0.00292969 </v>
   <v>       0.00292969 </v>
   <v>       0.00292969 </v>
   <v>       0.00292969 </v>
   <v>       0.00292969 </v>
   <v>       0.00146484 </v>
   <v>       0.00292969 </v>
   <v>       0.00292969 </v>
   <v>       0.00292969 </v>
   <v>       0.00292969 </v>
   <v>       0.00292969 </v>
   <v>       0.00292969 </v>
   <v>       0.00292969 </v>
   <v>       0.00292969 </v>
   <v>       0.00292969 </v>
   <v>       0.00146484 </v>
   <v>       0.00292969 </v>
   <v>       0.00292969 </v>
   <v>       0.00292969 </v>
   <v>       0.00292969 </v>
   <v>       0.00292969 </v>
   <v>       0.00292969 </v>
   <v>       0.00292969 </v>
   <v>       0.00292969 </v>
   <v>       0.00146484 </v>
   <v>       0.00292969 </v>
   <v>       0.00292969 </v>
   <v>       0.00292969 </v>
   <v>       0.00292969 </v>
   <v>       0.00292969 </v>
   <v>       0.00292969 </v>
   <v>       0.00292969 </v>
   <v>       0.00146484 </v>
   <v>       0.00292969 </v>
   <v>       0.00292969 </v>
   <v>       0.00292969 </v>
   <v>       0.00292969 </v>
   <v>       0.00292969 </v>
   <v>       0.00292969 </v>
   <v>       0.00146484 </v>
   <v>       0.00292969 </v>
   <v>       0.00292969 </v>
   <v>       0.00292969 </v>
   <v>       0.00292969 </v>
   <v>       0.00146484 </v>
   <v>       0.00292969 </v>
   <v>       0.00292969 </v>
   <v>       0.00292969 </v>
   <v>       0.00146484 </v>
   <v>       0.00292969 </v>
   <v>       0.00292969 </v>
   <v>       0.00146484 </v>
   <v>       0.00292969 </v>
   <v>       0.00146484 </v>
   <v>       0.00048828 </v>
   <v>       0.00146484 </v>
   <v>       0.00146484 </v>
   <v>       0.00146484 </v>
   <v>       0.00146484 </v>
   <v>       0.00146484 </v>
   <v>       0.00146484 </v>
   <v>       0.00146484 </v>
   <v>       0.00146484 </v>
   <v>       0.00146484 </v>
   <v>       0.00146484 </v>
   <v>       0.00292969 </v>
   <v>       0.00292969 </v>
   <v>       0.00292969 </v>
   <v>       0.00292969 </v>
   <v>       0.00292969 </v>
   <v>       0.00292969 </v>
   <v>       0.00292969 </v>
   <v>       0.00292969 </v>
   <v>       0.00146484 </v>
   <v>       0.00292969 </v>
   <v>       0.00292969 </v>
   <v>       0.00292969 </v>
   <v>       0.00292969 </v>
   <v>       0.00292969 </v>
   <v>       0.00292969 </v>
   <v>       0.00292969 </v>
   <v>       0.00146484 </v>
   <v>       0.00292969 </v>
   <v>       0.00292969 </v>
   <v>       0.00292969 </v>
   <v>       0.00292969 </v>
   <v>       0.00292969 </v>
   <v>       0.00292969 </v>
   <v>       0.00146484 </v>
   <v>       0.00292969 </v>
   <v>       0.00292969 </v>
   <v>       0.00292969 </v>
   <v>       0.00292969 </v>
   <v>       0.00292969 </v>
   <v>       0.00146484 </v>
   <v>       0.00292969 </v>
   <v>       0.00292969 </v>
   <v>       0.00292969 </v>
   <v>       0.00146484 </v>
   <v>       0.00292969 </v>
   <v>       0.00292969 </v>
   <v>       0.00146484 </v>
   <v>       0.00292969 </v>
   <v>       0.00146484 </v>
   <v>       0.00048828 </v>
   <v>       0.00146484 </v>
   <v>       0.00146484 </v>
   <v>       0.00146484 </v>
   <v>       0.00146484 </v>
   <v>       0.00146484 </v>
   <v>       0.00146484 </v>
   <v>       0.00146484 </v>
   <v>       0.00146484 </v>
   <v>       0.00292969 </v>
   <v>       0.00292969 </v>
   <v>       0.00292969 </v>
   <v>       0.00292969 </v>
   <v>       0.00292969 </v>
   <v>       0.00292969 </v>
   <v>       0.00146484 </v>
   <v>       0.00292969 </v>
   <v>       0.00292969 </v>
   <v>       0.00292969 </v>
   <v>       0.00292969 </v>
   <v>       0.00292969 </v>
   <v>       0.00146484 </v>
   <v>       0.00292969 </v>
   <v>       0.00292969 </v>
   <v>       0.00292969 </v>
   <v>       0.00292969 </v>
   <v>       0.00146484 </v>
   <v>       0.00292969 </v>
   <v>       0.00292969 </v>
   <v>       0.00146484 </v>
   <v>       0.00292969 </v>
   <v>       0.00146484 </v>
   <v>       0.00048828 </v>
   <v>       0.00146484 </v>
   <v>       0.00146484 </v>
   <v>       0.00146484 </v>
   <v>       0.00146484 </v>
   <v>       0.00146484 </v>
   <v>       0.00146484 </v>
   <v>       0.00292969 </v>
   <v>       0.00292969 </v>
   <v>       0.00292969 </v>
   <v>       0.00292969 </v>
   <v>       0.00146484 </v>
   <v>       0.00292969 </v>
   <v>       0.00292969 </v>
   <v>       0.00292969 </v>
   <v>       0.00146484 </v>
   <v>       0.00292969 </v>
   <v>       0.00146484 </v>
   <v>       0.00048828 </v>
   <v>       0.00146484 </v>
   <v>       0.00146484 </v>
   <v>       0.00146484 </v>
   <v>       0.00146484 </v>
   <v>       0.00292969 </v>
   <v>       0.00292969 </v>
   <v>       0.00146484 </v>
   <v>       0.00048828 </v>
   <v>       0.00146484 </v>
  </varray>
 </kpoints>
 <parameters>
  <separator name="general" >
   <i type="string" name="SYSTEM">Si</i>
   <i type="logical" name="LCOMPAT"> F  </i>
  </separator>
  <separator name="electronic" >
   <i type="string" name="PREC">normal</i>
   <i name="ENMAX">    600.00000000</i>
   <i name="ENAUG">    322.06900000</i>
   <i name="EDIFF">      0.00000001</i>
   <i type="int" name="IALGO">    38</i>
   <i type="int" name="IWAVPR">    11</i>
   <i type="int" name="NBANDS">    16</i>
   <i name="NELECT">      8.00000000</i>
   <i type="int" name="TURBO">     0</i>
   <i type="int" name="IRESTART">     0</i>
   <i type="int" name="NREBOOT">     0</i>
   <i type="int" name="NMIN">     0</i>
   <i name="EREF">      0.00000000</i>
   <separator name="electronic smearing" >
    <i type="int" name="ISMEAR">     0</i>
    <i name="SIGMA">      0.10000000</i>
    <i name="KSPACING">      0.50000000</i>
    <i type="logical" name="KGAMMA"> T  </i>
   </separator>
   <separator name="electronic projectors" >
    <i type="logical" name="LREAL"> F  </i>
    <v name="ROPT">      0.00000000</v>
    <i type="int" name="LMAXPAW">  -100</i>
    <i type="int" name="LMAXMIX">     2</i>
    <i type="logical" name="NLSPLINE"> F  </i>
   </separator>
   <separator name="electronic startup" >
    <i type="int" name="ISTART">     1</i>
    <i type="int" name="ICHARG">     0</i>
    <i type="int" name="INIWAV">     1</i>
   </separator>
   <separator name="electronic spin" >
    <i type="int" name="ISPIN">     1</i>
    <i type="logical" name="LNONCOLLINEAR"> F  </i>
    <v name="MAGMOM">      1.00000000      1.00000000</v>
    <i name="NUPDOWN">     -1.00000000</i>
    <i type="logical" name="LSORBIT"> F  </i>
    <v name="SAXIS">      0.00000000      0.00000000      1.00000000</v>
    <i type="logical" name="LSPIRAL"> F  </i>
    <v name="QSPIRAL">      0.00000000      0.00000000      0.00000000</v>
    <i type="logical" name="LZEROZ"> F  </i>
   </separator>
   <separator name="electronic exchange-correlation" >
    <i type="logical" name="LASPH"> F  </i>
    <i type="logical" name="LMETAGGA"> F  </i>
   </separator>
   <separator name="electronic convergence" >
    <i type="int" name="NELM">    60</i>
    <i type="int" name="NELMDL">     0</i>
    <i type="int" name="NELMIN">     2</i>
    <i name="ENINI">    600.00000000</i>
    <separator name="electronic convergence detail" >
     <i type="logical" name="LDIAG"> T  </i>
     <i type="logical" name="LSUBROT"> F  </i>
     <i name="WEIMIN">      0.00100000</i>
     <i name="EBREAK">      0.00000000</i>
     <i name="DEPER">      0.30000000</i>
     <i type="int" name="NRMM">     4</i>
     <i name="TIME">      0.40000000</i>
    </separator>
   </separator>
   <separator name="electronic mixer" >
    <i name="AMIX">      0.40000000</i>
    <i name="BMIX">      1.00000000</i>
    <i name="AMIN">      0.10000000</i>
    <i name="AMIX_MAG">      1.60000000</i>
    <i name="BMIX_MAG">      1.00000000</i>
    <separator name="electronic mixer details" >
     <i type="int" name="IMIX">     4</i>
     <i type="logical" name="MIXFIRST"> F  </i>
     <i type="int" name="MAXMIX">   -45</i>
     <i name="WC">    100.00000000</i>
     <i type="int" name="INIMIX">     1</i>
     <i type="int" name="MIXPRE">     1</i>
     <i type="int" name="MREMOVE">     5</i>
    </separator>
   </separator>
   <separator name="electronic dipolcorrection" >
    <i type="logical" name="LDIPOL"> F  </i>
    <i type="logical" name="LMONO"> F  </i>
    <i type="int" name="IDIPOL">     0</i>
    <i name="EPSILON">      1.00000000</i>
    <v name="DIPOL">   -100.00000000   -100.00000000   -100.00000000</v>
    <i name="EFIELD">      0.00000000</i>
   </separator>
  </separator>
  <separator name="grids" >
   <i type="int" name="NGX">    24</i>
   <i type="int" name="NGY">    24</i>
   <i type="int" name="NGZ">    24</i>
   <i type="int" name="NGXF">    48</i>
   <i type="int" name="NGYF">    48</i>
   <i type="int" name="NGZF">    48</i>
   <i type="logical" name="ADDGRID"> F  </i>
  </separator>
  <separator name="ionic" >
   <i type="int" name="NSW">    15</i>
   <i type="int" name="IBRION">     2</i>
   <i type="int" name="MDALGO">     0</i>
   <i type="int" name="ISIF">     3</i>
   <i name="PSTRESS">      0.00000000</i>
   <i name="EDIFFG">     -0.01000000</i>
   <i type="int" name="NFREE">     1</i>
   <i name="POTIM">      0.50000000</i>
   <i name="SMASS">     -3.00000000</i>
   <i name="SCALEE">      1.00000000</i>
  </separator>
  <separator name="ionic md" >
   <i name="TEBEG">      0.00010000</i>
   <i name="TEEND">      0.00010000</i>
   <i type="int" name="NBLOCK">     1</i>
   <i type="int" name="KBLOCK">    15</i>
   <i type="int" name="NPACO">   256</i>
   <i name="APACO">     16.00000000</i>
  </separator>
  <separator name="symmetry" >
   <i type="int" name="ISYM">     2</i>
   <i name="SYMPREC">      0.00001000</i>
  </separator>
  <separator name="dos" >
   <i type="int" name="LORBIT">     0</i>
   <v name="RWIGS">     -1.00000000</v>
   <i type="int" name="NEDOS">   301</i>
   <i name="EMIN">     10.00000000</i>
   <i name="EMAX">    -10.00000000</i>
   <i name="EFERMI">      0.00000000</i>
  </separator>
  <separator name="writing" >
   <i type="int" name="NWRITE">     2</i>
   <i type="logical" name="LWAVE"> T  </i>
   <i type="logical" name="LDOWNSAMPLE"> F  </i>
   <i type="logical" name="LCHARG"> T  </i>
   <i type="logical" name="LPARD"> F  </i>
   <i type="logical" name="LVTOT"> F  </i>
   <i type="logical" name="LVHAR"> F  </i>
   <i type="logical" name="LELF"> F  </i>
   <i type="logical" name="LOPTICS"> F  </i>
   <v name="STM">      0.00000000      0.00000000      0.00000000      0.00000000      0.00000000      0.00000000      0.00000000</v>
  </separator>
  <separator name="performance" >
   <i type="int" name="NPAR">    16</i>
   <i type="int" name="NSIM">     4</i>
   <i type="int" name="NBLK">    -1</i>
   <i type="logical" name="LPLANE"> T  </i>
   <i type="logical" name="LSCALAPACK"> T  </i>
   <i type="logical" name="LSCAAWARE"> F  </i>
   <i type="logical" name="LSCALU"> F  </i>
   <i type="logical" name="LASYNC"> F  </i>
   <i type="logical" name="LORBITALREAL"> F  </i>
  </separator>
  <separator name="miscellaneous" >
   <i type="int" name="IDIOT">     3</i>
   <i type="int" name="ISPECIAL">     0</i>
   <i type="logical" name="LMUSIC"> F  </i>
   <v name="POMASS">     28.08500000</v>
   <v name="DARWINR">      0.00000000</v>
   <v name="DARWINV">      1.00000000</v>
   <i type="logical" name="LCORR"> T  </i>
  </separator>
  <i type="logical" name="GGA_COMPAT"> T  </i>
  <i type="logical" name="LBERRY"> F  </i>
  <i type="int" name="ICORELEVEL">     0</i>
  <i type="logical" name="LDAU"> F  </i>
  <i type="int" name="I_CONSTRAINED_M">     0</i>
  <separator name="electronic exchange-correlation" >
   <i type="string" name="GGA">PE</i>
   <i type="int" name="VOSKOWN">     0</i>
   <i type="logical" name="LHFCALC"> F  </i>
   <i type="string" name="PRECFOCK"></i>
   <i type="logical" name="LSYMGRAD"> F  </i>
   <i type="logical" name="LHFONE"> F  </i>
   <i type="logical" name="LRHFCALC"> F  </i>
   <i type="logical" name="LTHOMAS"> F  </i>
   <i type="logical" name="LMODELHF"> F  </i>
   <i name="ENCUT4O">     -1.00000000</i>
   <i type="int" name="EXXOEP">     0</i>
   <i type="int" name="FOURORBIT">     0</i>
   <i name="AEXX">      0.00000000</i>
   <i name="HFALPHA">      0.00000000</i>
   <i name="MCALPHA">      0.00000000</i>
   <i name="ALDAX">      1.00000000</i>
   <i name="AGGAX">      1.00000000</i>
   <i name="ALDAC">      1.00000000</i>
   <i name="AGGAC">      1.00000000</i>
   <i type="int" name="NKREDX">     1</i>
   <i type="int" name="NKREDY">     1</i>
   <i type="int" name="NKREDZ">     1</i>
   <i type="logical" name="SHIFTRED"> F  </i>
   <i type="logical" name="ODDONLY"> F  </i>
   <i type="logical" name="EVENONLY"> F  </i>
   <i type="int" name="LMAXFOCK">     0</i>
   <i type="int" name="NMAXFOCKAE">     0</i>
   <i type="logical" name="LFOCKAEDFT"> F  </i>
   <i name="HFSCREEN">      0.00000000</i>
   <i name="HFSCREENC">      0.00000000</i>
   <i type="int" name="NBANDSGWLOW">     0</i>
  </separator>
  <separator name="vdW DFT" >
   <i type="logical" name="LUSE_VDW"> F  </i>
   <i name="Zab_VDW">     -0.84910000</i>
   <i name="PARAM1">      0.12340000</i>
   <i name="PARAM2">      1.00000000</i>
   <i name="PARAM3">      0.00000000</i>
  </separator>
  <separator name="model GW" >
   <i type="int" name="MODEL_GW">     0</i>
   <i name="MODEL_EPS0">     12.47812500</i>
   <i name="MODEL_ALPHA">      1.00000000</i>
  </separator>
  <separator name="linear response parameters" >
   <i type="logical" name="LEPSILON"> F  </i>
   <i type="logical" name="LRPA"> F  </i>
   <i type="logical" name="LNABLA"> F  </i>
   <i type="logical" name="LVEL"> F  </i>
   <i type="int" name="KINTER">     0</i>
   <i name="CSHIFT">      0.10000000</i>
   <i name="OMEGAMAX">     -1.00000000</i>
   <i name="DEG_THRESHOLD">      0.00200000</i>
   <i name="RTIME">     -0.10000000</i>
   <i name="WPLASMAI">      0.00000000</i>
   <v name="DFIELD">      0.00000000      0.00000000      0.00000000</v>
   <v name="WPLASMA">      0.00000000      0.00000000      0.00000000      0.00000000      0.00000000      0.00000000      0.00000000      0.00000000      0.00000000</v>
  </separator>
  <separator name="orbital magnetization" >
   <i type="logical" name="NUCIND"> F  </i>
   <v name="MAGPOS">      0.00000000      0.00000000      0.00000000</v>
   <i type="logical" name="LNICSALL"> T  </i>
   <i type="logical" name="ORBITALMAG"> F  </i>
   <i type="logical" name="LMAGBLOCH"> F  </i>
   <i type="logical" name="LCHIMAG"> F  </i>
   <i type="logical" name="LGAUGE"> T  </i>
   <i type="int" name="MAGATOM">     0</i>
   <v name="MAGDIPOL">      0.00000000      0.00000000      0.00000000</v>
   <v name="AVECCONST">      0.00000000      0.00000000      0.00000000</v>
  </separator>
  <separator name="response functions" >
   <i type="logical" name="LADDER"> F  </i>
   <i type="logical" name="LRPAFORCE"> F  </i>
   <i type="logical" name="LFXC"> F  </i>
   <i type="logical" name="LHARTREE"> T  </i>
   <i type="int" name="IBSE">     0</i>
   <v type="int" name="KPOINT">    -1     0     0     0</v>
   <i type="logical" name="LTCTE"> F  </i>
   <i type="logical" name="LTETE"> F  </i>
   <i type="logical" name="LTRIPLET"> F  </i>
   <i type="logical" name="LFXCEPS"> F  </i>
   <i type="logical" name="LFXHEG"> F  </i>
   <i type="int" name="NATURALO">     2</i>
   <i type="logical" name="L2ORDER"> F  </i>
   <i type="logical" name="LMP2LT"> F  </i>
   <i type="logical" name="LUSEW"> F  </i>
   <i name="ENCUTGW">     -2.00000000</i>
   <i name="ENCUTGWSOFT">     -2.00000000</i>
   <i name="ENCUTLF">     -1.00000000</i>
   <i type="int" name="LMAXMP2">    -1</i>
   <i name="SCISSOR">      0.00000000</i>
   <i type="int" name="NOMEGA">     0</i>
   <i type="int" name="NOMEGAR">     0</i>
   <i type="int" name="NBANDSGW">    -1</i>
   <i type="int" name="NBANDSO">    -1</i>
   <i type="int" name="NBANDSV">    -1</i>
   <i type="int" name="NELM">     1</i>
   <i type="int" name="NELMHF">     1</i>
   <i type="int" name="DIM">     3</i>
   <i type="int" name="ANTIRES">     0</i>
   <i name="OMEGAMAX">    -30.00000000</i>
   <i name="OMEGAMIN">    -30.00000000</i>
   <i name="OMEGATL">   -200.00000000</i>
   <i type="int" name="OMEGAGRID">   140</i>
   <i name="CSHIFT">     -0.10000000</i>
   <i type="logical" name="SELFENERGY"> F  </i>
   <i type="logical" name="LSPECTRAL"> F  </i>
   <i type="logical" name="LSPECTRALGW"> F  </i>
   <i type="logical" name="LSINGLES"> F  </i>
   <i type="logical" name="LFERMIGW"> F  </i>
   <i type="logical" name="ODDONLYGW"> F  </i>
   <i type="logical" name="EVENONLYGW"> F  </i>
   <i type="int" name="NKREDLFX">     1</i>
   <i type="int" name="NKREDLFY">     1</i>
   <i type="int" name="NKREDLFZ">     1</i>
   <i type="int" name="MAXMEM">  2800</i>
   <i type="int" name="TELESCOPE">     0</i>
   <i type="int" name="TAUPAR">     1</i>
   <i type="int" name="OMEGAPAR">    -1</i>
   <i name="LAMBDA">      1.00000000</i>
  </separator>
  <separator name="External order field" >
   <i name="OFIELD_KAPPA">      0.00000000</i>
   <v name="OFIELD_K">      0.00000000      0.00000000      0.00000000</v>
   <i name="OFIELD_Q6_NEAR">      0.00000000</i>
   <i name="OFIELD_Q6_FAR">      0.00000000</i>
   <i name="OFIELD_A">      0.00000000</i>
  </separator>
 </parameters>
 <atominfo>
  <atoms>       2 </atoms>
  <types>       1 </types>
  <array name="atoms" >
   <dimension dim="1">ion</dimension>
   <field type="string">element</field>
   <field type="int">atomtype</field>
   <set>
    <rc><c>Si</c><c>   1</c></rc>
    <rc><c>Si</c><c>   1</c></rc>
   </set>
  </array>
  <array name="atomtypes" >
   <dimension dim="1">type</dimension>
   <field type="int">atomspertype</field>
   <field type="string">element</field>
   <field>mass</field>
   <field>valence</field>
   <field type="string">pseudopotential</field>
   <set>
    <rc><c>   2</c><c>Si</c><c>     28.08500000</c><c>      4.00000000</c><c>  PAW_PBE Si 05Jan2001                  </c></rc>
   </set>
  </array>
 </atominfo>
 <structure name="initialpos" >
  <crystal>
   <varray name="basis" >
    <v>       0.00000000       2.75000000       2.75000000 </v>
    <v>       2.75000000       0.00000000       2.75000000 </v>
    <v>       2.75000000       2.75000000       0.00000000 </v>
   </varray>
   <i name="volume">     41.59375000 </i>
   <varray name="rec_basis" >
    <v>      -0.18181818       0.18181818       0.18181818 </v>
    <v>       0.18181818      -0.18181818       0.18181818 </v>
    <v>       0.18181818       0.18181818      -0.18181818 </v>
   </varray>
  </crystal>
  <varray name="positions" >
   <v>       0.87500000       0.87500000       0.87500000 </v>
   <v>       0.12500000       0.12500000       0.12500000 </v>
  </varray>
 </structure>
 <calculation>
  <scstep>
   <time name="dav">    3.56    3.56</time>
   <time name="total">    3.67    3.68</time>
   <energy>
    <i name="alphaZ">      3.23732588 </i>
    <i name="ewald">   -225.65453461 </i>
    <i name="hartreedc">    -15.37508278 </i>
    <i name="XCdc">    -18.13923559 </i>
    <i name="pawpsdc">    797.81661042 </i>
    <i name="pawaedc">   -762.82085534 </i>
    <i name="eentropy">     -0.00000000 </i>
    <i name="bandstr">      3.95584882 </i>
    <i name="atom">    206.13311910 </i>
    <i name="e_fr_energy">    -10.84680411 </i>
    <i name="e_wo_entrp">    -10.84680411 </i>
    <i name="e_0_energy">    -10.84680411 </i>
   </energy>
  </scstep>
  <scstep>
   <time name="dav">    2.45    2.46</time>
   <time name="total">    2.55    2.56</time>
   <energy>
    <i name="e_fr_energy">    -10.84680415 </i>
    <i name="e_wo_entrp">    -10.84680415 </i>
    <i name="e_0_energy">    -10.84680415 </i>
   </energy>
  </scstep>
  <scstep>
   <time name="dav">    3.61    3.61</time>
   <time name="total">    3.70    3.71</time>
   <energy>
    <i name="e_fr_energy">    -10.84680420 </i>
    <i name="e_wo_entrp">    -10.84680420 </i>
    <i name="e_0_energy">    -10.84680420 </i>
   </energy>
  </scstep>
  <scstep>
   <time name="dav">    2.01    2.01</time>
   <time name="total">    2.01    2.02</time>
   <energy>
    <i name="alphaZ">      3.23732588 </i>
    <i name="ewald">   -225.65453461 </i>
    <i name="hartreedc">    -15.37617229 </i>
    <i name="XCdc">    -18.13909324 </i>
    <i name="pawpsdc">    798.01697747 </i>
    <i name="pawaedc">   -763.02123708 </i>
    <i name="eentropy">     -0.00000000 </i>
    <i name="bandstr">      3.95681058 </i>
    <i name="atom">    206.13311910 </i>
    <i name="e_fr_energy">    -10.84680419 </i>
    <i name="e_wo_entrp">    -10.84680419 </i>
    <i name="e_0_energy">    -10.84680419 </i>
   </energy>
  </scstep>
  <structure>
   <crystal>
    <varray name="basis" >
     <v>       0.00000000       2.75000000       2.75000000 </v>
     <v>       2.75000000       0.00000000       2.75000000 </v>
     <v>       2.75000000       2.75000000       0.00000000 </v>
    </varray>
    <i name="volume">     41.59375000 </i>
    <varray name="rec_basis" >
     <v>      -0.18181818       0.18181818       0.18181818 </v>
     <v>       0.18181818      -0.18181818       0.18181818 </v>
     <v>       0.18181818       0.18181818      -0.18181818 </v>
    </varray>
   </crystal>
   <varray name="positions" >
    <v>       0.87500000       0.87500000       0.87500000 </v>
    <v>       0.12500000       0.12500000       0.12500000 </v>
   </varray>
  </structure>
  <varray name="forces" >
   <v>       0.00000000       0.00000000       0.00000000 </v>
   <v>      -0.00000000      -0.00000000      -0.00000000 </v>
  </varray>
  <varray name="stress" >
   <v>     -14.63538575       0.00000000       0.00000000 </v>
   <v>      -0.00000000     -14.63538575       0.00000000 </v>
   <v>       0.00000000       0.00000000     -14.63538575 </v>
  </varray>
  <energy>
   <i name="e_fr_energy">    -10.84680419 </i>
   <i name="e_wo_entrp">    -10.84680419 </i>
   <i name="e_0_energy">     -0.00000000 </i>
  </energy>
  <time name="totalsc">   14.66   14.70</time>
 </calculation>
 <calculation>
  <scstep>
   <time name="dav">    2.37    2.37</time>
   <time name="total">    2.47    2.48</time>
   <energy>
    <i name="alphaZ">      3.32799094 </i>
    <i name="ewald">   -227.74174152 </i>
    <i name="hartreedc">    -15.51840508 </i>
    <i name="XCdc">    -18.00525594 </i>
    <i name="pawpsdc">    798.01353466 </i>
    <i name="pawaedc">   -763.01778983 </i>
    <i name="eentropy">     -0.00000001 </i>
    <i name="bandstr">      5.95544784 </i>
    <i name="atom">    206.13311910 </i>
    <i name="e_fr_energy">    -10.85309984 </i>
    <i name="e_wo_entrp">    -10.85309983 </i>
    <i name="e_0_energy">    -10.85309984 </i>
   </energy>
  </scstep>
  <scstep>
   <time name="dav">    2.37    2.37</time>
   <time name="total">    2.47    2.47</time>
   <energy>
    <i name="e_fr_energy">    -10.85026325 </i>
    <i name="e_wo_entrp">    -10.85026325 </i>
    <i name="e_0_energy">    -10.85026325 </i>
   </energy>
  </scstep>
  <scstep>
   <time name="dav">    2.46    2.47</time>
   <time name="total">    2.56    2.56</time>
   <energy>
    <i name="e_fr_energy">    -10.84882749 </i>
    <i name="e_wo_entrp">    -10.84882749 </i>
    <i name="e_0_energy">    -10.84882749 </i>
   </energy>
  </scstep>
  <scstep>
   <time name="dav">    3.05    3.05</time>
   <time name="total">    3.15    3.15</time>
   <energy>
    <i name="e_fr_energy">    -10.84882902 </i>
    <i name="e_wo_entrp">    -10.84882901 </i>
    <i name="e_0_energy">    -10.84882902 </i>
   </energy>
  </scstep>
  <scstep>
   <time name="dav">    2.73    2.73</time>
   <time name="total">    2.83    2.83</time>
   <energy>
    <i name="e_fr_energy">    -10.84883024 </i>
    <i name="e_wo_entrp">    -10.84883023 </i>
    <i name="e_0_energy">    -10.84883024 </i>
   </energy>
  </scstep>
  <scstep>
   <time name="dav">    3.03    3.04</time>
   <time name="total">    3.13    3.14</time>
   <energy>
    <i name="e_fr_energy">    -10.84883200 </i>
    <i name="e_wo_entrp">    -10.84883199 </i>
    <i name="e_0_energy">    -10.84883200 </i>
   </energy>
  </scstep>
  <scstep>
   <time name="dav">    2.75    2.75</time>
   <time name="total">    2.84    2.85</time>
   <energy>
    <i name="e_fr_energy">    -10.84883199 </i>
    <i name="e_wo_entrp">    -10.84883199 </i>
    <i name="e_0_energy">    -10.84883199 </i>
   </energy>
  </scstep>
  <scstep>
   <time name="dav">    3.42    3.43</time>
   <time name="total">    3.52    3.52</time>
   <energy>
    <i name="e_fr_energy">    -10.84883197 </i>
    <i name="e_wo_entrp">    -10.84883197 </i>
    <i name="e_0_energy">    -10.84883197 </i>
   </energy>
  </scstep>
  <scstep>
   <time name="dav">    1.60    1.60</time>
   <time name="total">    1.69    1.70</time>
   <energy>
    <i name="e_fr_energy">    -10.84883196 </i>
    <i name="e_wo_entrp">    -10.84883195 </i>
    <i name="e_0_energy">    -10.84883196 </i>
   </energy>
  </scstep>
  <scstep>
   <time name="dav">    1.21    1.21</time>
   <time name="total">    1.22    1.22</time>
   <energy>
    <i name="alphaZ">      3.32799094 </i>
    <i name="ewald">   -227.74174152 </i>
    <i name="hartreedc">    -15.04507060 </i>
    <i name="XCdc">    -18.01350243 </i>
    <i name="pawpsdc">    848.22374094 </i>
    <i name="pawaedc">   -813.25152003 </i>
    <i name="eentropy">     -0.00000000 </i>
    <i name="bandstr">      5.51815164 </i>
    <i name="atom">    206.13311910 </i>
    <i name="e_fr_energy">    -10.84883196 </i>
    <i name="e_wo_entrp">    -10.84883196 </i>
    <i name="e_0_energy">    -10.84883196 </i>
   </energy>
  </scstep>
  <structure>
   <crystal>
    <varray name="basis" >
     <v>       0.00000000       2.72479681       2.72479681 </v>
     <v>       2.72479681       0.00000000       2.72479681 </v>
     <v>       2.72479681       2.72479681       0.00000000 </v>
    </varray>
    <i name="volume">     40.46060393 </i>
    <varray name="rec_basis" >
     <v>      -0.18349992       0.18349992       0.18349992 </v>
     <v>       0.18349992      -0.18349992       0.18349992 </v>
     <v>       0.18349992       0.18349992      -0.18349992 </v>
    </varray>
   </crystal>
   <varray name="positions" >
    <v>       0.87500000       0.87500000       0.87500000 </v>
    <v>       0.12500000       0.12500000       0.12500000 </v>
   </varray>
  </structure>
  <varray name="forces" >
   <v>      -0.00000000      -0.00000000      -0.00000000 </v>
   <v>       0.00000000       0.00000000       0.00000000 </v>
  </varray>
  <varray name="stress" >
   <v>       9.58917159       0.00000000      -0.00000000 </v>
   <v>      -0.00000000       9.58917159       0.00000000 </v>
   <v>       0.00000000      -0.00000000       9.58917159 </v>
  </varray>
  <energy>
   <i name="e_fr_energy">    -10.84883196 </i>
   <i name="e_wo_entrp">    -10.84883196 </i>
   <i name="e_0_energy">     -0.00000000 </i>
  </energy>
  <time name="totalsc">   28.32   28.37</time>
 </calculation>
 <calculation>
  <scstep>
   <time name="dav">    2.42    2.42</time>
   <time name="total">    2.51    2.52</time>
   <energy>
    <i name="alphaZ">      3.29330467 </i>
    <i name="ewald">   -226.94775748 </i>
    <i name="hartreedc">    -14.99261788 </i>
    <i name="XCdc">    -18.06467334 </i>
    <i name="pawpsdc">    848.22799935 </i>
    <i name="pawaedc">   -813.25578099 </i>
    <i name="eentropy">     -0.00000000 </i>
    <i name="bandstr">      4.75568960 </i>
    <i name="atom">    206.13311910 </i>
    <i name="e_fr_energy">    -10.85071696 </i>
    <i name="e_wo_entrp">    -10.85071696 </i>
    <i name="e_0_energy">    -10.85071696 </i>
   </energy>
  </scstep>
  <scstep>
   <time name="dav">    2.19    2.20</time>
   <time name="total">    2.29    2.29</time>
   <energy>
    <i name="e_fr_energy">    -10.85030782 </i>
    <i name="e_wo_entrp">    -10.85030782 </i>
    <i name="e_0_energy">    -10.85030782 </i>
   </energy>
  </scstep>
  <scstep>
   <time name="dav">    2.16    2.16</time>
   <time name="total">    2.26    2.26</time>
   <energy>
    <i name="e_fr_energy">    -10.85009375 </i>
    <i name="e_wo_entrp">    -10.85009375 </i>
    <i name="e_0_energy">    -10.85009375 </i>
   </energy>
  </scstep>
  <scstep>
   <time name="dav">    3.09    3.10</time>
   <time name="total">    3.19    3.20</time>
   <energy>
    <i name="e_fr_energy">    -10.85009347 </i>
    <i name="e_wo_entrp">    -10.85009346 </i>
    <i name="e_0_energy">    -10.85009347 </i>
   </energy>
  </scstep>
  <scstep>
   <time name="dav">    2.84    2.84</time>
   <time name="total">    2.93    2.94</time>
   <energy>
    <i name="e_fr_energy">    -10.85009095 </i>
    <i name="e_wo_entrp">    -10.85009095 </i>
    <i name="e_0_energy">    -10.85009095 </i>
   </energy>
  </scstep>
  <scstep>
   <time name="dav">    3.07    3.07</time>
   <time name="total">    3.17    3.17</time>
   <energy>
    <i name="e_fr_energy">    -10.85009041 </i>
    <i name="e_wo_entrp">    -10.85009041 </i>
    <i name="e_0_energy">    -10.85009041 </i>
   </energy>
  </scstep>
  <scstep>
   <time name="dav">    2.80    2.80</time>
   <time name="total">    2.89    2.90</time>
   <energy>
    <i name="e_fr_energy">    -10.85009047 </i>
    <i name="e_wo_entrp">    -10.85009047 </i>
    <i name="e_0_energy">    -10.85009047 </i>
   </energy>
  </scstep>
  <scstep>
   <time name="dav">    1.89    1.89</time>
   <time name="total">    1.89    1.90</time>
   <energy>
    <i name="alphaZ">      3.29330467 </i>
    <i name="ewald">   -226.94775748 </i>
    <i name="hartreedc">    -15.17019601 </i>
    <i name="XCdc">    -18.06133720 </i>
    <i name="pawpsdc">    828.57233934 </i>
    <i name="pawaedc">   -793.59105553 </i>
    <i name="eentropy">     -0.00000000 </i>
    <i name="bandstr">      4.92149262 </i>
    <i name="atom">    206.13311910 </i>
    <i name="e_fr_energy">    -10.85009048 </i>
    <i name="e_wo_entrp">    -10.85009048 </i>
    <i name="e_0_energy">    -10.85009048 </i>
   </energy>
  </scstep>
  <structure>
   <crystal>
    <varray name="basis" >
     <v>       0.00000000       2.73432960       2.73432960 </v>
     <v>       2.73432960       0.00000000       2.73432960 </v>
     <v>       2.73432960       2.73432960       0.00000000 </v>
    </varray>
    <i name="volume">     40.88674952 </i>
    <varray name="rec_basis" >
     <v>      -0.18286018       0.18286018       0.18286018 </v>
     <v>       0.18286018      -0.18286018       0.18286018 </v>
     <v>       0.18286018       0.18286018      -0.18286018 </v>
    </varray>
   </crystal>
   <varray name="positions" >
    <v>       0.87500000       0.87500000       0.87500000 </v>
    <v>       0.12500000       0.12500000       0.12500000 </v>
   </varray>
  </structure>
  <varray name="forces" >
   <v>       0.00000000       0.00000000       0.00000000 </v>
   <v>      -0.00000000      -0.00000000      -0.00000000 </v>
  </varray>
  <varray name="stress" >
   <v>       0.05545735      -0.00000000      -0.00000000 </v>
   <v>      -0.00000000       0.05545735      -0.00000000 </v>
   <v>       0.00000000      -0.00000000       0.05545735 </v>
  </varray>
  <energy>
   <i name="e_fr_energy">    -10.85009048 </i>
   <i name="e_wo_entrp">    -10.85009048 </i>
   <i name="e_0_energy">     -0.00000000 </i>
  </energy>
  <time name="totalsc">   23.92   24.04</time>
  <eigenvalues>
   <array>
    <dimension dim="1">band</dimension>
    <dimension dim="2">kpoint</dimension>
    <dimension dim="3">spin</dimension>
    <field>eigene</field>
    <field>occ</field>
    <set>
     <set comment="spin 1">
      <set comment="kpoint 1">
       <r>   -6.1861    1.0000 </r>
       <r>    5.4660    1.0000 </r>
       <r>    5.5946    1.0000 </r>
       <r>    5.5946    1.0000 </r>
       <r>    8.2042    0.0000 </r>
       <r>    8.2048    0.0000 </r>
       <r>    8.2048    0.0000 </r>
       <r>    8.8475    0.0000 </r>
       <r>   13.2811    0.0000 </r>
       <r>   13.2811    0.0000 </r>
       <r>   13.5503    0.0000 </r>
       <r>   16.7459    0.0000 </r>
       <r>   16.8841    0.0000 </r>
       <r>   16.8841    0.0000 </r>
       <r>   20.9816    0.0000 </r>
       <r>   28.3025    0.0000 </r>
      </set>
      <set comment="kpoint 2">
       <r>   -6.1190    1.0000 </r>
       <r>    4.8884    1.0000 </r>
       <r>    5.3476    1.0000 </r>
       <r>    5.5651    1.0000 </r>
       <r>    8.2619    0.0000 </r>
       <r>    8.2717    0.0000 </r>
       <r>    8.4010    0.0000 </r>
       <r>    9.3694    0.0000 </r>
       <r>   12.9577    0.0000 </r>
       <r>   13.2142    0.0000 </r>
       <r>   13.8354    0.0000 </r>
       <r>   16.6145    0.0000 </r>
       <r>   17.0505    0.0000 </r>
       <r>   17.4378    0.0000 </r>
       <r>   21.4310    0.0000 </r>
       <r>   27.2479    0.0000 </r>
      </set>
      <set comment="kpoint 3">
       <r>   -5.9525    1.0000 </r>
       <r>    3.8213    1.0000 </r>
       <r>    5.0890    1.0000 </r>
       <r>    5.3971    1.0000 </r>
       <r>    8.1022    0.0000 </r>
       <r>    8.5306    0.0000 </r>
       <r>    8.7506    0.0000 </r>
       <r>   10.3657    0.0000 </r>
       <r>   12.5933    0.0000 </r>
       <r>   12.9986    0.0000 </r>
       <r>   14.4179    0.0000 </r>
       <r>   16.2734    0.0000 </r>
       <r>   17.8466    0.0000 </r>
       <r>   18.3757    0.0000 </r>
       <r>   22.3469    0.0000 </r>
       <r>   25.6864    0.0000 </r>
      </set>
      <set comment="kpoint 4">
       <r>   -5.6899    1.0000 </r>
       <r>    2.6696    1.0000 </r>
       <r>    4.8384    1.0000 </r>
       <r>    5.1686    1.0000 </r>
       <r>    7.8637    0.0000 </r>
       <r>    8.8319    0.0000 </r>
       <r>    9.0763    0.0000 </r>
       <r>   11.4123    0.0000 </r>
       <r>   12.4161    0.0000 </r>
       <r>   12.9619    0.0000 </r>
       <r>   14.7618    0.0000 </r>
       <r>   16.4844    0.0000 </r>
       <r>   18.9179    0.0000 </r>
       <r>   19.5065    0.0000 </r>
       <r>   23.3496    0.0000 </r>
       <r>   24.0662    0.0000 </r>
      </set>
      <set comment="kpoint 5">
       <r>   -5.3385    1.0000 </r>
       <r>    1.5486    1.0000 </r>
       <r>    4.6254    1.0000 </r>
       <r>    4.9382    1.0000 </r>
       <r>    7.6287    0.0000 </r>
       <r>    9.0251    0.0000 </r>
       <r>    9.2353    0.0000 </r>
       <r>   12.3243    0.0000 </r>
       <r>   12.5858    0.0000 </r>
       <r>   13.3653    0.0000 </r>
       <r>   14.5807    0.0000 </r>
       <r>   17.5531    0.0000 </r>
       <r>   19.9677    0.0000 </r>
       <r>   20.5855    0.0000 </r>
       <r>   22.6156    0.0000 </r>
       <r>   23.3819    0.0000 </r>
      </set>
      <set comment="kpoint 6">
       <r>   -4.9136    1.0000 </r>
       <r>    0.5120    1.0000 </r>
       <r>    4.4650    1.0000 </r>
       <r>    4.7363    1.0000 </r>
       <r>    7.4311    0.0000 </r>
       <r>    9.0662    0.0000 </r>
       <r>    9.2136    0.0000 </r>
       <r>   13.0595    0.0000 </r>
       <r>   13.1426    0.0000 </r>
       <r>   14.0201    0.0000 </r>
       <r>   14.6026    0.0000 </r>
       <r>   18.8234    0.0000 </r>
       <r>   19.9250    0.0000 </r>
       <r>   20.5811    0.0000 </r>
       <r>   22.2894    0.0000 </r>
       <r>   22.7071    0.0000 </r>
      </set>
      <set comment="kpoint 7">
       <r>   -4.4516    1.0000 </r>
       <r>   -0.3862    1.0000 </r>
       <r>    4.3633    1.0000 </r>
       <r>    4.5770    1.0000 </r>
       <r>    7.2869    0.0000 </r>
       <r>    9.0295    0.0000 </r>
       <r>    9.1054    0.0000 </r>
       <r>   13.4143    0.0000 </r>
       <r>   14.0056    0.0000 </r>
       <r>   14.5389    0.0000 </r>
       <r>   15.4932    0.0000 </r>
       <r>   18.5377    0.0000 </r>
       <r>   19.3499    0.0000 </r>
       <r>   19.6159    0.0000 </r>
       <r>   22.1744    0.0000 </r>
       <r>   23.9243    0.0000 </r>
      </set>
      <set comment="kpoint 8">
       <r>   -4.0486    1.0000 </r>
       <r>   -1.0410    1.0000 </r>
       <r>    4.3216    1.0000 </r>
       <r>    4.4675    1.0000 </r>
       <r>    7.2031    0.0000 </r>
       <r>    8.9983    0.0000 </r>
       <r>    8.9996    0.0000 </r>
       <r>   13.3918    0.0000 </r>
       <r>   15.0725    0.0000 </r>
       <r>   15.4591    0.0000 </r>
       <r>   16.5574    0.0000 </r>
       <r>   17.2599    0.0000 </r>
       <r>   17.9772    0.0000 </r>
       <r>   18.9220    0.0000 </r>
       <r>   23.4870    0.0000 </r>
       <r>   25.5194    0.0000 </r>
      </set>
      <set comment="kpoint 9">
       <r>   -3.9147    1.0000 </r>
       <r>   -1.2382    1.0000 </r>
       <r>    4.3386    1.0000 </r>
       <r>    4.4118    1.0000 </r>
       <r>    7.1825    0.0000 </r>
       <r>    8.9424    0.0000 </r>
       <r>    9.0163    0.0000 </r>
       <r>   13.3676    0.0000 </r>
       <r>   15.6324    0.0000 </r>
       <r>   16.1026    0.0000 </r>
       <r>   16.8259    0.0000 </r>
       <r>   16.8613    0.0000 </r>
       <r>   17.2103    0.0000 </r>
       <r>   18.4881    0.0000 </r>
       <r>   24.6096    0.0000 </r>
       <r>   25.4773    0.0000 </r>
      </set>
      <set comment="kpoint 10">
       <r>   -4.1657    1.0000 </r>
       <r>   -0.8609    1.0000 </r>
       <r>    4.4123    1.0000 </r>
       <r>    4.4127    1.0000 </r>
       <r>    7.2257    0.0000 </r>
       <r>    8.9452    0.0000 </r>
       <r>    9.0921    0.0000 </r>
       <r>   13.3911    0.0000 </r>
       <r>   14.6112    0.0000 </r>
       <r>   15.3377    0.0000 </r>
       <r>   16.1173    0.0000 </r>
       <r>   17.7721    0.0000 </r>
       <r>   18.2479    0.0000 </r>
       <r>   19.2898    0.0000 </r>
       <r>   22.9619    0.0000 </r>
       <r>   24.9947    0.0000 </r>
      </set>
      <set comment="kpoint 11">
       <r>   -4.6056    1.0000 </r>
       <r>   -0.1070    1.0000 </r>
       <r>    4.4722    1.0000 </r>
       <r>    4.5395    1.0000 </r>
       <r>    7.3313    0.0000 </r>
       <r>    8.9888    0.0000 </r>
       <r>    9.2035    0.0000 </r>
       <r>   13.2015    0.0000 </r>
       <r>   13.9080    0.0000 </r>
       <r>   14.3225    0.0000 </r>
       <r>   15.0812    0.0000 </r>
       <r>   19.1359    0.0000 </r>
       <r>   19.2614    0.0000 </r>
       <r>   19.9500    0.0000 </r>
       <r>   22.0674    0.0000 </r>
       <r>   23.4614    0.0000 </r>
      </set>
      <set comment="kpoint 12">
       <r>   -5.0618    1.0000 </r>
       <r>    0.8452    1.0000 </r>
       <r>    4.5906    1.0000 </r>
       <r>    4.7158    1.0000 </r>
       <r>    7.4950    0.0000 </r>
       <r>    9.0145    0.0000 </r>
       <r>    9.2920    0.0000 </r>
       <r>   12.5495    0.0000 </r>
       <r>   13.5130    0.0000 </r>
       <r>   13.5210    0.0000 </r>
       <r>   14.5014    0.0000 </r>
       <r>   18.4322    0.0000 </r>
       <r>   20.1680    0.0000 </r>
       <r>   20.7421    0.0000 </r>
       <r>   22.4632    0.0000 </r>
       <r>   22.5923    0.0000 </r>
      </set>
      <set comment="kpoint 13">
       <r>   -5.4648    1.0000 </r>
       <r>    1.9152    1.0000 </r>
       <r>    4.7653    1.0000 </r>
       <r>    4.9325    1.0000 </r>
       <r>    7.7069    0.0000 </r>
       <r>    8.9286    0.0000 </r>
       <r>    9.2622    0.0000 </r>
       <r>   11.9161    0.0000 </r>
       <r>   12.7474    0.0000 </r>
       <r>   13.0401    0.0000 </r>
       <r>   14.6554    0.0000 </r>
       <r>   17.1446    0.0000 </r>
       <r>   19.6932    0.0000 </r>
       <r>   20.2169    0.0000 </r>
       <r>   23.1821    0.0000 </r>
       <r>   23.3829    0.0000 </r>
      </set>
      <set comment="kpoint 14">
       <r>   -5.7877    1.0000 </r>
       <r>    3.0544    1.0000 </r>
       <r>    4.9870    1.0000 </r>
       <r>    5.1714    1.0000 </r>
       <r>    7.9448    0.0000 </r>
       <r>    8.6858    0.0000 </r>
       <r>    9.0476    0.0000 </r>
       <r>   11.0500    0.0000 </r>
       <r>   12.4628    0.0000 </r>
       <r>   12.9347    0.0000 </r>
       <r>   14.7216    0.0000 </r>
       <r>   16.2993    0.0000 </r>
       <r>   18.5903    0.0000 </r>
       <r>   19.0621    0.0000 </r>
       <r>   23.0569    0.0000 </r>
       <r>   24.7454    0.0000 </r>
      </set>
      <set comment="kpoint 15">
       <r>   -6.0189    1.0000 </r>
       <r>    4.2009    1.0000 </r>
       <r>    5.2345    1.0000 </r>
       <r>    5.3933    1.0000 </r>
       <r>    8.1467    0.0000 </r>
       <r>    8.4011    0.0000 </r>
       <r>    8.7057    0.0000 </r>
       <r>    9.9977    0.0000 </r>
       <r>   12.6677    0.0000 </r>
       <r>   13.1086    0.0000 </r>
       <r>   14.2113    0.0000 </r>
       <r>   16.3671    0.0000 </r>
       <r>   17.5919    0.0000 </r>
       <r>   17.9707    0.0000 </r>
       <r>   22.0154    0.0000 </r>
       <r>   26.4130    0.0000 </r>
      </set>
      <set comment="kpoint 16">
       <r>   -6.1525    1.0000 </r>
       <r>    5.2004    1.0000 </r>
       <r>    5.4624    1.0000 </r>
       <r>    5.5256    1.0000 </r>
       <r>    8.1258    0.0000 </r>
       <r>    8.3310    0.0000 </r>
       <r>    8.3775    0.0000 </r>
       <r>    9.0882    0.0000 </r>
       <r>   13.0345    0.0000 </r>
       <r>   13.3201    0.0000 </r>
       <r>   13.6963    0.0000 </r>
       <r>   16.7328    0.0000 </r>
       <r>   16.9417    0.0000 </r>
       <r>   17.1320    0.0000 </r>
       <r>   21.2181    0.0000 </r>
       <r>   27.8220    0.0000 </r>
      </set>
      <set comment="kpoint 17">
       <r>   -6.0854    1.0000 </r>
       <r>    4.8288    1.0000 </r>
       <r>    5.2400    1.0000 </r>
       <r>    5.3165    1.0000 </r>
       <r>    7.9797    0.0000 </r>
       <r>    8.5948    0.0000 </r>
       <r>    8.6809    0.0000 </r>
       <r>    9.4550    0.0000 </r>
       <r>   12.6442    0.0000 </r>
       <r>   13.3981    0.0000 </r>
       <r>   13.9739    0.0000 </r>
       <r>   16.8152    0.0000 </r>
       <r>   17.0568    0.0000 </r>
       <r>   17.4456    0.0000 </r>
       <r>   21.6768    0.0000 </r>
       <r>   27.0752    0.0000 </r>
      </set>
      <set comment="kpoint 18">
       <r>   -5.9519    1.0000 </r>
       <r>    4.0807    1.0000 </r>
       <r>    4.8546    1.0000 </r>
       <r>    5.2268    1.0000 </r>
       <r>    7.9615    0.0000 </r>
       <r>    8.7343    0.0000 </r>
       <r>    9.0200    0.0000 </r>
       <r>   10.1359    0.0000 </r>
       <r>   12.2864    0.0000 </r>
       <r>   13.3817    0.0000 </r>
       <r>   14.4687    0.0000 </r>
       <r>   16.7250    0.0000 </r>
       <r>   17.3484    0.0000 </r>
       <r>   18.2383    0.0000 </r>
       <r>   22.4589    0.0000 </r>
       <r>   25.6330    0.0000 </r>
      </set>
      <set comment="kpoint 19">
       <r>   -5.7211    1.0000 </r>
       <r>    3.0139    1.0000 </r>
       <r>    4.5577    1.0000 </r>
       <r>    5.0468    1.0000 </r>
       <r>    8.0848    0.0000 </r>
       <r>    8.6900    0.0000 </r>
       <r>    9.3997    0.0000 </r>
       <r>   10.8072    0.0000 </r>
       <r>   12.3203    0.0000 </r>
       <r>   13.3588    0.0000 </r>
       <r>   15.0298    0.0000 </r>
       <r>   16.5734    0.0000 </r>
       <r>   18.2334    0.0000 </r>
       <r>   19.3683    0.0000 </r>
       <r>   23.4471    0.0000 </r>
       <r>   24.0042    0.0000 </r>
      </set>
      <set comment="kpoint 20">
       <r>   -5.3984    1.0000 </r>
       <r>    1.9105    1.0000 </r>
       <r>    4.3199    1.0000 </r>
       <r>    4.8093    1.0000 </r>
       <r>    8.0392    0.0000 </r>
       <r>    8.8035    0.0000 </r>
       <r>    9.6233    0.0000 </r>
       <r>   11.1531    0.0000 </r>
       <r>   12.8783    0.0000 </r>
       <r>   13.7073    0.0000 </r>
       <r>   15.0438    0.0000 </r>
       <r>   17.2653    0.0000 </r>
       <r>   19.2835    0.0000 </r>
       <r>   20.5460    0.0000 </r>
       <r>   22.4602    0.0000 </r>
       <r>   23.4288    0.0000 </r>
      </set>
      <set comment="kpoint 21">
       <r>   -4.9958    1.0000 </r>
       <r>    0.8596    1.0000 </r>
       <r>    4.1378    1.0000 </r>
       <r>    4.5797    1.0000 </r>
       <r>    7.8854    0.0000 </r>
       <r>    8.8981    0.0000 </r>
       <r>    9.6368    0.0000 </r>
       <r>   11.6265    0.0000 </r>
       <r>   13.5640    0.0000 </r>
       <r>   14.4946    0.0000 </r>
       <r>   14.8409    0.0000 </r>
       <r>   18.4285    0.0000 </r>
       <r>   19.6940    0.0000 </r>
       <r>   20.9960    0.0000 </r>
       <r>   21.8786    0.0000 </r>
       <r>   22.8218    0.0000 </r>
      </set>
      <set comment="kpoint 22">
       <r>   -4.5397    1.0000 </r>
       <r>   -0.0818    1.0000 </r>
       <r>    4.0049    1.0000 </r>
[...]
       <r>   19.3428    0.0000 </r>
       <r>   19.8685    0.0000 </r>
       <r>   20.3341    0.0000 </r>
       <r>   22.8535    0.0000 </r>
       <r>   25.2595    0.0000 </r>
      </set>
      <set comment="kpoint 403">
       <r>   -4.0151    1.0000 </r>
       <r>   -1.0252    1.0000 </r>
       <r>    4.1329    1.0000 </r>
       <r>    4.3191    1.0000 </r>
       <r>    7.4439    0.0000 </r>
       <r>    8.8808    0.0000 </r>
       <r>    9.2166    0.0000 </r>
       <r>   13.4063    0.0000 </r>
       <r>   14.5312    0.0000 </r>
       <r>   15.9969    0.0000 </r>
       <r>   16.6977    0.0000 </r>
       <r>   17.0727    0.0000 </r>
       <r>   17.8144    0.0000 </r>
       <r>   19.4357    0.0000 </r>
       <r>   23.4791    0.0000 </r>
       <r>   25.2800    0.0000 </r>
      </set>
      <set comment="kpoint 404">
       <r>   -3.8391    1.0000 </r>
       <r>   -1.1139    1.0000 </r>
       <r>    3.5209    1.0000 </r>
       <r>    4.2021    1.0000 </r>
       <r>    7.8566    0.0000 </r>
       <r>    8.8097    0.0000 </r>
       <r>    9.5754    0.0000 </r>
       <r>   13.5162    0.0000 </r>
       <r>   14.4021    0.0000 </r>
       <r>   15.5069    0.0000 </r>
       <r>   16.6379    0.0000 </r>
       <r>   17.5927    0.0000 </r>
       <r>   18.3610    0.0000 </r>
       <r>   19.6607    0.0000 </r>
       <r>   23.8543    0.0000 </r>
       <r>   25.4261    0.0000 </r>
      </set>
      <set comment="kpoint 405">
       <r>   -3.6154    1.0000 </r>
       <r>   -1.1188    1.0000 </r>
       <r>    2.7699    1.0000 </r>
       <r>    3.9221    1.0000 </r>
       <r>    8.0712    0.0000 </r>
       <r>    9.0207    0.0000 </r>
       <r>   10.3615    0.0000 </r>
       <r>   13.3928    0.0000 </r>
       <r>   13.6488    0.0000 </r>
       <r>   15.3616    0.0000 </r>
       <r>   16.8160    0.0000 </r>
       <r>   17.9441    0.0000 </r>
       <r>   19.8227    0.0000 </r>
       <r>   20.1242    0.0000 </r>
       <r>   23.8296    0.0000 </r>
       <r>   24.7795    0.0000 </r>
      </set>
      <set comment="kpoint 406">
       <r>   -3.7470    1.0000 </r>
       <r>   -1.1646    1.0000 </r>
       <r>    3.2997    1.0000 </r>
       <r>    4.1335    1.0000 </r>
       <r>    7.7946    0.0000 </r>
       <r>    9.1096    0.0000 </r>
       <r>    9.6354    0.0000 </r>
       <r>   13.4027    0.0000 </r>
       <r>   14.4730    0.0000 </r>
       <r>   15.4270    0.0000 </r>
       <r>   16.6861    0.0000 </r>
       <r>   17.7331    0.0000 </r>
       <r>   18.4234    0.0000 </r>
       <r>   19.8696    0.0000 </r>
       <r>   24.4768    0.0000 </r>
       <r>   24.8920    0.0000 </r>
      </set>
      <set comment="kpoint 407">
       <r>   -3.9727    1.0000 </r>
       <r>   -1.1758    1.0000 </r>
       <r>    4.4447    1.0000 </r>
       <r>    4.4447    1.0000 </r>
       <r>    7.0912    0.0000 </r>
       <r>    8.9735    0.0000 </r>
       <r>    8.9735    0.0000 </r>
       <r>   13.3305    0.0000 </r>
       <r>   15.7485    0.0000 </r>
       <r>   15.7485    0.0000 </r>
       <r>   16.5912    0.0000 </r>
       <r>   17.2288    0.0000 </r>
       <r>   17.2288    0.0000 </r>
       <r>   18.5538    0.0000 </r>
       <r>   24.0745    0.0000 </r>
       <r>   26.0892    0.0000 </r>
      </set>
      <set comment="kpoint 408">
       <r>   -3.8812    1.0000 </r>
       <r>   -1.2217    1.0000 </r>
       <r>    4.0464    1.0000 </r>
       <r>    4.3708    1.0000 </r>
       <r>    7.4215    0.0000 </r>
       <r>    8.9253    0.0000 </r>
       <r>    9.1252    0.0000 </r>
       <r>   13.4989    0.0000 </r>
       <r>   15.3251    0.0000 </r>
       <r>   15.5532    0.0000 </r>
       <r>   16.6113    0.0000 </r>
       <r>   17.4562    0.0000 </r>
       <r>   17.6673    0.0000 </r>
       <r>   18.7025    0.0000 </r>
       <r>   24.5362    0.0000 </r>
       <r>   25.4134    0.0000 </r>
      </set>
     </set>
    </set>
   </array>
  </eigenvalues>
  <separator name="orbital magnetization" >
   <v name="MAGDIPOLOUT">      0.00000000      0.00000000      0.00000000</v>
  </separator>
  <dos>
   <i name="efermi">      5.92968137 </i>
   <total>
    <array>
     <dimension dim="1">gridpoints</dimension>
     <dimension dim="2">spin</dimension>
     <field>energy</field>
     <field>total</field>
     <field>integrated</field>
     <set>
      <set comment="spin 1">
       <r>    -7.9105     0.0000     0.0000 </r>
       <r>    -7.7840     0.0000     0.0000 </r>
       <r>    -7.6576     0.0000     0.0000 </r>
       <r>    -7.5311     0.0000     0.0000 </r>
       <r>    -7.4047     0.0000     0.0000 </r>
       <r>    -7.2782     0.0000     0.0000 </r>
       <r>    -7.1517     0.0000     0.0000 </r>
       <r>    -7.0253     0.0000     0.0000 </r>
       <r>    -6.8988     0.0000     0.0000 </r>
       <r>    -6.7724     0.0000     0.0000 </r>
       <r>    -6.6459     0.0000     0.0000 </r>
       <r>    -6.5195     0.0000     0.0000 </r>
       <r>    -6.3930     0.0000     0.0000 </r>
       <r>    -6.2665     0.0029     0.0004 </r>
       <r>    -6.1401     0.0386     0.0052 </r>
       <r>    -6.0136     0.1158     0.0199 </r>
       <r>    -5.8872     0.1753     0.0421 </r>
       <r>    -5.7607     0.2192     0.0698 </r>
       <r>    -5.6342     0.2567     0.1022 </r>
       <r>    -5.5078     0.2873     0.1386 </r>
       <r>    -5.3813     0.3239     0.1795 </r>
       <r>    -5.2549     0.3455     0.2232 </r>
       <r>    -5.1284     0.3864     0.2721 </r>
       <r>    -5.0020     0.3980     0.3224 </r>
       <r>    -4.8755     0.4462     0.3788 </r>
       <r>    -4.7490     0.4571     0.4366 </r>
       <r>    -4.6226     0.4988     0.4997 </r>
       <r>    -4.4961     0.5333     0.5672 </r>
       <r>    -4.3697     0.5488     0.6366 </r>
       <r>    -4.2432     0.6215     0.7152 </r>
       <r>    -4.1167     0.6468     0.7970 </r>
       <r>    -3.9903     0.7168     0.8876 </r>
       <r>    -3.8638     0.8714     0.9978 </r>
       <r>    -3.7374     0.8500     1.1053 </r>
       <r>    -3.6109     0.8342     1.2108 </r>
       <r>    -3.4845     0.8210     1.3146 </r>
       <r>    -3.3580     0.7331     1.4073 </r>
       <r>    -3.2315     0.6858     1.4940 </r>
       <r>    -3.1051     0.6764     1.5796 </r>
       <r>    -2.9786     0.6503     1.6618 </r>
       <r>    -2.8522     0.4752     1.7219 </r>
       <r>    -2.7257     0.5687     1.7938 </r>
       <r>    -2.5993     0.5117     1.8585 </r>
       <r>    -2.4728     0.3106     1.8978 </r>
       <r>    -2.3463     0.3530     1.9425 </r>
       <r>    -2.2199     0.3302     1.9842 </r>
       <r>    -2.0934     0.1139     1.9986 </r>
       <r>    -1.9670     0.0304     2.0025 </r>
       <r>    -1.8405     0.2044     2.0283 </r>
       <r>    -1.7140     0.3279     2.0698 </r>
       <r>    -1.5876     0.2167     2.0972 </r>
       <r>    -1.4611     0.3447     2.1408 </r>
       <r>    -1.3347     0.6936     2.2285 </r>
       <r>    -1.2082     0.6585     2.3118 </r>
       <r>    -1.0818     1.2319     2.4676 </r>
       <r>    -0.9553     1.4084     2.6457 </r>
       <r>    -0.8288     1.0290     2.7758 </r>
       <r>    -0.7024     0.7509     2.8708 </r>
       <r>    -0.5759     0.6684     2.9553 </r>
       <r>    -0.4495     0.6658     3.0395 </r>
       <r>    -0.3230     0.5962     3.1149 </r>
       <r>    -0.1965     0.4876     3.1765 </r>
       <r>    -0.0701     0.4499     3.2334 </r>
       <r>     0.0564     0.4847     3.2947 </r>
       <r>     0.1828     0.3879     3.3438 </r>
       <r>     0.3093     0.4268     3.3977 </r>
       <r>     0.4357     0.2692     3.4318 </r>
       <r>     0.5622     0.3939     3.4816 </r>
       <r>     0.6887     0.3029     3.5199 </r>
       <r>     0.8151     0.2639     3.5533 </r>
       <r>     0.9416     0.3061     3.5920 </r>
       <r>     1.0680     0.1972     3.6169 </r>
       <r>     1.1945     0.2827     3.6527 </r>
       <r>     1.3210     0.3148     3.6925 </r>
       <r>     1.4474     0.5463     3.7616 </r>
       <r>     1.5739     1.0070     3.8889 </r>
       <r>     1.7003     1.1654     4.0363 </r>
       <r>     1.8268     1.1584     4.1828 </r>
       <r>     1.9532     1.0662     4.3176 </r>
       <r>     2.0797     1.0575     4.4513 </r>
       <r>     2.2062     1.0036     4.5782 </r>
       <r>     2.3326     1.1282     4.7209 </r>
       <r>     2.4591     1.0857     4.8582 </r>
       <r>     2.5855     1.1486     5.0034 </r>
       <r>     2.7120     1.2833     5.1657 </r>
       <r>     2.8384     1.3856     5.3409 </r>
       <r>     2.9649     1.5442     5.5362 </r>
       <r>     3.0914     1.4847     5.7240 </r>
       <r>     3.2178     1.5101     5.9149 </r>
       <r>     3.3443     1.4065     6.0928 </r>
       <r>     3.4707     1.4248     6.2730 </r>
       <r>     3.5972     1.3636     6.4454 </r>
       <r>     3.7237     1.3212     6.6125 </r>
       <r>     3.8501     1.3172     6.7791 </r>
       <r>     3.9766     1.2443     6.9364 </r>
       <r>     4.1030     1.2562     7.0953 </r>
       <r>     4.2295     1.1687     7.2431 </r>
       <r>     4.3559     1.2056     7.3955 </r>
       <r>     4.4824     1.0090     7.5231 </r>
       <r>     4.6089     0.8952     7.6363 </r>
       <r>     4.7353     0.6357     7.7167 </r>
       <r>     4.8618     0.5746     7.7894 </r>
       <r>     4.9882     0.4664     7.8483 </r>
       <r>     5.1147     0.3731     7.8955 </r>
       <r>     5.2412     0.3174     7.9357 </r>
       <r>     5.3676     0.2384     7.9658 </r>
       <r>     5.4941     0.1712     7.9875 </r>
       <r>     5.6205     0.0844     7.9981 </r>
       <r>     5.7470     0.0144     8.0000 </r>
       <r>     5.8734     0.0004     8.0000 </r>
       <r>     5.9999     0.0000     8.0000 </r>
       <r>     6.1264     0.0009     8.0001 </r>
       <r>     6.2528     0.0256     8.0034 </r>
       <r>     6.3793     0.1073     8.0169 </r>
       <r>     6.5057     0.2509     8.0487 </r>
       <r>     6.6322     0.3106     8.0879 </r>
       <r>     6.7587     0.4186     8.1409 </r>
       <r>     6.8851     0.5037     8.2046 </r>
       <r>     7.0116     0.5213     8.2705 </r>
       <r>     7.1380     0.6427     8.3517 </r>
       <r>     7.2645     0.7904     8.4517 </r>
       <r>     7.3909     0.8660     8.5612 </r>
       <r>     7.5174     0.9598     8.6826 </r>
       <r>     7.6439     1.1987     8.8342 </r>
       <r>     7.7703     1.3634     9.0066 </r>
       <r>     7.8968     1.6072     9.2098 </r>
       <r>     8.0232     1.5440     9.4051 </r>
       <r>     8.1497     1.5334     9.5990 </r>
       <r>     8.2762     1.3789     9.7734 </r>
       <r>     8.4026     1.1838     9.9231 </r>
       <r>     8.5291     1.1076    10.0631 </r>
       <r>     8.6555     1.0938    10.2014 </r>
       <r>     8.7820     1.2098    10.3544 </r>
       <r>     8.9084     1.7755    10.5790 </r>
       <r>     9.0349     2.1710    10.8535 </r>
       <r>     9.1614     1.8867    11.0921 </r>
       <r>     9.2878     1.6589    11.3019 </r>
       <r>     9.4143     1.6449    11.5099 </r>
       <r>     9.5407     1.6533    11.7190 </r>
       <r>     9.6672     1.2624    11.8786 </r>
       <r>     9.7936     1.1411    12.0229 </r>
       <r>     9.9201     1.3543    12.1942 </r>
       <r>    10.0466     1.3172    12.3607 </r>
       <r>    10.1730     1.1609    12.5075 </r>
       <r>    10.2995     1.2720    12.6684 </r>
       <r>    10.4259     1.4985    12.8579 </r>
       <r>    10.5524     1.2969    13.0219 </r>
       <r>    10.6789     1.0769    13.1581 </r>
       <r>    10.8053     1.1985    13.3096 </r>
       <r>    10.9318     1.2595    13.4689 </r>
       <r>    11.0582     1.1954    13.6201 </r>
       <r>    11.1847     1.1482    13.7653 </r>
       <r>    11.3111     1.0734    13.9010 </r>
       <r>    11.4376     1.0674    14.0360 </r>
       <r>    11.5641     1.1966    14.1873 </r>
       <r>    11.6905     1.0140    14.3155 </r>
       <r>    11.8170     0.8588    14.4241 </r>
       <r>    11.9434     1.0217    14.5533 </r>
       <r>    12.0699     1.2895    14.7164 </r>
       <r>    12.1964     1.2687    14.8768 </r>
       <r>    12.3228     1.1800    15.0260 </r>
       <r>    12.4493     1.0468    15.1584 </r>
       <r>    12.5757     1.1430    15.3029 </r>
       <r>    12.7022     1.4330    15.4842 </r>
       <r>    12.8286     1.1800    15.6334 </r>
       <r>    12.9551     0.9351    15.7516 </r>
       <r>    13.0816     1.0528    15.8848 </r>
       <r>    13.2080     1.2484    16.0426 </r>
       <r>    13.3345     1.5590    16.2398 </r>
       <r>    13.4609     1.3713    16.4132 </r>
       <r>    13.5874     1.1547    16.5592 </r>
       <r>    13.7139     1.1352    16.7028 </r>
       <r>    13.8403     1.3086    16.8683 </r>
       <r>    13.9668     1.2544    17.0269 </r>
       <r>    14.0932     1.1252    17.1692 </r>
       <r>    14.2197     1.0001    17.2957 </r>
       <r>    14.3461     1.1951    17.4468 </r>
       <r>    14.4726     1.4914    17.6354 </r>
       <r>    14.5991     1.4692    17.8212 </r>
       <r>    14.7255     1.2147    17.9748 </r>
       <r>    14.8520     1.2619    18.1344 </r>
       <r>    14.9784     1.4039    18.3119 </r>
       <r>    15.1049     1.6059    18.5150 </r>
       <r>    15.2313     1.3481    18.6855 </r>
       <r>    15.3578     1.3033    18.8503 </r>
       <r>    15.4843     1.2122    19.0036 </r>
       <r>    15.6107     1.3134    19.1697 </r>
       <r>    15.7372     1.5033    19.3598 </r>
       <r>    15.8636     1.2420    19.5169 </r>
       <r>    15.9901     1.1514    19.6625 </r>
       <r>    16.1166     1.0904    19.8004 </r>
       <r>    16.2430     1.1487    19.9456 </r>
       <r>    16.3695     1.4417    20.1279 </r>
       <r>    16.4959     1.2828    20.2902 </r>
       <r>    16.6224     1.1866    20.4402 </r>
       <r>    16.7488     1.2806    20.6022 </r>
       <r>    16.8753     1.3269    20.7700 </r>
       <r>    17.0018     1.3400    20.9394 </r>
       <r>    17.1282     1.2082    21.0922 </r>
       <r>    17.2547     1.2268    21.2473 </r>
       <r>    17.3811     1.2350    21.4035 </r>
       <r>    17.5076     1.2908    21.5668 </r>
       <r>    17.6341     1.5819    21.7668 </r>
       <r>    17.7605     1.7910    21.9933 </r>
       <r>    17.8870     1.7003    22.2083 </r>
       <r>    18.0134     1.3891    22.3840 </r>
       <r>    18.1399     1.5920    22.5853 </r>
       <r>    18.2663     1.7341    22.8046 </r>
       <r>    18.3928     1.7000    23.0196 </r>
       <r>    18.5193     1.5002    23.2093 </r>
       <r>    18.6457     1.2713    23.3701 </r>
       <r>    18.7722     1.4499    23.5534 </r>
       <r>    18.8986     1.5789    23.7531 </r>
       <r>    19.0251     1.4205    23.9327 </r>
       <r>    19.1516     1.5768    24.1321 </r>
       <r>    19.2780     1.7039    24.3476 </r>
       <r>    19.4045     1.9361    24.5924 </r>
       <r>    19.5309     1.9318    24.8367 </r>
       <r>    19.6574     1.7752    25.0612 </r>
       <r>    19.7838     1.6251    25.2667 </r>
       <r>    19.9103     1.5573    25.4636 </r>
       <r>    20.0368     1.3424    25.6334 </r>
       <r>    20.1632     1.2527    25.7918 </r>
       <r>    20.2897     1.3000    25.9562 </r>
       <r>    20.4161     1.2930    26.1197 </r>
       <r>    20.5426     1.4576    26.3040 </r>
       <r>    20.6690     1.6575    26.5136 </r>
       <r>    20.7955     1.6199    26.7185 </r>
       <r>    20.9220     1.7072    26.9344 </r>
       <r>    21.0484     1.8225    27.1649 </r>
       <r>    21.1749     1.3133    27.3309 </r>
       <r>    21.3013     1.2558    27.4897 </r>
       <r>    21.4278     1.2890    27.6528 </r>
       <r>    21.5543     1.3180    27.8194 </r>
       <r>    21.6807     1.5019    28.0094 </r>
       <r>    21.8072     1.3332    28.1779 </r>
       <r>    21.9336     1.2420    28.3350 </r>
       <r>    22.0601     1.2767    28.4965 </r>
       <r>    22.1865     1.5178    28.6884 </r>
       <r>    22.3130     1.7379    28.9082 </r>
       <r>    22.4395     1.6767    29.1202 </r>
       <r>    22.5659     1.5875    29.3209 </r>
       <r>    22.6924     1.3829    29.4958 </r>
       <r>    22.8188     1.4129    29.6745 </r>
       <r>    22.9453     1.6664    29.8852 </r>
       <r>    23.0718     1.5961    30.0871 </r>
       <r>    23.1982     1.5351    30.2812 </r>
       <r>    23.3247     1.5951    30.4829 </r>
       <r>    23.4511     1.6433    30.6907 </r>
       <r>    23.5776     1.6385    30.8979 </r>
       <r>    23.7040     1.4346    31.0794 </r>
       <r>    23.8305     1.4847    31.2671 </r>
       <r>    23.9570     1.4050    31.4448 </r>
       <r>    24.0834     1.0943    31.5832 </r>
       <r>    24.2099     0.6475    31.6650 </r>
       <r>    24.3363     0.4614    31.7234 </r>
       <r>    24.4628     0.2712    31.7577 </r>
       <r>    24.5893     0.2460    31.7888 </r>
       <r>    24.7157     0.2281    31.8177 </r>
       <r>    24.8422     0.2960    31.8551 </r>
       <r>    24.9686     0.2234    31.8833 </r>
       <r>    25.0951     0.1193    31.8984 </r>
       <r>    25.2215     0.1270    31.9145 </r>
       <r>    25.3480     0.1204    31.9297 </r>
       <r>    25.4745     0.1154    31.9443 </r>
       <r>    25.6009     0.1107    31.9583 </r>
       <r>    25.7274     0.0839    31.9689 </r>
       <r>    25.8538     0.0404    31.9740 </r>
       <r>    25.9803     0.0196    31.9765 </r>
       <r>    26.1068     0.0057    31.9772 </r>
       <r>    26.2332     0.0118    31.9787 </r>
       <r>    26.3597     0.0205    31.9813 </r>
       <r>    26.4861     0.0406    31.9864 </r>
       <r>    26.6126     0.0213    31.9891 </r>
       <r>    26.7390     0.0011    31.9893 </r>
       <r>    26.8655     0.0000    31.9893 </r>
       <r>    26.9920     0.0027    31.9896 </r>
       <r>    27.1184     0.0151    31.9915 </r>
       <r>    27.2449     0.0199    31.9940 </r>
       <r>    27.3713     0.0150    31.9959 </r>
       <r>    27.4978     0.0013    31.9961 </r>
       <r>    27.6242     0.0001    31.9961 </r>
       <r>    27.7507     0.0036    31.9966 </r>
       <r>    27.8772     0.0145    31.9984 </r>
       <r>    28.0036     0.0049    31.9990 </r>
       <r>    28.1301     0.0002    31.9990 </r>
       <r>    28.2565     0.0019    31.9993 </r>
       <r>    28.3830     0.0047    31.9999 </r>
       <r>    28.5095     0.0010    32.0000 </r>
       <r>    28.6359     0.0000    32.0000 </r>
       <r>    28.7624     0.0000    32.0000 </r>
       <r>    28.8888     0.0000    32.0000 </r>
       <r>    29.0153     0.0000    32.0000 </r>
       <r>    29.1417     0.0000    32.0000 </r>
       <r>    29.2682     0.0000    32.0000 </r>
       <r>    29.3947     0.0000    32.0000 </r>
       <r>    29.5211     0.0000    32.0000 </r>
       <r>    29.6476     0.0000    32.0000 </r>
       <r>    29.7740     0.0000    32.0000 </r>
       <r>    29.9005     0.0000    32.0000 </r>
       <r>    30.0270     0.0000    32.0000 </r>
      </set>
     </set>
    </array>
   </total>
  </dos>
 </calculation>
 <structure name="finalpos" >
  <crystal>
   <varray name="basis" >
    <v>       0.00000000       2.73432960       2.73432960 </v>
    <v>       2.73432960       0.00000000       2.73432960 </v>
    <v>       2.73432960       2.73432960       0.00000000 </v>
   </varray>
   <i name="volume">     40.88674952 </i>
   <varray name="rec_basis" >
    <v>      -0.18286018       0.18286018       0.18286018 </v>
    <v>       0.18286018      -0.18286018       0.18286018 </v>
    <v>       0.18286018       0.18286018      -0.18286018 </v>
   </varray>
  </crystal>
  <varray name="positions" >
   <v>       0.87500000       0.87500000       0.87500000 </v>
   <v>       0.12500000       0.12500000       0.12500000 </v>
  </varray>
 </structure>
</modeling>
