Si                                      
           1
     0.000000    2.750000    2.750000
     2.750000    0.000000    2.750000
     2.750000    2.750000    0.000000
   Si
   2
Direct configuration=     1
   0.87500000  0.87500000  0.87500000
   0.12500000  0.12500000  0.12500000
Si                                      
           1
     0.000000    2.724797    2.724797
     2.724797    0.000000    2.724797
     2.724797    2.724797    0.000000
   Si
   2
Direct configuration=     2
   0.87500000  0.87500000  0.87500000
   0.12500000  0.12500000  0.12500000
Si                                      
           1
     0.000000    2.734330    2.734330
     2.734330    0.000000    2.734330
     2.734330    2.734330    0.000000
   Si
   2
Direct configuration=     3
   0.87500000  0.87500000  0.87500000
   0.12500000  0.12500000  0.12500000
