[1537883885.863025] [r8n3:28424:0]         sys.c:744  MXM  WARN  Conflicting CPU frequencies detected, using: 2499.99
[1537883885.870021] [r8n3:28424:0]         mxm.c:196  MXM  WARN  The 'ulimit -s' on the system is set to 'unlimited'. This may have negative performance implications. Please set the stack size to the default value (10240) 
[1537883885.872217] [r8n3:28424:0]         mxm.c:196  MXM  WARN  The 'ulimit -s' on the system is set to 'unlimited'. This may have negative performance implications. Please set the stack size to the default value (10240) 
 argument  1 = /storage/home/bikashp/nwchem_run/rabeet/ip13g2/nwrevtpss/Cl+.nw
                                         
                                         


              Northwest Computational Chemistry Package (NWChem) 6.6
              ------------------------------------------------------


                    Environmental Molecular Sciences Laboratory
                       Pacific Northwest National Laboratory
                                Richland, WA 99352

                              Copyright (c) 1994-2015
                       Pacific Northwest National Laboratory
                            Battelle Memorial Institute

             NWChem is an open-source computational chemistry package
                        distributed under the terms of the
                      Educational Community License (ECL) 2.0
             A copy of the license is included with this distribution
                              in the LICENSE.TXT file

                                  ACKNOWLEDGMENT
                                  --------------

            This software and its documentation were developed at the
            EMSL at Pacific Northwest National Laboratory, a multiprogram
            national laboratory, operated for the U.S. Department of Energy
            by Battelle under Contract Number DE-AC05-76RL01830. Support
            for this work was provided by the Department of Energy Office
            of Biological and Environmental Research, Office of Basic
            Energy Sciences, and the Office of Advanced Scientific Computing.


           Job information
           ---------------

    hostname        = r8n3.niserhpc.org
    program         = /home/bikashp/Code/nwchem-6.6_revtpss/bin/LINUX64/nwchem
    date            = Tue Sep 25 19:28:06 2018

    compiled        = Tue_Sep_25_17:05:19_2018
    source          = /home/bikashp/Code/nwchem-6.6_revtpss
    nwchem branch   = 6.6
    nwchem revision = 27746
    ga revision     = 10594
    input           = /storage/home/bikashp/nwchem_run/rabeet/ip13g2/nwrevtpss/Cl+.nw
    prefix          = Cl+.
    data base       = ./Cl+.db
    status          = startup
    nproc           =        1
    time left       =     -1s



           Memory information
           ------------------

    heap     =   13107196 doubles =    100.0 Mbytes
    stack    =   13107201 doubles =    100.0 Mbytes
    global   =   26214400 doubles =    200.0 Mbytes (distinct from heap & stack)
    total    =   52428797 doubles =    400.0 Mbytes
    verify   = yes
    hardfail = no 


           Directory information
           ---------------------

  0 permanent = .
  0 scratch   = .




                                NWChem Input Module
                                -------------------



 Scaling coordinates for geometry "geometry" by  1.889725989
 (inverse scale =  0.529177249)



                             Geometry "geometry" -> ""
                             -------------------------

 Output coordinates in angstroms (scale by  1.889725989 to convert to a.u.)

  No.       Tag          Charge          X              Y              Z
 ---- ---------------- ---------- -------------- -------------- --------------
    1 Cl                  17.0000     0.00000000     0.00000000     0.00000000

      Atomic Mass 
      ----------- 

      Cl                34.968850


 Effective nuclear repulsion energy (a.u.)       0.0000000000

            Nuclear Dipole moment (a.u.) 
            ----------------------------
        X                 Y               Z
 ---------------- ---------------- ----------------
     0.0000000000     0.0000000000     0.0000000000


            XYZ format geometry
            -------------------
     1
 geometry
 Cl                    0.00000000     0.00000000     0.00000000



 Summary of "ao basis" -> "" (cartesian)
 ------------------------------------------------------------------------------
       Tag                 Description            Shells   Functions and Types
 ---------------- ------------------------------  ------  ---------------------
 *                     6-311++G(3df,3pd)              on all atoms 



                                 NWChem DFT Module
                                 -----------------


                      Basis "ao basis" -> "ao basis" (cartesian)
                      -----
  Cl (Chlorine)
  -------------
            Exponent  Coefficients 
       -------------- ---------------------------------------------------------
  1 S  1.05819000E+05  0.000738
  1 S  1.58720000E+04  0.005718
  1 S  3.61965000E+03  0.029495
  1 S  1.03080000E+03  0.117286
  1 S  3.39908000E+02  0.362949
  1 S  1.24538000E+02  0.584149

  2 S  1.24538000E+02  0.134177
  2 S  4.95135000E+01  0.624250
  2 S  2.08056000E+01  0.291756

  3 S  6.58346000E+00  1.000000

  4 S  2.56468000E+00  1.000000

  5 S  5.59763000E-01  1.000000

  6 S  1.83273000E-01  1.000000

  7 P  5.89776000E+02  0.002391
  7 P  1.39849000E+02  0.018504
  7 P  4.51413000E+01  0.081377
  7 P  1.68733000E+01  0.221552
  7 P  6.74110000E+00  0.772569

  8 P  6.74110000E+00 -1.572244
  8 P  2.77152000E+00  0.992389

  9 P  1.02387000E+00  1.000000

 10 P  3.81368000E-01  1.000000

 11 P  1.09437000E-01  1.000000

 12 S  4.83000000E-02  1.000000

 13 P  4.83000000E-02  1.000000

 14 D  3.00000000E+00  1.000000

 15 D  7.50000000E-01  1.000000

 16 D  1.87500000E-01  1.000000

 17 F  7.00000000E-01  1.000000



 Summary of "ao basis" -> "ao basis" (cartesian)
 ------------------------------------------------------------------------------
       Tag                 Description            Shells   Functions and Types
 ---------------- ------------------------------  ------  ---------------------
 Cl                    6-311++G(3df,3pd)            17       53   7s6p3d1f




 Summary of "ao basis" -> "ao basis" (cartesian)
 ------------------------------------------------------------------------------
       Tag                 Description            Shells   Functions and Types
 ---------------- ------------------------------  ------  ---------------------
 Cl                    6-311++G(3df,3pd)            17       53   7s6p3d1f


  Caching 1-el integrals 

            General Information
            -------------------
          SCF calculation type: DFT
          Wavefunction type:  spin polarized.
          No. of atoms     :     1
          No. of electrons :    16
           Alpha electrons :     9
            Beta electrons :     7
          Charge           :     1
          Spin multiplicity:     3
          Use of symmetry is: off; symmetry adaption is: off
          Maximum number of iterations: ***
          AO basis - number of functions:    53
                     number of shells:    17
          Convergence on energy requested: 1.00D-06
          Convergence on density requested: 1.00D-05
          Convergence on gradient requested: 5.00D-04

              XC Information
              --------------
                  TPSS metaGGA Exchange Functional  1.000          
             TPSS03 metaGGA Correlation Functional  1.000          

             Grid Information
             ----------------
          Grid used for XC integration:  medium    
          Radial quadrature: Mura-Knowles        
          Angular quadrature: Lebedev. 
          Tag              B.-S. Rad. Rad. Pts. Rad. Cut. Ang. Pts.
          ---              ---------- --------- --------- ---------
          Cl                  1.00       88           7.0       590
          Grid pruning is: on 
          Number of quadrature shells:    88
          Spatial weights used:  Erf1

          Convergence Information
          -----------------------
          Convergence aids based upon iterative change in 
          total energy or number of iterations. 
          Levelshifting, if invoked, occurs when the 
          HOMO/LUMO gap drops below (HL_TOL): 1.00D-02
          DIIS, if invoked, will attempt to extrapolate 
          using up to (NFOCK): 10 stored Fock matrices.

                    Damping( 0%)  Levelshifting(0.5)       DIIS
                  --------------- ------------------- ---------------
          dE  on:    start            ASAP                start   
          dE off:    2 iters        *** iters           *** iters 


      Screening Tolerance Information
      -------------------------------
          Density screening/tol_rho: 1.00D-10
          AO Gaussian exp screening on grid/accAOfunc:  14
          CD Gaussian exp screening on grid/accCDfunc:  20
          XC Gaussian exp screening on grid/accXCfunc:  20
          Schwarz screening/accCoul: 1.00D-08


      Superposition of Atomic Density Guess
      -------------------------------------

 Sum of atomic energies:        -459.47804774

 Renormalizing density from      17.00 to     16

      Non-variational initial energy
      ------------------------------

 Total energy =    -441.977465
 1-e energy   =    -597.513706
 2-e energy   =     155.536240
 HOMO         =      -1.025747
 LUMO         =      -1.025747

   Time after variat. SCF:      0.3
   Time prior to 1st pass:      0.3

 Integral file          = ./Cl+.aoints.0
 Record size in doubles =    65536    No. of integs per rec  =    43688
 Max. records in memory =       34    Max. records in file   = ********
 No. of bits per label  =        8    No. of bits per value  =       64


 #quartets = 1.178D+04 #integrals = 1.651D+05 #direct =  0.0% #cached =100.0%


 Grid_pts file          = ./Cl+.gridpts.0
 Record size in doubles =  12289        No. of grid_pts per rec  =   3070
 Max. records in memory =     20        Max. recs in file   = 995335766


           Memory utilization after 1st SCF pass: 
           Heap Space remaining (MW):       10.63            10630220
          Stack Space remaining (MW):       13.11            13106660

   convergence    iter        energy       DeltaE   RMS-Dens  Diis-err    time
 ---------------- ----- ----------------- --------- --------- ---------  ------
 d= 0,ls=0.0,diis     1   -459.3981825103 -4.59D+02  1.45D-02  1.30D+00     1.4
                                                     1.37D-02  1.33D+00
 d= 0,ls=0.0,diis     2   -459.5009172439 -1.03D-01  5.13D-03  1.88D-01     2.3
                                                     4.30D-03  1.74D-01
 d= 0,ls=0.0,diis     3   -459.5283957496 -2.75D-02  6.76D-04  1.47D-03     3.2
                                                     5.97D-04  1.06D-03
 d= 0,ls=0.0,diis     4   -459.5287792712 -3.84D-04  8.32D-05  2.59D-05     4.1
                                                     5.36D-05  1.75D-05
 d= 0,ls=0.0,diis     5   -459.5287975117 -1.82D-05  6.03D-06  4.49D-08     4.9
                                                     6.30D-06  4.67D-08
 d= 0,ls=0.0,diis     6   -459.5287973889  1.23D-07  4.33D-07  3.71D-11     5.8
                                                     3.24D-07  1.48D-10


         Total DFT energy =     -459.528797388933
      One electron energy =     -627.207395045124
           Coulomb energy =      195.383821229189
          Exchange energy =      -27.084313517855
       Correlation energy =       -0.620910055143
 Nuclear repulsion energy =        0.000000000000

 Numeric. integr. density =       16.000000001158

     Total iterative time =      5.5s



                    DFT Final Alpha Molecular Orbital Analysis
                    ------------------------------------------

 Vector    1  Occ=1.000000D+00  E=-1.015831D+02
              MO Center=  3.4D-17,  1.7D-17, -5.1D-18, r^2= 3.1D-03
   Bfn.  Coefficient  Atom+Function         Bfn.  Coefficient  Atom+Function  
  ----- ------------  ---------------      ----- ------------  ---------------
     2      0.653352  1 Cl s                  1      0.412396  1 Cl s          

 Vector    2  Occ=1.000000D+00  E=-9.779918D+00
              MO Center=  3.8D-15,  3.1D-16,  1.5D-15, r^2= 6.6D-02
   Bfn.  Coefficient  Atom+Function         Bfn.  Coefficient  Atom+Function  
  ----- ------------  ---------------      ----- ------------  ---------------
     4      0.609945  1 Cl s                  3      0.488640  1 Cl s          
     2     -0.327381  1 Cl s          

 Vector    3  Occ=1.000000D+00  E=-7.546258D+00
              MO Center= -3.5D-15, -2.7D-16, -1.1D-15, r^2= 5.8D-02
   Bfn.  Coefficient  Atom+Function         Bfn.  Coefficient  Atom+Function  
  ----- ------------  ---------------      ----- ------------  ---------------
     7      1.170457  1 Cl px                 9      0.367466  1 Cl pz         
    10      0.314320  1 Cl px         

 Vector    4  Occ=1.000000D+00  E=-7.546258D+00
              MO Center=  4.8D-16,  1.2D-16, -6.7D-18, r^2= 5.8D-02
   Bfn.  Coefficient  Atom+Function         Bfn.  Coefficient  Atom+Function  
  ----- ------------  ---------------      ----- ------------  ---------------
     9      1.076084  1 Cl pz                 8      0.465028  1 Cl py         
     7     -0.371377  1 Cl px                12      0.288976  1 Cl pz         

 Vector    5  Occ=1.000000D+00  E=-7.520172D+00
              MO Center=  3.0D-16, -3.0D-17,  1.9D-16, r^2= 5.8D-02
   Bfn.  Coefficient  Atom+Function         Bfn.  Coefficient  Atom+Function  
  ----- ------------  ---------------      ----- ------------  ---------------
     8      1.135972  1 Cl py                 9     -0.468430  1 Cl pz         
    11      0.304916  1 Cl py         

 Vector    6  Occ=1.000000D+00  E=-1.231527D+00
              MO Center=  7.3D-14,  1.6D-14,  4.0D-14, r^2= 7.2D-01
   Bfn.  Coefficient  Atom+Function         Bfn.  Coefficient  Atom+Function  
  ----- ------------  ---------------      ----- ------------  ---------------
     5      0.629433  1 Cl s                  6      0.617717  1 Cl s          
     4     -0.439766  1 Cl s                  3     -0.223830  1 Cl s          

 Vector    7  Occ=1.000000D+00  E=-7.746610D-01
              MO Center= -4.7D-14, -1.6D-16, -8.2D-15, r^2= 9.3D-01
   Bfn.  Coefficient  Atom+Function         Bfn.  Coefficient  Atom+Function  
  ----- ------------  ---------------      ----- ------------  ---------------
    16      0.678038  1 Cl px                 7     -0.376452  1 Cl px         
    13      0.277628  1 Cl px                18      0.215216  1 Cl pz         
    19      0.200659  1 Cl px         

 Vector    8  Occ=1.000000D+00  E=-7.746610D-01
              MO Center=  3.5D-14,  1.3D-15,  3.4D-15, r^2= 9.3D-01
   Bfn.  Coefficient  Atom+Function         Bfn.  Coefficient  Atom+Function  
  ----- ------------  ---------------      ----- ------------  ---------------
    18      0.623316  1 Cl pz                 9     -0.346071  1 Cl pz         
    17      0.269511  1 Cl py                15      0.255223  1 Cl pz         
    16     -0.217669  1 Cl px                21      0.184466  1 Cl pz         

 Vector    9  Occ=1.000000D+00  E=-7.121710D-01
              MO Center=  3.3D-14,  7.2D-15,  1.9D-14, r^2= 9.7D-01
   Bfn.  Coefficient  Atom+Function         Bfn.  Coefficient  Atom+Function  
  ----- ------------  ---------------      ----- ------------  ---------------
    17      0.676958  1 Cl py                 8     -0.358956  1 Cl py         
    18     -0.279151  1 Cl pz                14      0.256499  1 Cl py         
    20      0.214849  1 Cl py         

 Vector   10  Occ=0.000000D+00  E=-2.096586D-01
              MO Center=  3.8D-13,  7.1D-14,  2.2D-13, r^2= 6.0D+00
   Bfn.  Coefficient  Atom+Function         Bfn.  Coefficient  Atom+Function  
  ----- ------------  ---------------      ----- ------------  ---------------
    22      1.339292  1 Cl s                  6     -0.432807  1 Cl s          
     5     -0.338177  1 Cl s                  4      0.161447  1 Cl s          

 Vector   11  Occ=0.000000D+00  E=-1.475753D-01
              MO Center=  1.6D-14, -8.0D-15, -1.9D-14, r^2= 1.8D+00
   Bfn.  Coefficient  Atom+Function         Bfn.  Coefficient  Atom+Function  
  ----- ------------  ---------------      ----- ------------  ---------------
    38      0.613173  1 Cl dxx               43     -0.518443  1 Cl dzz        
    42     -0.448407  1 Cl dyz               40      0.363435  1 Cl dxz        
    32      0.310624  1 Cl dxx               37     -0.262634  1 Cl dzz        
    36     -0.227156  1 Cl dyz               34      0.184110  1 Cl dxz        

 Vector   12  Occ=0.000000D+00  E=-1.475753D-01
              MO Center= -2.3D-14,  1.6D-14,  3.3D-14, r^2= 1.8D+00
   Bfn.  Coefficient  Atom+Function         Bfn.  Coefficient  Atom+Function  
  ----- ------------  ---------------      ----- ------------  ---------------
    40      1.127939  1 Cl dxz               34      0.571396  1 Cl dxz        
    39      0.486091  1 Cl dxy               33      0.246246  1 Cl dxy        
    38     -0.182902  1 Cl dxx               43      0.179627  1 Cl dzz        
    28      0.153262  1 Cl dxz        

 Vector   13  Occ=0.000000D+00  E=-1.385255D-01
              MO Center= -4.4D-13, -5.6D-14, -2.0D-13, r^2= 8.2D+00
   Bfn.  Coefficient  Atom+Function         Bfn.  Coefficient  Atom+Function  
  ----- ------------  ---------------      ----- ------------  ---------------
    23      1.086224  1 Cl px                25      0.434525  1 Cl pz         
    19     -0.199981  1 Cl px         

 Vector   14  Occ=0.000000D+00  E=-1.385160D-01
              MO Center=  4.3D-14, -1.9D-14, -5.0D-14, r^2= 8.2D+00
   Bfn.  Coefficient  Atom+Function         Bfn.  Coefficient  Atom+Function  
  ----- ------------  ---------------      ----- ------------  ---------------
    25      0.996583  1 Cl pz                23     -0.445610  1 Cl px         
    24      0.436454  1 Cl py                21     -0.183427  1 Cl pz         

 Vector   15  Occ=0.000000D+00  E=-1.306341D-01
              MO Center=  9.5D-15, -2.0D-14, -7.1D-15, r^2= 8.5D+00
   Bfn.  Coefficient  Atom+Function         Bfn.  Coefficient  Atom+Function  
  ----- ------------  ---------------      ----- ------------  ---------------
    24      1.130886  1 Cl py                25     -0.466274  1 Cl pz         
    20     -0.271061  1 Cl py         

 Vector   16  Occ=0.000000D+00  E=-1.171873D-01
              MO Center= -2.2D-14,  7.9D-16, -1.8D-16, r^2= 1.9D+00
   Bfn.  Coefficient  Atom+Function         Bfn.  Coefficient  Atom+Function  
  ----- ------------  ---------------      ----- ------------  ---------------
    39      1.204208  1 Cl dxy               33      0.557191  1 Cl dxy        
    40     -0.486552  1 Cl dxz               34     -0.225129  1 Cl dxz        
    42      0.172561  1 Cl dyz               27      0.155424  1 Cl dxy        

 Vector   17  Occ=0.000000D+00  E=-1.171873D-01
              MO Center=  5.1D-15,  6.1D-16,  1.2D-14, r^2= 1.9D+00
   Bfn.  Coefficient  Atom+Function         Bfn.  Coefficient  Atom+Function  
  ----- ------------  ---------------      ----- ------------  ---------------
    42      0.918637  1 Cl dyz               41      0.467559  1 Cl dyy        
    43     -0.458313  1 Cl dzz               36      0.425056  1 Cl dyz        
    35      0.216341  1 Cl dyy               37     -0.212063  1 Cl dzz        

 Vector   18  Occ=0.000000D+00  E=-1.050158D-01
              MO Center= -1.9D-15,  5.8D-15, -7.3D-15, r^2= 1.9D+00
   Bfn.  Coefficient  Atom+Function         Bfn.  Coefficient  Atom+Function  
  ----- ------------  ---------------      ----- ------------  ---------------
    42      0.809668  1 Cl dyz               41     -0.587151  1 Cl dyy        
    38      0.391368  1 Cl dxx               36      0.361282  1 Cl dyz        
    35     -0.261245  1 Cl dyy               43      0.227659  1 Cl dzz        
    32      0.175381  1 Cl dxx        

 Vector   19  Occ=0.000000D+00  E= 1.224176D-01
              MO Center=  2.3D-12,  4.4D-13,  1.4D-12, r^2= 6.6D+00
   Bfn.  Coefficient  Atom+Function         Bfn.  Coefficient  Atom+Function  
  ----- ------------  ---------------      ----- ------------  ---------------
    22      2.059244  1 Cl s                  6      1.499017  1 Cl s          
    38     -1.428058  1 Cl dxx               43     -1.424598  1 Cl dzz        
    41     -1.407375  1 Cl dyy               35     -0.349992  1 Cl dyy        
    37     -0.319413  1 Cl dzz               32     -0.313271  1 Cl dxx        
     4     -0.300411  1 Cl s                  3     -0.173000  1 Cl s          

 Vector   20  Occ=0.000000D+00  E= 1.355822D-01
              MO Center= -2.4D-12, -3.1D-13, -1.1D-12, r^2= 7.5D+00
   Bfn.  Coefficient  Atom+Function         Bfn.  Coefficient  Atom+Function  
  ----- ------------  ---------------      ----- ------------  ---------------
    19      2.334758  1 Cl px                16     -1.867857  1 Cl px         
    23     -1.490285  1 Cl px                21      1.049612  1 Cl pz         
    18     -0.839714  1 Cl pz                25     -0.669971  1 Cl pz         
    47      0.489134  1 Cl fxyy              44      0.478175  1 Cl fxxx       
    49      0.479751  1 Cl fxzz              20      0.298894  1 Cl py         

 Vector   21  Occ=0.000000D+00  E= 1.355881D-01
              MO Center=  1.8D-13, -1.4D-13, -3.1D-13, r^2= 7.5D+00
   Bfn.  Coefficient  Atom+Function         Bfn.  Coefficient  Atom+Function  
  ----- ------------  ---------------      ----- ------------  ---------------
    21      2.139614  1 Cl pz                18     -1.711723  1 Cl pz         
    25     -1.365748  1 Cl pz                19     -1.082776  1 Cl px         
    20      0.944338  1 Cl py                16      0.866236  1 Cl px         
    17     -0.755482  1 Cl py                23      0.691152  1 Cl px         
    24     -0.602787  1 Cl py                51      0.444488  1 Cl fyyz       

 Vector   22  Occ=0.000000D+00  E= 1.515433D-01
              MO Center=  2.0D-14,  3.4D-14,  1.1D-15, r^2= 7.3D+00
   Bfn.  Coefficient  Atom+Function         Bfn.  Coefficient  Atom+Function  
  ----- ------------  ---------------      ----- ------------  ---------------
    20      2.394251  1 Cl py                17     -2.009547  1 Cl py         
    24     -1.492618  1 Cl py                21     -0.987238  1 Cl pz         
    18      0.828613  1 Cl pz                25      0.615459  1 Cl pz         
    50      0.529402  1 Cl fyyy              52      0.523404  1 Cl fyzz       
    45      0.517279  1 Cl fxxy              51     -0.228391  1 Cl fyyz       

 Vector   23  Occ=0.000000D+00  E= 5.973437D-01
              MO Center= -2.4D-14, -4.8D-15, -1.5D-14, r^2= 1.6D+00
   Bfn.  Coefficient  Atom+Function         Bfn.  Coefficient  Atom+Function  
  ----- ------------  ---------------      ----- ------------  ---------------
    32      0.757335  1 Cl dxx               38     -0.679888  1 Cl dxx        
    37     -0.639794  1 Cl dzz               43      0.574366  1 Cl dzz        
    36     -0.554906  1 Cl dyz               42      0.498159  1 Cl dyz        
    34      0.475365  1 Cl dxz               40     -0.426752  1 Cl dxz        
    26      0.151629  1 Cl dxx        


                     DFT Final Beta Molecular Orbital Analysis
                     -----------------------------------------

 Vector    1  Occ=1.000000D+00  E=-1.015710D+02
              MO Center= -3.4D-18,  8.9D-18,  3.6D-18, r^2= 3.1D-03
   Bfn.  Coefficient  Atom+Function         Bfn.  Coefficient  Atom+Function  
  ----- ------------  ---------------      ----- ------------  ---------------
     2      0.653394  1 Cl s                  1      0.412424  1 Cl s          

 Vector    2  Occ=1.000000D+00  E=-9.768721D+00
              MO Center=  3.4D-15,  9.1D-16,  2.0D-15, r^2= 6.6D-02
   Bfn.  Coefficient  Atom+Function         Bfn.  Coefficient  Atom+Function  
  ----- ------------  ---------------      ----- ------------  ---------------
     4      0.619202  1 Cl s                  3      0.484434  1 Cl s          
     2     -0.327038  1 Cl s          

 Vector    3  Occ=1.000000D+00  E=-7.523610D+00
              MO Center= -3.3D-15, -3.8D-16, -1.2D-15, r^2= 5.8D-02
   Bfn.  Coefficient  Atom+Function         Bfn.  Coefficient  Atom+Function  
  ----- ------------  ---------------      ----- ------------  ---------------
     7      1.128943  1 Cl px                 9      0.472323  1 Cl pz         
    10      0.303190  1 Cl px         

 Vector    4  Occ=1.000000D+00  E=-7.523610D+00
              MO Center=  4.4D-16, -1.8D-16, -4.9D-16, r^2= 5.8D-02
   Bfn.  Coefficient  Atom+Function         Bfn.  Coefficient  Atom+Function  
  ----- ------------  ---------------      ----- ------------  ---------------
     9      1.035343  1 Cl pz                 7     -0.485546  1 Cl px         
     8      0.454774  1 Cl py                12      0.278052  1 Cl pz         

 Vector    5  Occ=1.000000D+00  E=-7.511347D+00
              MO Center=  3.4D-16,  1.1D-16,  2.2D-16, r^2= 5.8D-02
   Bfn.  Coefficient  Atom+Function         Bfn.  Coefficient  Atom+Function  
  ----- ------------  ---------------      ----- ------------  ---------------
     8      1.137036  1 Cl py                 9     -0.468869  1 Cl pz         
    11      0.305353  1 Cl py         

 Vector    6  Occ=1.000000D+00  E=-1.126822D+00
              MO Center=  4.6D-14,  1.4D-14,  2.7D-14, r^2= 7.4D-01
   Bfn.  Coefficient  Atom+Function         Bfn.  Coefficient  Atom+Function  
  ----- ------------  ---------------      ----- ------------  ---------------
     6      0.621511  1 Cl s                  5      0.586421  1 Cl s          
     4     -0.436829  1 Cl s                  3     -0.216947  1 Cl s          

 Vector    7  Occ=1.000000D+00  E=-6.862904D-01
              MO Center=  2.0D-14, -1.2D-15,  1.6D-14, r^2= 9.9D-01
   Bfn.  Coefficient  Atom+Function         Bfn.  Coefficient  Atom+Function  
  ----- ------------  ---------------      ----- ------------  ---------------
    17      0.684622  1 Cl py                 8     -0.353924  1 Cl py         
    18     -0.282311  1 Cl pz                14      0.247226  1 Cl py         
    20      0.222951  1 Cl py         

 Vector    8  Occ=0.000000D+00  E=-6.433884D-01
              MO Center=  2.7D-14, -3.8D-16, -3.4D-15, r^2= 1.0D+00
   Bfn.  Coefficient  Atom+Function         Bfn.  Coefficient  Atom+Function  
  ----- ------------  ---------------      ----- ------------  ---------------
    18      0.670487  1 Cl pz                 9     -0.342931  1 Cl pz         
    17      0.283657  1 Cl py                15      0.237785  1 Cl pz         
    21      0.238843  1 Cl pz         

 Vector    9  Occ=0.000000D+00  E=-6.433883D-01
              MO Center= -1.8D-14,  8.1D-15,  7.6D-15, r^2= 1.0D+00
   Bfn.  Coefficient  Atom+Function         Bfn.  Coefficient  Atom+Function  
  ----- ------------  ---------------      ----- ------------  ---------------
    16      0.726971  1 Cl px                 7     -0.371820  1 Cl px         
    13      0.257816  1 Cl px                19      0.258964  1 Cl px         

 Vector   10  Occ=0.000000D+00  E=-1.891505D-01
              MO Center=  2.6D-13,  9.3D-14,  1.5D-13, r^2= 6.2D+00
   Bfn.  Coefficient  Atom+Function         Bfn.  Coefficient  Atom+Function  
  ----- ------------  ---------------      ----- ------------  ---------------
    22      1.395463  1 Cl s                  6     -0.431804  1 Cl s          
     5     -0.293879  1 Cl s                  4      0.151487  1 Cl s          

 Vector   11  Occ=0.000000D+00  E=-1.249378D-01
              MO Center=  8.9D-15, -3.6D-14,  2.4D-14, r^2= 8.6D+00
   Bfn.  Coefficient  Atom+Function         Bfn.  Coefficient  Atom+Function  
  ----- ------------  ---------------      ----- ------------  ---------------
    24      1.152550  1 Cl py                25     -0.475405  1 Cl pz         
    20     -0.305561  1 Cl py         

 Vector   12  Occ=0.000000D+00  E=-1.162854D-01
              MO Center= -1.6D-14, -7.0D-14, -2.0D-13, r^2= 8.6D+00
   Bfn.  Coefficient  Atom+Function         Bfn.  Coefficient  Atom+Function  
  ----- ------------  ---------------      ----- ------------  ---------------
    25      1.161248  1 Cl pz                24      0.470570  1 Cl py         
    21     -0.328152  1 Cl pz         

 Vector   13  Occ=0.000000D+00  E=-1.162817D-01
              MO Center= -2.4D-13,  3.1D-14,  2.6D-14, r^2= 8.6D+00
   Bfn.  Coefficient  Atom+Function         Bfn.  Coefficient  Atom+Function  
  ----- ------------  ---------------      ----- ------------  ---------------
    23      1.251205  1 Cl px                19     -0.353585  1 Cl px         

 Vector   14  Occ=0.000000D+00  E=-7.067611D-02
              MO Center=  5.1D-15, -1.4D-14, -3.9D-15, r^2= 2.0D+00
   Bfn.  Coefficient  Atom+Function         Bfn.  Coefficient  Atom+Function  
  ----- ------------  ---------------      ----- ------------  ---------------
    42      0.972369  1 Cl dyz               41      0.487471  1 Cl dyy        
    43     -0.483854  1 Cl dzz               36      0.377389  1 Cl dyz        
    35      0.189194  1 Cl dyy               37     -0.187790  1 Cl dzz        

 Vector   15  Occ=0.000000D+00  E=-7.067609D-02
              MO Center= -1.5D-14, -3.3D-15,  4.4D-15, r^2= 2.0D+00
   Bfn.  Coefficient  Atom+Function         Bfn.  Coefficient  Atom+Function  
  ----- ------------  ---------------      ----- ------------  ---------------
    39      1.266642  1 Cl dxy               40     -0.518395  1 Cl dxz        
    33      0.491600  1 Cl dxy               34     -0.201196  1 Cl dxz        
    27      0.151144  1 Cl dxy        

 Vector   16  Occ=0.000000D+00  E=-6.831708D-02
              MO Center= -1.3D-15,  7.5D-16, -6.0D-16, r^2= 2.0D+00
   Bfn.  Coefficient  Atom+Function         Bfn.  Coefficient  Atom+Function  
  ----- ------------  ---------------      ----- ------------  ---------------
    42      0.837805  1 Cl dyz               41     -0.598854  1 Cl dyy        
    38      0.413654  1 Cl dxx               36      0.326293  1 Cl dyz        
    43      0.244277  1 Cl dzz               35     -0.229563  1 Cl dyy        
    32      0.164770  1 Cl dxx        

 Vector   17  Occ=0.000000D+00  E=-5.790809D-02
              MO Center= -1.3D-14, -2.0D-15, -9.5D-15, r^2= 2.0D+00
   Bfn.  Coefficient  Atom+Function         Bfn.  Coefficient  Atom+Function  
  ----- ------------  ---------------      ----- ------------  ---------------
    40      1.169123  1 Cl dxz               39      0.513348  1 Cl dxy        
    34      0.436467  1 Cl dxz               38     -0.272501  1 Cl dxx        
    43      0.257287  1 Cl dzz               33      0.191648  1 Cl dxy        

 Vector   18  Occ=0.000000D+00  E=-5.790792D-02
              MO Center= -1.5D-14, -9.6D-16, -5.9D-15, r^2= 2.0D+00
   Bfn.  Coefficient  Atom+Function         Bfn.  Coefficient  Atom+Function  
  ----- ------------  ---------------      ----- ------------  ---------------
    38      0.637383  1 Cl dxx               43     -0.535810  1 Cl dzz        
    40      0.530309  1 Cl dxz               42     -0.472292  1 Cl dyz        
    32      0.237953  1 Cl dxx               37     -0.200034  1 Cl dzz        
    34      0.197980  1 Cl dxz               36     -0.176320  1 Cl dyz        

 Vector   19  Occ=0.000000D+00  E= 1.460921D-01
              MO Center=  1.3D-12,  4.8D-13,  7.8D-13, r^2= 6.5D+00
   Bfn.  Coefficient  Atom+Function         Bfn.  Coefficient  Atom+Function  
  ----- ------------  ---------------      ----- ------------  ---------------
    22      2.041912  1 Cl s                  6      1.667315  1 Cl s          
    41     -1.471731  1 Cl dyy               38     -1.459340  1 Cl dxx        
    43     -1.461416  1 Cl dzz               35     -0.333554  1 Cl dyy        
    32     -0.328650  1 Cl dxx               37     -0.329473  1 Cl dzz        
     4     -0.296334  1 Cl s                  3     -0.173514  1 Cl s          

 Vector   20  Occ=0.000000D+00  E= 1.609824D-01
              MO Center= -2.6D-15, -1.9D-13,  8.7D-14, r^2= 7.2D+00
   Bfn.  Coefficient  Atom+Function         Bfn.  Coefficient  Atom+Function  
  ----- ------------  ---------------      ----- ------------  ---------------
    20      2.407178  1 Cl py                17     -2.072968  1 Cl py         
    24     -1.481866  1 Cl py                21     -0.993185  1 Cl pz         
    18      0.855299  1 Cl pz                25      0.611403  1 Cl pz         
    45      0.543837  1 Cl fxxy              50      0.542332  1 Cl fyyy       
    52      0.543076  1 Cl fyzz              46     -0.224385  1 Cl fxxz       

 Vector   21  Occ=0.000000D+00  E= 1.647084D-01
              MO Center= -1.4D-12, -1.1D-13, -4.8D-13, r^2= 7.1D+00
   Bfn.  Coefficient  Atom+Function         Bfn.  Coefficient  Atom+Function  
  ----- ------------  ---------------      ----- ------------  ---------------
    19      2.453249  1 Cl px                16     -2.124943  1 Cl px         
    23     -1.505427  1 Cl px                21      0.835724  1 Cl pz         
    18     -0.723885  1 Cl pz                44      0.556545  1 Cl fxxx       
    47      0.553814  1 Cl fxyy              49      0.556136  1 Cl fxzz       
    25     -0.512836  1 Cl pz                 7      0.217079  1 Cl px         

 Vector   22  Occ=0.000000D+00  E= 1.647115D-01
              MO Center=  1.5D-13, -1.6D-13, -3.6D-13, r^2= 7.1D+00
   Bfn.  Coefficient  Atom+Function         Bfn.  Coefficient  Atom+Function  
  ----- ------------  ---------------      ----- ------------  ---------------
    21      2.253840  1 Cl pz                18     -1.952209  1 Cl pz         
    25     -1.383068  1 Cl pz                20      0.978511  1 Cl py         
    17     -0.847553  1 Cl py                19     -0.849352  1 Cl px         
    16      0.735684  1 Cl px                24     -0.600466  1 Cl py         
    23      0.521206  1 Cl px                46      0.511259  1 Cl fxxz       

 Vector   23  Occ=0.000000D+00  E= 6.919182D-01
              MO Center=  4.5D-15, -3.4D-15, -5.4D-15, r^2= 1.5D+00
   Bfn.  Coefficient  Atom+Function         Bfn.  Coefficient  Atom+Function  
  ----- ------------  ---------------      ----- ------------  ---------------
    36      1.089752  1 Cl dyz               42     -0.897924  1 Cl dyz        
    35      0.570291  1 Cl dyy               37     -0.546342  1 Cl dzz        
    41     -0.469903  1 Cl dyy               43      0.450170  1 Cl dzz        
    33     -0.384974  1 Cl dxy               39      0.317208  1 Cl dxy        
    34      0.248203  1 Cl dxz               30      0.226921  1 Cl dyz        


   alpha - beta orbital overlaps 
   ----------------------------- 


   alpha      1      2      3      4      5      6      7      8      9     10
    beta      1      2      3      4      5      6      9      8      7     10
 overlap   1.000  1.000  0.995  0.995  1.000  0.998  0.989  0.989  1.000  0.999


   alpha     11     12     13     14     15     16     17     18     19     20
    beta     18     17     13     12     11     15     14     16     19     21
 overlap   0.991  0.991  0.873  0.873  1.000  0.996  0.996  0.998  0.999  0.993


   alpha     21     22     23     24     25     26     27     28     29     30
    beta     22     20     26     25     24     23     27     28     30     29
 overlap   0.993  1.000  0.989  0.989  0.986  0.986  0.998  1.000  0.944  0.944


   alpha     31     32     33     34     35     36     37     38     39     40
    beta     31     33     32     35     34     36     37     38     40     39
 overlap   1.000  0.875  0.875  0.851  0.851  0.994  0.994  1.000  0.982  0.982


   alpha     41     42     43     44     45     46     47     48     49     50
    beta     41     42     44     43     46     45     47     48     49     51
 overlap   1.000  1.000  1.000  1.000  0.914  0.914  1.000  1.000  1.000  0.970


   alpha     51     52     53
    beta     50     52     53
 overlap   0.970  1.000  1.000

     --------------------------
     Expectation value of S2:  
     --------------------------
      <S2> =      2.0045 (Exact =     2.0000)


 Parallel integral file used       4 records with       0 large values


 Task  times  cpu:        5.7s     wall:        6.2s


                                NWChem Input Module
                                -------------------


 Summary of allocated global arrays
-----------------------------------
  No active global arrays



                         GA Statistics for process    0
                         ------------------------------

       create   destroy   get      put      acc     scatter   gather  read&inc
calls:  197      197     2646     2522      511        0        0      176     
number of processes/call 1.00e+00 1.00e+00 1.00e+00 0.00e+00 0.00e+00
bytes total:             2.16e+07 4.83e+06 1.15e+07 0.00e+00 0.00e+00 1.41e+03
bytes remote:            0.00e+00 0.00e+00 0.00e+00 0.00e+00 0.00e+00 0.00e+00
Max memory consumed for GA by this process: 1460680 bytes

MA_summarize_allocated_blocks: starting scan ...
MA_summarize_allocated_blocks: scan completed: 0 heap blocks, 0 stack blocks
MA usage statistics:

	allocation statistics:
					      heap	     stack
					      ----	     -----
	current number of blocks	         0	         0
	maximum number of blocks	        23	        51
	current total bytes		         0	         0
	maximum total bytes		  19815456	  22513064
	maximum total K-bytes		     19816	     22514
	maximum total M-bytes		        20	        23


                                     CITATION
                                     --------
                Please cite the following reference when publishing
                           results obtained with NWChem:

                 M. Valiev, E.J. Bylaska, N. Govind, K. Kowalski,
              T.P. Straatsma, H.J.J. van Dam, D. Wang, J. Nieplocha,
                        E. Apra, T.L. Windus, W.A. de Jong
                 "NWChem: a comprehensive and scalable open-source
                  solution for large scale molecular simulations"
                      Comput. Phys. Commun. 181, 1477 (2010)
                           doi:10.1016/j.cpc.2010.04.018

                                      AUTHORS
                                      -------
          E. Apra, E. J. Bylaska, W. A. de Jong, N. Govind, K. Kowalski,
       T. P. Straatsma, M. Valiev, H. J. J. van Dam, D. Wang, T. L. Windus,
        J. Hammond, J. Autschbach, K. Bhaskaran-Nair, J. Brabec, K. Lopata,
       S. A. Fischer, S. Krishnamoorthy, W. Ma, M. Klemm, O. Villa, Y. Chen,
    V. Anisimov, F. Aquino, S. Hirata, M. T. Hackler, T. Risthaus, M. Malagoli,
       A. Marenich, A. Otero-de-la-Roza, J. Mullin, P. Nichols, R. Peverati,
     J. Pittner, Y. Zhao, P.-D. Fan, A. Fonari, M. Williamson, R. J. Harrison,
       J. R. Rehr, M. Dupuis, D. Silverstein, D. M. A. Smith, J. Nieplocha,
        V. Tipparaju, M. Krishnan, B. E. Van Kuiken, A. Vazquez-Mayagoitia,
        L. Jensen, M. Swart, Q. Wu, T. Van Voorhis, A. A. Auer, M. Nooijen,
      L. D. Crosby, E. Brown, G. Cisneros, G. I. Fann, H. Fruchtl, J. Garza,
        K. Hirao, R. A. Kendall, J. A. Nichols, K. Tsemekhman, K. Wolinski,
     J. Anchell, D. E. Bernholdt, P. Borowski, T. Clark, D. Clerc, H. Dachsel,
   M. J. O. Deegan, K. Dyall, D. Elwood, E. Glendening, M. Gutowski, A. C. Hess,
         J. Jaffe, B. G. Johnson, J. Ju, R. Kobayashi, R. Kutteh, Z. Lin,
   R. Littlefield, X. Long, B. Meng, T. Nakajima, S. Niu, L. Pollack, M. Rosing,
   K. Glaesemann, G. Sandrone, M. Stave, H. Taylor, G. Thomas, J. H. van Lenthe,
                               A. T. Wong, Z. Zhang.

 Total times  cpu:        5.8s     wall:        6.4s
