[1537883913.419966] [r8n3:28466:0]         sys.c:744  MXM  WARN  Conflicting CPU frequencies detected, using: 2499.99
[1537883913.426476] [r8n3:28466:0]         mxm.c:196  MXM  WARN  The 'ulimit -s' on the system is set to 'unlimited'. This may have negative performance implications. Please set the stack size to the default value (10240) 
[1537883913.428702] [r8n3:28466:0]         mxm.c:196  MXM  WARN  The 'ulimit -s' on the system is set to 'unlimited'. This may have negative performance implications. Please set the stack size to the default value (10240) 
 argument  1 = /storage/home/bikashp/nwchem_run/rabeet/ip13g2/nwrevtpss/Cl2+.nw
                                         
                                         


              Northwest Computational Chemistry Package (NWChem) 6.6
              ------------------------------------------------------


                    Environmental Molecular Sciences Laboratory
                       Pacific Northwest National Laboratory
                                Richland, WA 99352

                              Copyright (c) 1994-2015
                       Pacific Northwest National Laboratory
                            Battelle Memorial Institute

             NWChem is an open-source computational chemistry package
                        distributed under the terms of the
                      Educational Community License (ECL) 2.0
             A copy of the license is included with this distribution
                              in the LICENSE.TXT file

                                  ACKNOWLEDGMENT
                                  --------------

            This software and its documentation were developed at the
            EMSL at Pacific Northwest National Laboratory, a multiprogram
            national laboratory, operated for the U.S. Department of Energy
            by Battelle under Contract Number DE-AC05-76RL01830. Support
            for this work was provided by the Department of Energy Office
            of Biological and Environmental Research, Office of Basic
            Energy Sciences, and the Office of Advanced Scientific Computing.


           Job information
           ---------------

    hostname        = r8n3.niserhpc.org
    program         = /home/bikashp/Code/nwchem-6.6_revtpss/bin/LINUX64/nwchem
    date            = Tue Sep 25 19:28:33 2018

    compiled        = Tue_Sep_25_17:05:19_2018
    source          = /home/bikashp/Code/nwchem-6.6_revtpss
    nwchem branch   = 6.6
    nwchem revision = 27746
    ga revision     = 10594
    input           = /storage/home/bikashp/nwchem_run/rabeet/ip13g2/nwrevtpss/Cl2+.nw
    prefix          = Cl2+.
    data base       = ./Cl2+.db
    status          = startup
    nproc           =        1
    time left       =     -1s



           Memory information
           ------------------

    heap     =   13107196 doubles =    100.0 Mbytes
    stack    =   13107201 doubles =    100.0 Mbytes
    global   =   26214400 doubles =    200.0 Mbytes (distinct from heap & stack)
    total    =   52428797 doubles =    400.0 Mbytes
    verify   = yes
    hardfail = no 


           Directory information
           ---------------------

  0 permanent = .
  0 scratch   = .




                                NWChem Input Module
                                -------------------



 Scaling coordinates for geometry "geometry" by  1.889725989
 (inverse scale =  0.529177249)


          ------
          auto-z
          ------


                             Geometry "geometry" -> ""
                             -------------------------

 Output coordinates in angstroms (scale by  1.889725989 to convert to a.u.)

  No.       Tag          Charge          X              Y              Z
 ---- ---------------- ---------- -------------- -------------- --------------
    1 Cl                  17.0000     0.00000000     0.00000000    -0.95047000
    2 Cl                  17.0000     0.00000000     0.00000000     0.95047000

      Atomic Mass 
      ----------- 

      Cl                34.968850


 Effective nuclear repulsion energy (a.u.)      80.4508427204

            Nuclear Dipole moment (a.u.) 
            ----------------------------
        X                 Y               Z
 ---------------- ---------------- ----------------
     0.0000000000     0.0000000000     0.0000000000



                                Z-matrix (autoz)
                                -------- 

 Units are Angstrom for bonds and degrees for angles

      Type          Name      I     J     K     L     M      Value
      ----------- --------  ----- ----- ----- ----- ----- ----------
    1 Stretch                  1     2                       1.90094


            XYZ format geometry
            -------------------
     2
 geometry
 Cl                    0.00000000     0.00000000    -0.95047000
 Cl                    0.00000000     0.00000000     0.95047000

 ==============================================================================
                                internuclear distances
 ------------------------------------------------------------------------------
       center one      |      center two      | atomic units |  angstroms
 ------------------------------------------------------------------------------
    2 Cl               |   1 Cl               |     3.59226  |     1.90094
 ------------------------------------------------------------------------------
                         number of included internuclear distances:          1
 ==============================================================================





 Summary of "ao basis" -> "" (cartesian)
 ------------------------------------------------------------------------------
       Tag                 Description            Shells   Functions and Types
 ---------------- ------------------------------  ------  ---------------------
 *                     6-311++G(3df,3pd)              on all atoms 



                                 NWChem DFT Module
                                 -----------------


                      Basis "ao basis" -> "ao basis" (cartesian)
                      -----
  Cl (Chlorine)
  -------------
            Exponent  Coefficients 
       -------------- ---------------------------------------------------------
  1 S  1.05819000E+05  0.000738
  1 S  1.58720000E+04  0.005718
  1 S  3.61965000E+03  0.029495
  1 S  1.03080000E+03  0.117286
  1 S  3.39908000E+02  0.362949
  1 S  1.24538000E+02  0.584149

  2 S  1.24538000E+02  0.134177
  2 S  4.95135000E+01  0.624250
  2 S  2.08056000E+01  0.291756

  3 S  6.58346000E+00  1.000000

  4 S  2.56468000E+00  1.000000

  5 S  5.59763000E-01  1.000000

  6 S  1.83273000E-01  1.000000

  7 P  5.89776000E+02  0.002391
  7 P  1.39849000E+02  0.018504
  7 P  4.51413000E+01  0.081377
  7 P  1.68733000E+01  0.221552
  7 P  6.74110000E+00  0.772569

  8 P  6.74110000E+00 -1.572244
  8 P  2.77152000E+00  0.992389

  9 P  1.02387000E+00  1.000000

 10 P  3.81368000E-01  1.000000

 11 P  1.09437000E-01  1.000000

 12 S  4.83000000E-02  1.000000

 13 P  4.83000000E-02  1.000000

 14 D  3.00000000E+00  1.000000

 15 D  7.50000000E-01  1.000000

 16 D  1.87500000E-01  1.000000

 17 F  7.00000000E-01  1.000000



 Summary of "ao basis" -> "ao basis" (cartesian)
 ------------------------------------------------------------------------------
       Tag                 Description            Shells   Functions and Types
 ---------------- ------------------------------  ------  ---------------------
 Cl                    6-311++G(3df,3pd)            17       53   7s6p3d1f




 Summary of "ao basis" -> "ao basis" (cartesian)
 ------------------------------------------------------------------------------
       Tag                 Description            Shells   Functions and Types
 ---------------- ------------------------------  ------  ---------------------
 Cl                    6-311++G(3df,3pd)            17       53   7s6p3d1f


  Caching 1-el integrals 

            General Information
            -------------------
          SCF calculation type: DFT
          Wavefunction type:  spin polarized.
          No. of atoms     :     2
          No. of electrons :    33
           Alpha electrons :    17
            Beta electrons :    16
          Charge           :     1
          Spin multiplicity:     2
          Use of symmetry is: off; symmetry adaption is: off
          Maximum number of iterations: ***
          AO basis - number of functions:   106
                     number of shells:    34
          Convergence on energy requested: 1.00D-06
          Convergence on density requested: 1.00D-05
          Convergence on gradient requested: 5.00D-04

              XC Information
              --------------
                  TPSS metaGGA Exchange Functional  1.000          
             TPSS03 metaGGA Correlation Functional  1.000          

             Grid Information
             ----------------
          Grid used for XC integration:  medium    
          Radial quadrature: Mura-Knowles        
          Angular quadrature: Lebedev. 
          Tag              B.-S. Rad. Rad. Pts. Rad. Cut. Ang. Pts.
          ---              ---------- --------- --------- ---------
          Cl                  1.00       88          11.0       590
          Grid pruning is: on 
          Number of quadrature shells:   176
          Spatial weights used:  Erf1

          Convergence Information
          -----------------------
          Convergence aids based upon iterative change in 
          total energy or number of iterations. 
          Levelshifting, if invoked, occurs when the 
          HOMO/LUMO gap drops below (HL_TOL): 1.00D-02
          DIIS, if invoked, will attempt to extrapolate 
          using up to (NFOCK): 10 stored Fock matrices.

                    Damping( 0%)  Levelshifting(0.5)       DIIS
                  --------------- ------------------- ---------------
          dE  on:    start            ASAP                start   
          dE off:    2 iters        *** iters           *** iters 


      Screening Tolerance Information
      -------------------------------
          Density screening/tol_rho: 1.00D-10
          AO Gaussian exp screening on grid/accAOfunc:  14
          CD Gaussian exp screening on grid/accCDfunc:  20
          XC Gaussian exp screening on grid/accXCfunc:  20
          Schwarz screening/accCoul: 1.00D-08


      Superposition of Atomic Density Guess
      -------------------------------------

 Sum of atomic energies:        -918.95609548

 Renormalizing density from      34.00 to     33

      Non-variational initial energy
      ------------------------------

 Total energy =    -902.136915
 1-e energy   =   -1388.297795
 2-e energy   =     405.710038
 HOMO         =      -0.764864
 LUMO         =      -0.513624

   Time after variat. SCF:      0.8
   Time prior to 1st pass:      0.8

 Integral file          = ./Cl2+.aoints.0
 Record size in doubles =    65536    No. of integs per rec  =    43688
 Max. records in memory =        0    Max. records in file   = ********
 No. of bits per label  =        8    No. of bits per value  =       64


 #quartets = 1.534D+05 #integrals = 3.762D+06 #direct =  0.0% #cached =100.0%


 Grid_pts file          = ./Cl2+.gridpts.0
 Record size in doubles =  12289        No. of grid_pts per rec  =   3070
 Max. records in memory =     39        Max. recs in file   = 995331490


           Memory utilization after 1st SCF pass: 
           Heap Space remaining (MW):       12.62            12624180
          Stack Space remaining (MW):       13.11            13106236

   convergence    iter        energy       DeltaE   RMS-Dens  Diis-err    time
 ---------------- ----- ----------------- --------- --------- ---------  ------
 d= 0,ls=0.0,diis     1   -919.6147688134 -1.00D+03  4.94D-03  9.07D-01     6.8
                                                     4.94D-03  9.23D-01
 d= 0,ls=0.5,diis     2   -919.6799378074 -6.52D-02  1.59D-03  1.03D-01    10.9
                                                     1.52D-03  1.01D-01
 d= 0,ls=0.5,diis     3   -919.6942090532 -1.43D-02  1.83D-04  3.81D-04    15.0
                                                     1.56D-04  2.87D-04
 d= 0,ls=0.5,diis     4   -919.6945618709 -3.53D-04  7.21D-05  3.60D-05    19.1
                                                     7.04D-05  2.98D-05
 d= 0,ls=0.5,diis     5   -919.6946044421 -4.26D-05  3.06D-05  4.35D-06    23.3
                                                     2.79D-05  2.93D-06
  Resetting Diis
 d= 0,ls=0.5,diis     6   -919.6946149374 -1.05D-05  1.29D-05  9.64D-07    27.4
                                                     1.11D-05  6.66D-07
 d= 0,ls=0.5,diis     7   -919.6946191153 -4.18D-06  6.12D-06  1.97D-07    31.6
                                                     4.99D-06  1.26D-07
 d= 0,ls=0.5,diis     8   -919.6946209821 -1.87D-06  3.14D-06  3.94D-08    35.7
                                                     2.71D-06  3.01D-08
 d= 0,ls=0.5,diis     9   -919.6946214984 -5.16D-07  1.53D-06  8.96D-09    39.7
                                                     1.32D-06  6.34D-09


         Total DFT energy =     -919.694621696909
      One electron energy =    -1418.838000046505
           Coulomb energy =      474.503386607925
          Exchange energy =      -54.479253224822
       Correlation energy =       -1.331597753905
 Nuclear repulsion energy =       80.450842720398

 Numeric. integr. density =       33.000000190170

     Total iterative time =     42.3s



                    DFT Final Alpha Molecular Orbital Analysis
                    ------------------------------------------

 Vector    6  Occ=1.000000D+00  E=-7.418528D+00
              MO Center=  2.8D-12, -2.3D-11, -1.0D-04, r^2= 9.6D-01
   Bfn.  Coefficient  Atom+Function         Bfn.  Coefficient  Atom+Function  
  ----- ------------  ---------------      ----- ------------  ---------------
     9      0.869464  1 Cl pz                62      0.869368  2 Cl pz         
    12      0.233454  1 Cl pz                65      0.233429  2 Cl pz         

 Vector    7  Occ=1.000000D+00  E=-7.414330D+00
              MO Center=  6.0D-12,  6.8D-12,  1.4D-03, r^2= 9.6D-01
   Bfn.  Coefficient  Atom+Function         Bfn.  Coefficient  Atom+Function  
  ----- ------------  ---------------      ----- ------------  ---------------
     8      0.807588  1 Cl py                61      0.808752  2 Cl py         
     7      0.320819  1 Cl px                60      0.321281  2 Cl px         
    11      0.216823  1 Cl py                64      0.217136  2 Cl py         

 Vector    8  Occ=1.000000D+00  E=-7.414311D+00
              MO Center=  1.3D-11,  2.5D-11, -1.4D-03, r^2= 9.6D-01
   Bfn.  Coefficient  Atom+Function         Bfn.  Coefficient  Atom+Function  
  ----- ------------  ---------------      ----- ------------  ---------------
     8      0.808774  1 Cl py                61     -0.807609  2 Cl py         
     7      0.321290  1 Cl px                60     -0.320827  2 Cl px         
    11      0.217148  1 Cl py                64     -0.216836  2 Cl py         

 Vector    9  Occ=1.000000D+00  E=-7.400698D+00
              MO Center= -4.9D-11,  2.0D-11,  1.4D-03, r^2= 9.6D-01
   Bfn.  Coefficient  Atom+Function         Bfn.  Coefficient  Atom+Function  
  ----- ------------  ---------------      ----- ------------  ---------------
     7      0.807846  1 Cl px                60      0.809020  2 Cl px         
     8     -0.320922  1 Cl py                61     -0.321388  2 Cl py         
    10      0.216842  1 Cl px                63      0.217157  2 Cl px         

 Vector   10  Occ=1.000000D+00  E=-7.400679D+00
              MO Center= -4.7D-11,  2.0D-11, -1.4D-03, r^2= 9.6D-01
   Bfn.  Coefficient  Atom+Function         Bfn.  Coefficient  Atom+Function  
  ----- ------------  ---------------      ----- ------------  ---------------
     7      0.809044  1 Cl px                60     -0.807870  2 Cl px         
     8     -0.321397  1 Cl py                61      0.320931  2 Cl py         
    10      0.217171  1 Cl px                63     -0.216855  2 Cl px         

 Vector   11  Occ=1.000000D+00  E=-1.226774D+00
              MO Center=  8.0D-09, -7.3D-09,  1.7D-08, r^2= 1.1D+00
   Bfn.  Coefficient  Atom+Function         Bfn.  Coefficient  Atom+Function  
  ----- ------------  ---------------      ----- ------------  ---------------
     6      0.376040  1 Cl s                 59      0.376040  2 Cl s          
     5      0.364075  1 Cl s                 58      0.364075  2 Cl s          
     4     -0.274481  1 Cl s                 57     -0.274481  2 Cl s          

 Vector   12  Occ=1.000000D+00  E=-1.037756D+00
              MO Center=  5.9D-09, -4.9D-09,  2.8D-08, r^2= 2.0D+00
   Bfn.  Coefficient  Atom+Function         Bfn.  Coefficient  Atom+Function  
  ----- ------------  ---------------      ----- ------------  ---------------
     6      0.479836  1 Cl s                 59     -0.479836  2 Cl s          
     5      0.436687  1 Cl s                 58     -0.436687  2 Cl s          
     4     -0.313866  1 Cl s                 57      0.313866  2 Cl s          
     3     -0.159846  1 Cl s                 56      0.159846  2 Cl s          

 Vector   13  Occ=1.000000D+00  E=-7.629920D-01
              MO Center= -2.3D-09,  6.2D-09, -4.8D-08, r^2= 2.1D+00
   Bfn.  Coefficient  Atom+Function         Bfn.  Coefficient  Atom+Function  
  ----- ------------  ---------------      ----- ------------  ---------------
    18      0.405277  1 Cl pz                71     -0.405277  2 Cl pz         
     9     -0.257332  1 Cl pz                62      0.257332  2 Cl pz         
     6     -0.210194  1 Cl s                 59     -0.210194  2 Cl s          
    15      0.190115  1 Cl pz                68     -0.190115  2 Cl pz         
     5     -0.158968  1 Cl s                 58     -0.158968  2 Cl s          

 Vector   14  Occ=1.000000D+00  E=-7.172870D-01
              MO Center= -2.8D-10, -5.8D-11,  7.6D-08, r^2= 1.7D+00
   Bfn.  Coefficient  Atom+Function         Bfn.  Coefficient  Atom+Function  
  ----- ------------  ---------------      ----- ------------  ---------------
    17      0.456278  1 Cl py                70      0.456278  2 Cl py         
     8     -0.238824  1 Cl py                61     -0.238824  2 Cl py         
    16      0.181258  1 Cl px                69      0.181258  2 Cl px         
    14      0.160156  1 Cl py                67      0.160156  2 Cl py         

 Vector   15  Occ=1.000000D+00  E=-6.870079D-01
              MO Center= -1.3D-08,  6.2D-09,  5.4D-08, r^2= 1.7D+00
   Bfn.  Coefficient  Atom+Function         Bfn.  Coefficient  Atom+Function  
  ----- ------------  ---------------      ----- ------------  ---------------
    16      0.459335  1 Cl px                69      0.459335  2 Cl px         
     7     -0.236188  1 Cl px                60     -0.236188  2 Cl px         
    17     -0.182474  1 Cl py                70     -0.182474  2 Cl py         
    13      0.156075  1 Cl px                66      0.156075  2 Cl px         

 Vector   16  Occ=1.000000D+00  E=-6.031718D-01
              MO Center=  1.4D-09,  2.2D-09, -7.2D-08, r^2= 2.0D+00
   Bfn.  Coefficient  Atom+Function         Bfn.  Coefficient  Atom+Function  
  ----- ------------  ---------------      ----- ------------  ---------------
    17      0.505044  1 Cl py                70     -0.505044  2 Cl py         
     8     -0.261002  1 Cl py                61      0.261001  2 Cl py         
    16      0.200632  1 Cl px                69     -0.200632  2 Cl px         
    20      0.196353  1 Cl py                73     -0.196353  2 Cl py         
    14      0.183483  1 Cl py                67     -0.183483  2 Cl py         

 Vector   17  Occ=1.000000D+00  E=-5.691113D-01
              MO Center= -8.4D-09,  4.0D-09, -5.0D-08, r^2= 2.1D+00
   Bfn.  Coefficient  Atom+Function         Bfn.  Coefficient  Atom+Function  
  ----- ------------  ---------------      ----- ------------  ---------------
    16      0.509179  1 Cl px                69     -0.509179  2 Cl px         
     7     -0.258826  1 Cl px                60      0.258826  2 Cl px         
    19      0.205432  1 Cl px                72     -0.205432  2 Cl px         
    17     -0.202274  1 Cl py                70      0.202274  2 Cl py         
    13      0.179818  1 Cl px                66     -0.179818  2 Cl px         

 Vector   18  Occ=0.000000D+00  E=-4.249934D-01
              MO Center=  3.7D-09, -3.4D-09,  2.0D-08, r^2= 2.4D+00
   Bfn.  Coefficient  Atom+Function         Bfn.  Coefficient  Atom+Function  
  ----- ------------  ---------------      ----- ------------  ---------------
    18      0.577167  1 Cl pz                71      0.577167  2 Cl pz         
     9     -0.277869  1 Cl pz                62     -0.277869  2 Cl pz         
     6      0.220614  1 Cl s                 59     -0.220614  2 Cl s          
    15      0.201230  1 Cl pz                68      0.201230  2 Cl pz         
    21      0.175636  1 Cl pz                74      0.175636  2 Cl pz         

 Vector   19  Occ=0.000000D+00  E=-2.002544D-01
              MO Center= -9.0D-08, -7.6D-08,  4.5D-08, r^2= 5.6D+00
   Bfn.  Coefficient  Atom+Function         Bfn.  Coefficient  Atom+Function  
  ----- ------------  ---------------      ----- ------------  ---------------
    22      0.699949  1 Cl s                 75      0.699949  2 Cl s          
     6     -0.227068  1 Cl s                 59     -0.227068  2 Cl s          
    43     -0.211324  1 Cl dzz               96     -0.211324  2 Cl dzz        
     5     -0.182385  1 Cl s                 58     -0.182386  2 Cl s          
    37     -0.161372  1 Cl dzz               90     -0.161372  2 Cl dzz        

 Vector   20  Occ=0.000000D+00  E=-1.377237D-01
              MO Center=  4.1D-08,  8.1D-08,  3.5D-08, r^2= 6.9D+00
   Bfn.  Coefficient  Atom+Function         Bfn.  Coefficient  Atom+Function  
  ----- ------------  ---------------      ----- ------------  ---------------
    24      0.480426  1 Cl py                77      0.480426  2 Cl py         
    42     -0.457004  1 Cl dyz               95      0.457004  2 Cl dyz        
    36     -0.277993  1 Cl dyz               89      0.277993  2 Cl dyz        
    23      0.189897  1 Cl px                76      0.189897  2 Cl px         
    40     -0.181149  1 Cl dxz               93      0.181149  2 Cl dxz        

 Vector   21  Occ=0.000000D+00  E=-1.293369D-01
              MO Center=  3.0D-07, -1.4D-07, -1.2D-08, r^2= 8.2D+00
   Bfn.  Coefficient  Atom+Function         Bfn.  Coefficient  Atom+Function  
  ----- ------------  ---------------      ----- ------------  ---------------
    23      0.568042  1 Cl px                76      0.568042  2 Cl px         
    40     -0.349201  1 Cl dxz               93      0.349201  2 Cl dxz        
    24     -0.225267  1 Cl py                77     -0.225267  2 Cl py         
    34     -0.212253  1 Cl dxz               87      0.212253  2 Cl dxz        
    19     -0.176076  1 Cl px                72     -0.176076  2 Cl px         

 Vector   22  Occ=0.000000D+00  E=-1.274763D-01
              MO Center= -3.3D-07,  1.2D-07,  4.0D-06, r^2= 1.0D+01
   Bfn.  Coefficient  Atom+Function         Bfn.  Coefficient  Atom+Function  
  ----- ------------  ---------------      ----- ------------  ---------------
    25      0.779405  1 Cl pz                78     -0.779407  2 Cl pz         
    22     -0.561462  1 Cl s                 75     -0.561462  2 Cl s          
     6      0.189547  1 Cl s                 59      0.189547  2 Cl s          
    43     -0.174375  1 Cl dzz               96     -0.174375  2 Cl dzz        
    41      0.172405  1 Cl dyy               94      0.172405  2 Cl dyy        

 Vector   23  Occ=0.000000D+00  E=-1.271270D-01
              MO Center= -2.1D-08, -1.2D-08, -4.1D-06, r^2= 1.2D+01
   Bfn.  Coefficient  Atom+Function         Bfn.  Coefficient  Atom+Function  
  ----- ------------  ---------------      ----- ------------  ---------------
    25      0.928454  1 Cl pz                78      0.928453  2 Cl pz         
    21     -0.714823  1 Cl pz                74     -0.714823  2 Cl pz         
    18     -0.184753  1 Cl pz                71     -0.184753  2 Cl pz         
    43     -0.167929  1 Cl dzz               96      0.167929  2 Cl dzz        

 Vector   24  Occ=0.000000D+00  E=-1.084088D-01
              MO Center= -1.7D-07,  3.5D-08,  1.1D-08, r^2= 5.5D+00
   Bfn.  Coefficient  Atom+Function         Bfn.  Coefficient  Atom+Function  
  ----- ------------  ---------------      ----- ------------  ---------------
    42      0.555532  1 Cl dyz               95     -0.555532  2 Cl dyz        
    24      0.473541  1 Cl py                77      0.473541  2 Cl py         
    36      0.306194  1 Cl dyz               89     -0.306194  2 Cl dyz        
    20     -0.241096  1 Cl py                73     -0.241096  2 Cl py         
    40      0.220182  1 Cl dxz               93     -0.220182  2 Cl dxz        

 Vector   25  Occ=0.000000D+00  E=-9.931551D-02
              MO Center=  1.9D-07,  5.4D-08,  1.2D-07, r^2= 2.7D+00
   Bfn.  Coefficient  Atom+Function         Bfn.  Coefficient  Atom+Function  
  ----- ------------  ---------------      ----- ------------  ---------------
    39      0.633740  1 Cl dxy               92      0.633741  2 Cl dxy        
    38      0.298928  1 Cl dxx               41     -0.298923  1 Cl dyy        
    91      0.298928  2 Cl dxx               94     -0.298923  2 Cl dyy        
    33      0.257762  1 Cl dxy               86      0.257762  2 Cl dxy        

 Vector   26  Occ=0.000000D+00  E=-9.807890D-02
              MO Center= -3.1D-07,  1.4D-07,  1.8D-07, r^2= 3.0D+00
   Bfn.  Coefficient  Atom+Function         Bfn.  Coefficient  Atom+Function  
  ----- ------------  ---------------      ----- ------------  ---------------
    39      0.586777  1 Cl dxy               92      0.586777  2 Cl dxy        
    41      0.313763  1 Cl dyy               94      0.313763  2 Cl dyy        
    38     -0.308239  1 Cl dxx               91     -0.308239  2 Cl dxx        
    33      0.237934  1 Cl dxy               86      0.237934  2 Cl dxy        
    25     -0.214709  1 Cl pz                78      0.214709  2 Cl pz         

 Vector   27  Occ=0.000000D+00  E=-9.174483D-02
              MO Center=  3.5D-07, -2.5D-07,  3.7D-08, r^2= 4.4D+00
   Bfn.  Coefficient  Atom+Function         Bfn.  Coefficient  Atom+Function  
  ----- ------------  ---------------      ----- ------------  ---------------
    40      0.638469  1 Cl dxz               93     -0.638469  2 Cl dxz        
    23      0.393406  1 Cl px                76      0.393406  2 Cl px         
    34      0.344067  1 Cl dxz               87     -0.344067  2 Cl dxz        
    42     -0.253458  1 Cl dyz               95      0.253458  2 Cl dyz        
    19     -0.245358  1 Cl px                72     -0.245358  2 Cl px         

 Vector   28  Occ=0.000000D+00  E=-7.795765D-02
              MO Center= -6.5D-10,  7.9D-10, -1.5D-08, r^2= 1.2D+01
   Bfn.  Coefficient  Atom+Function         Bfn.  Coefficient  Atom+Function  
  ----- ------------  ---------------      ----- ------------  ---------------
    24      1.519535  1 Cl py                77     -1.519535  2 Cl py         
    23      0.601652  1 Cl px                76     -0.601652  2 Cl px         
    20     -0.368114  1 Cl py                73      0.368114  2 Cl py         
    42     -0.208192  1 Cl dyz               95     -0.208192  2 Cl dyz        

 Vector   29  Occ=0.000000D+00  E=-7.346545D-02
              MO Center=  7.8D-09, -4.1D-09,  1.7D-08, r^2= 1.2D+01
   Bfn.  Coefficient  Atom+Function         Bfn.  Coefficient  Atom+Function  
  ----- ------------  ---------------      ----- ------------  ---------------
    23      1.550769  1 Cl px                76     -1.550769  2 Cl px         
    24     -0.614172  1 Cl py                77      0.614172  2 Cl py         
    19     -0.399133  1 Cl px                72      0.399133  2 Cl px         
    40     -0.195589  1 Cl dxz               93     -0.195589  2 Cl dxz        
    20      0.158136  1 Cl py                73     -0.158136  2 Cl py         

 Vector   30  Occ=0.000000D+00  E=-1.757577D-02
              MO Center= -4.9D-09,  1.0D-08, -9.2D-08, r^2= 1.3D+01
   Bfn.  Coefficient  Atom+Function         Bfn.  Coefficient  Atom+Function  
  ----- ------------  ---------------      ----- ------------  ---------------
    22     12.004559  1 Cl s                 75    -12.004559  2 Cl s          
    25      5.031249  1 Cl pz                78      5.031249  2 Cl pz         
     6     -0.477766  1 Cl s                 59      0.477766  2 Cl s          
    43     -0.384080  1 Cl dzz               96      0.384080  2 Cl dzz        
     5     -0.211765  1 Cl s                 58      0.211765  2 Cl s          

 Vector   31  Occ=0.000000D+00  E= 2.586204D-02
              MO Center= -4.4D-09,  7.8D-09, -1.2D-07, r^2= 3.0D+00
   Bfn.  Coefficient  Atom+Function         Bfn.  Coefficient  Atom+Function  
  ----- ------------  ---------------      ----- ------------  ---------------
    39      0.810144  1 Cl dxy               92     -0.810144  2 Cl dxy        
    38      0.382192  1 Cl dxx               41     -0.382197  1 Cl dyy        
    91     -0.382192  2 Cl dxx               94      0.382198  2 Cl dyy        
    33      0.307077  1 Cl dxy               86     -0.307077  2 Cl dxy        

 Vector   32  Occ=0.000000D+00  E= 2.620960D-02
              MO Center= -9.5D-09,  3.7D-09, -1.7D-07, r^2= 3.1D+00
   Bfn.  Coefficient  Atom+Function         Bfn.  Coefficient  Atom+Function  
  ----- ------------  ---------------      ----- ------------  ---------------
    22      1.127556  1 Cl s                 75     -1.127556  2 Cl s          
    39     -0.761959  1 Cl dxy               92      0.761959  2 Cl dxy        
    25      0.443675  1 Cl pz                41     -0.442415  1 Cl dyy        
    78      0.443674  2 Cl pz                94      0.442415  2 Cl dyy        
    38      0.365152  1 Cl dxx               91     -0.365152  2 Cl dxx        

 Vector   33  Occ=0.000000D+00  E= 2.992432D-02
              MO Center= -1.2D-08,  4.3D-08,  1.5D-07, r^2= 9.0D+00
   Bfn.  Coefficient  Atom+Function         Bfn.  Coefficient  Atom+Function  
  ----- ------------  ---------------      ----- ------------  ---------------
    25      1.392132  1 Cl pz                78     -1.392133  2 Cl pz         
    21     -0.724364  1 Cl pz                74      0.724364  2 Cl pz         
    38     -0.475992  1 Cl dxx               91     -0.475992  2 Cl dxx        
    41     -0.437332  1 Cl dyy               94     -0.437332  2 Cl dyy        
    22      0.341072  1 Cl s                 75      0.341074  2 Cl s          

 Vector   34  Occ=0.000000D+00  E= 1.400577D-01
              MO Center=  7.2D-09,  5.9D-08,  2.6D-07, r^2= 1.2D+01
   Bfn.  Coefficient  Atom+Function         Bfn.  Coefficient  Atom+Function  
  ----- ------------  ---------------      ----- ------------  ---------------
    21      4.759349  1 Cl pz                74      4.759349  2 Cl pz         
     6      1.915337  1 Cl s                 59     -1.915337  2 Cl s          
    22      1.727337  1 Cl s                 75     -1.727337  2 Cl s          
    43      1.427360  1 Cl dzz               96     -1.427360  2 Cl dzz        
    25     -0.926531  1 Cl pz                78     -0.926531  2 Cl pz         

 Vector   35  Occ=0.000000D+00  E= 1.527839D-01
              MO Center= -1.8D-08, -4.9D-08,  8.7D-09, r^2= 6.7D+00
   Bfn.  Coefficient  Atom+Function         Bfn.  Coefficient  Atom+Function  
  ----- ------------  ---------------      ----- ------------  ---------------
    24      1.278256  1 Cl py                77     -1.278256  2 Cl py         
    42      1.080817  1 Cl dyz               95      1.080817  2 Cl dyz        
    17      0.993302  1 Cl py                70     -0.993302  2 Cl py         
    20     -0.916250  1 Cl py                73      0.916250  2 Cl py         
    23      0.507507  1 Cl px                76     -0.507507  2 Cl px         

 Vector   36  Occ=0.000000D+00  E= 1.609620D-01
              MO Center= -2.0D-07,  1.7D-06, -2.5D-07, r^2= 8.6D+00
   Bfn.  Coefficient  Atom+Function         Bfn.  Coefficient  Atom+Function  
  ----- ------------  ---------------      ----- ------------  ---------------
    22      1.223074  1 Cl s                 75      1.223077  2 Cl s          
     6      1.215613  1 Cl s                 59      1.215613  2 Cl s          
    43     -1.025756  1 Cl dzz               96     -1.025757  2 Cl dzz        
    41     -0.963393  1 Cl dyy               94     -0.963394  2 Cl dyy        
    38     -0.956854  1 Cl dxx               91     -0.956855  2 Cl dxx        

 Vector   37  Occ=0.000000D+00  E= 1.651998D-01
              MO Center= -5.6D-07, -1.4D-06, -1.8D-08, r^2= 8.0D+00
   Bfn.  Coefficient  Atom+Function         Bfn.  Coefficient  Atom+Function  
  ----- ------------  ---------------      ----- ------------  ---------------
    20     -1.543383  1 Cl py                73     -1.543383  2 Cl py         
    17      1.529081  1 Cl py                70      1.529081  2 Cl py         
    24      0.865379  1 Cl py                77      0.865378  2 Cl py         
    19     -0.610296  1 Cl px                72     -0.610297  2 Cl px         
    16      0.604512  1 Cl px                69      0.604513  2 Cl px         

 Vector   38  Occ=0.000000D+00  E= 1.667303D-01
              MO Center=  4.7D-08, -1.9D-08, -4.8D-07, r^2= 6.8D+00
   Bfn.  Coefficient  Atom+Function         Bfn.  Coefficient  Atom+Function  
  ----- ------------  ---------------      ----- ------------  ---------------
    23      1.297297  1 Cl px                76     -1.297296  2 Cl px         
    16      1.061690  1 Cl px                69     -1.061688  2 Cl px         
    40      1.051112  1 Cl dxz               93      1.051112  2 Cl dxz        
    19     -0.993540  1 Cl px                72      0.993539  2 Cl px         
    24     -0.515076  1 Cl py                77      0.515077  2 Cl py         

 Vector   39  Occ=0.000000D+00  E= 1.757443D-01
              MO Center=  7.6D-07, -3.1D-07,  5.3D-07, r^2= 7.8D+00
   Bfn.  Coefficient  Atom+Function         Bfn.  Coefficient  Atom+Function  
  ----- ------------  ---------------      ----- ------------  ---------------
    16      1.567690  1 Cl px                69      1.567690  2 Cl px         
    19     -1.544212  1 Cl px                72     -1.544212  2 Cl px         
    23      0.854651  1 Cl px                76      0.854652  2 Cl px         
    17     -0.620021  1 Cl py                70     -0.620021  2 Cl py         
    20      0.610612  1 Cl py                73      0.610612  2 Cl py         

 Vector   40  Occ=0.000000D+00  E= 2.345884D-01
              MO Center= -1.1D-07,  1.3D-07, -5.0D-08, r^2= 6.7D+00
   Bfn.  Coefficient  Atom+Function         Bfn.  Coefficient  Atom+Function  
  ----- ------------  ---------------      ----- ------------  ---------------
    22     10.533547  1 Cl s                 75    -10.533546  2 Cl s          
    25      3.946712  1 Cl pz                78      3.946712  2 Cl pz         
    38     -1.188630  1 Cl dxx               91      1.188630  2 Cl dxx        
    41     -1.162856  1 Cl dyy               94      1.162856  2 Cl dyy        
     6      0.911993  1 Cl s                 59     -0.911993  2 Cl s          

 Vector   41  Occ=0.000000D+00  E= 2.663366D-01
              MO Center= -2.0D-08, -7.7D-08, -2.7D-08, r^2= 5.9D+00
   Bfn.  Coefficient  Atom+Function         Bfn.  Coefficient  Atom+Function  
  ----- ------------  ---------------      ----- ------------  ---------------
    20      2.355573  1 Cl py                73     -2.355573  2 Cl py         
    42      1.401166  1 Cl dyz               95      1.401166  2 Cl dyz        
    24     -1.280046  1 Cl py                77      1.280046  2 Cl py         
    17     -1.198261  1 Cl py                70      1.198261  2 Cl py         
    19      0.935495  1 Cl px                72     -0.935495  2 Cl px         

 Vector   42  Occ=0.000000D+00  E= 2.807084D-01
              MO Center=  1.2D-07, -5.3D-08, -9.5D-08, r^2= 5.7D+00
   Bfn.  Coefficient  Atom+Function         Bfn.  Coefficient  Atom+Function  
  ----- ------------  ---------------      ----- ------------  ---------------
    19      2.333503  1 Cl px                72     -2.333503  2 Cl px         
    40      1.457125  1 Cl dxz               93      1.457125  2 Cl dxz        
    23     -1.228958  1 Cl px                76      1.228958  2 Cl px         
    16     -1.193873  1 Cl px                69      1.193873  2 Cl px         
    20     -0.926680  1 Cl py                73      0.926680  2 Cl py         

 Vector   43  Occ=0.000000D+00  E= 2.838412D-01
              MO Center=  3.7D-08, -2.8D-08,  3.1D-09, r^2= 5.2D+00
   Bfn.  Coefficient  Atom+Function         Bfn.  Coefficient  Atom+Function  
  ----- ------------  ---------------      ----- ------------  ---------------
    18      2.082870  1 Cl pz                71     -2.082869  2 Cl pz         
    21     -1.907778  1 Cl pz                74      1.907778  2 Cl pz         
     6      1.433052  1 Cl s                 59      1.433052  2 Cl s          
    25      0.998125  1 Cl pz                78     -0.998125  2 Cl pz         
    43     -0.988891  1 Cl dzz               96     -0.988891  2 Cl dzz        

 Vector   44  Occ=0.000000D+00  E= 5.495201D-01
              MO Center= -1.8D-09,  6.0D-09, -2.5D-08, r^2= 7.4D+00
   Bfn.  Coefficient  Atom+Function         Bfn.  Coefficient  Atom+Function  
  ----- ------------  ---------------      ----- ------------  ---------------
    21      6.746736  1 Cl pz                74      6.746736  2 Cl pz         
    43      4.654039  1 Cl dzz               96     -4.654039  2 Cl dzz        
    22     -3.529261  1 Cl s                 75      3.529261  2 Cl s          
     6      2.708797  1 Cl s                 59     -2.708797  2 Cl s          
    25     -2.395312  1 Cl pz                78     -2.395312  2 Cl pz         


                     DFT Final Beta Molecular Orbital Analysis
                     -----------------------------------------

 Vector    6  Occ=1.000000D+00  E=-7.416412D+00
              MO Center=  7.9D-12, -6.4D-12, -1.0D-04, r^2= 9.6D-01
   Bfn.  Coefficient  Atom+Function         Bfn.  Coefficient  Atom+Function  
  ----- ------------  ---------------      ----- ------------  ---------------
     9      0.869578  1 Cl pz                62      0.869483  2 Cl pz         
    12      0.233505  1 Cl pz                65      0.233479  2 Cl pz         

 Vector    7  Occ=1.000000D+00  E=-7.404745D+00
              MO Center=  7.2D-12,  7.6D-12,  1.4D-03, r^2= 9.6D-01
   Bfn.  Coefficient  Atom+Function         Bfn.  Coefficient  Atom+Function  
  ----- ------------  ---------------      ----- ------------  ---------------
     8      0.807668  1 Cl py                61      0.808823  2 Cl py         
     7      0.320850  1 Cl px                60      0.321309  2 Cl px         
    11      0.216791  1 Cl py                64      0.217101  2 Cl py         

 Vector    8  Occ=1.000000D+00  E=-7.404726D+00
              MO Center=  8.5D-12,  9.3D-12, -1.4D-03, r^2= 9.6D-01
   Bfn.  Coefficient  Atom+Function         Bfn.  Coefficient  Atom+Function  
  ----- ------------  ---------------      ----- ------------  ---------------
     8      0.808843  1 Cl py                61     -0.807688  2 Cl py         
     7      0.321317  1 Cl px                60     -0.320858  2 Cl px         
    11      0.217113  1 Cl py                64     -0.216802  2 Cl py         

 Vector    9  Occ=1.000000D+00  E=-7.398515D+00
              MO Center= -4.6D-11,  1.8D-11,  1.4D-03, r^2= 9.6D-01
   Bfn.  Coefficient  Atom+Function         Bfn.  Coefficient  Atom+Function  
  ----- ------------  ---------------      ----- ------------  ---------------
     7      0.807979  1 Cl px                60      0.809147  2 Cl px         
     8     -0.320974  1 Cl py                61     -0.321438  2 Cl py         
    10      0.216896  1 Cl px                63      0.217210  2 Cl px         

 Vector   10  Occ=1.000000D+00  E=-7.398496D+00
              MO Center= -4.4D-11,  1.7D-11, -1.4D-03, r^2= 9.6D-01
   Bfn.  Coefficient  Atom+Function         Bfn.  Coefficient  Atom+Function  
  ----- ------------  ---------------      ----- ------------  ---------------
     7      0.809172  1 Cl px                60     -0.808004  2 Cl px         
     8     -0.321448  1 Cl py                61      0.320984  2 Cl py         
    10      0.217224  1 Cl px                63     -0.216911  2 Cl px         

 Vector   11  Occ=1.000000D+00  E=-1.211165D+00
              MO Center=  8.2D-09, -7.3D-09,  1.4D-08, r^2= 1.1D+00
   Bfn.  Coefficient  Atom+Function         Bfn.  Coefficient  Atom+Function  
  ----- ------------  ---------------      ----- ------------  ---------------
     6      0.371503  1 Cl s                 59      0.371503  2 Cl s          
     5      0.354366  1 Cl s                 58      0.354366  2 Cl s          
     4     -0.270651  1 Cl s                 57     -0.270651  2 Cl s          

 Vector   12  Occ=1.000000D+00  E=-1.011410D+00
              MO Center=  5.8D-09, -5.9D-09,  3.4D-08, r^2= 2.0D+00
   Bfn.  Coefficient  Atom+Function         Bfn.  Coefficient  Atom+Function  
  ----- ------------  ---------------      ----- ------------  ---------------
     6      0.482882  1 Cl s                 59     -0.482882  2 Cl s          
     5      0.432336  1 Cl s                 58     -0.432336  2 Cl s          
     4     -0.312764  1 Cl s                 57      0.312764  2 Cl s          
     3     -0.159178  1 Cl s                 56      0.159178  2 Cl s          

 Vector   13  Occ=1.000000D+00  E=-7.522865D-01
              MO Center= -4.0D-09,  3.8D-09, -5.2D-08, r^2= 2.2D+00
   Bfn.  Coefficient  Atom+Function         Bfn.  Coefficient  Atom+Function  
  ----- ------------  ---------------      ----- ------------  ---------------
    18      0.411140  1 Cl pz                71     -0.411141  2 Cl pz         
     9     -0.255328  1 Cl pz                62      0.255328  2 Cl pz         
     6     -0.210020  1 Cl s                 59     -0.210020  2 Cl s          
    15      0.186298  1 Cl pz                68     -0.186298  2 Cl pz         
     5     -0.165754  1 Cl s                 58     -0.165754  2 Cl s          

 Vector   14  Occ=1.000000D+00  E=-6.817372D-01
              MO Center= -1.3D-08,  6.2D-09,  5.4D-08, r^2= 1.7D+00
   Bfn.  Coefficient  Atom+Function         Bfn.  Coefficient  Atom+Function  
  ----- ------------  ---------------      ----- ------------  ---------------
    16      0.459932  1 Cl px                69      0.459932  2 Cl px         
     7     -0.235495  1 Cl px                60     -0.235495  2 Cl px         
    17     -0.182710  1 Cl py                70     -0.182710  2 Cl py         
    13      0.154871  1 Cl px                66      0.154871  2 Cl px         

 Vector   15  Occ=1.000000D+00  E=-6.750460D-01
              MO Center=  6.3D-10,  2.3D-09,  8.1D-09, r^2= 1.7D+00
   Bfn.  Coefficient  Atom+Function         Bfn.  Coefficient  Atom+Function  
  ----- ------------  ---------------      ----- ------------  ---------------
    17      0.457062  1 Cl py                70      0.457062  2 Cl py         
     8     -0.232456  1 Cl py                61     -0.232456  2 Cl py         
    16      0.181570  1 Cl px                69      0.181570  2 Cl px         
    14      0.151205  1 Cl py                67      0.151205  2 Cl py         

 Vector   16  Occ=1.000000D+00  E=-5.623961D-01
              MO Center= -8.6D-09,  3.7D-09, -5.0D-08, r^2= 2.1D+00
   Bfn.  Coefficient  Atom+Function         Bfn.  Coefficient  Atom+Function  
  ----- ------------  ---------------      ----- ------------  ---------------
    16      0.509833  1 Cl px                69     -0.509833  2 Cl px         
     7     -0.258258  1 Cl px                60      0.258258  2 Cl px         
    19      0.206131  1 Cl px                72     -0.206131  2 Cl px         
    17     -0.202534  1 Cl py                70      0.202534  2 Cl py         
    13      0.178821  1 Cl px                66     -0.178820  2 Cl px         

 Vector   17  Occ=0.000000D+00  E=-5.488017D-01
              MO Center=  2.2D-09,  2.4D-09,  4.7D-10, r^2= 2.1D+00
   Bfn.  Coefficient  Atom+Function         Bfn.  Coefficient  Atom+Function  
  ----- ------------  ---------------      ----- ------------  ---------------
    17      0.506006  1 Cl py                70     -0.506006  2 Cl py         
     8     -0.257012  1 Cl py                61      0.257012  2 Cl py         
    20      0.214192  1 Cl py                73     -0.214192  2 Cl py         
    16      0.201014  1 Cl px                69     -0.201014  2 Cl px         
    14      0.178165  1 Cl py                67     -0.178165  2 Cl py         

 Vector   18  Occ=0.000000D+00  E=-4.141131D-01
              MO Center=  3.8D-09, -3.9D-09,  1.9D-08, r^2= 2.4D+00
   Bfn.  Coefficient  Atom+Function         Bfn.  Coefficient  Atom+Function  
  ----- ------------  ---------------      ----- ------------  ---------------
    18      0.567088  1 Cl pz                71      0.567088  2 Cl pz         
     9     -0.276691  1 Cl pz                62     -0.276691  2 Cl pz         
     6      0.222074  1 Cl s                 59     -0.222074  2 Cl s          
    15      0.202346  1 Cl pz                68      0.202346  2 Cl pz         
    21      0.171256  1 Cl pz                74      0.171256  2 Cl pz         

 Vector   19  Occ=0.000000D+00  E=-1.953542D-01
              MO Center= -8.9D-08, -6.3D-08,  6.7D-08, r^2= 5.7D+00
   Bfn.  Coefficient  Atom+Function         Bfn.  Coefficient  Atom+Function  
  ----- ------------  ---------------      ----- ------------  ---------------
    22      0.718265  1 Cl s                 75      0.718265  2 Cl s          
     6     -0.237030  1 Cl s                 59     -0.237030  2 Cl s          
    43     -0.205539  1 Cl dzz               96     -0.205539  2 Cl dzz        
     5     -0.177605  1 Cl s                 58     -0.177606  2 Cl s          
    37     -0.159029  1 Cl dzz               90     -0.159029  2 Cl dzz        

 Vector   20  Occ=0.000000D+00  E=-1.288375D-01
              MO Center=  2.5D-08,  6.0D-08,  8.2D-08, r^2= 8.2D+00
   Bfn.  Coefficient  Atom+Function         Bfn.  Coefficient  Atom+Function  
  ----- ------------  ---------------      ----- ------------  ---------------
    24      0.571397  1 Cl py                77      0.571398  2 Cl py         
    42     -0.347813  1 Cl dyz               95      0.347813  2 Cl dyz        
    23      0.218402  1 Cl px                76      0.218402  2 Cl px         
    36     -0.210893  1 Cl dyz               89      0.210893  2 Cl dyz        
    20     -0.174935  1 Cl py                73     -0.174935  2 Cl py         

 Vector   21  Occ=0.000000D+00  E=-1.278497D-01
              MO Center=  5.4D-08, -3.5D-08,  8.9D-09, r^2= 8.3D+00
   Bfn.  Coefficient  Atom+Function         Bfn.  Coefficient  Atom+Function  
  ----- ------------  ---------------      ----- ------------  ---------------
    23      0.579783  1 Cl px                76      0.579783  2 Cl px         
    40     -0.339871  1 Cl dxz               93      0.339871  2 Cl dxz        
    24     -0.222149  1 Cl py                77     -0.222149  2 Cl py         
    34     -0.206273  1 Cl dxz               87      0.206273  2 Cl dxz        
    19     -0.185226  1 Cl px                72     -0.185226  2 Cl px         

 Vector   22  Occ=0.000000D+00  E=-1.235585D-01
              MO Center= -2.0D-08, -3.2D-08,  9.3D-07, r^2= 1.2D+01
   Bfn.  Coefficient  Atom+Function         Bfn.  Coefficient  Atom+Function  
  ----- ------------  ---------------      ----- ------------  ---------------
    25      1.004162  1 Cl pz                78      1.004163  2 Cl pz         
    21     -0.741708  1 Cl pz                74     -0.741708  2 Cl pz         
    18     -0.193532  1 Cl pz                71     -0.193532  2 Cl pz         
    43     -0.182887  1 Cl dzz               96      0.182887  2 Cl dzz        

 Vector   23  Occ=0.000000D+00  E=-1.216991D-01
              MO Center= -7.1D-08,  3.6D-08, -9.1D-07, r^2= 1.1D+01
   Bfn.  Coefficient  Atom+Function         Bfn.  Coefficient  Atom+Function  
  ----- ------------  ---------------      ----- ------------  ---------------
    25      0.835820  1 Cl pz                78     -0.835819  2 Cl pz         
    22     -0.548228  1 Cl s                 75     -0.548228  2 Cl s          
     6      0.183179  1 Cl s                 59      0.183179  2 Cl s          
    43     -0.173550  1 Cl dzz               96     -0.173550  2 Cl dzz        

 Vector   24  Occ=0.000000D+00  E=-8.996422D-02
              MO Center= -1.5D-07,  2.5D-08,  3.9D-08, r^2= 4.4D+00
   Bfn.  Coefficient  Atom+Function         Bfn.  Coefficient  Atom+Function  
  ----- ------------  ---------------      ----- ------------  ---------------
    42      0.645344  1 Cl dyz               95     -0.645344  2 Cl dyz        
    24      0.392847  1 Cl py                77      0.392847  2 Cl py         
    36      0.339168  1 Cl dyz               89     -0.339168  2 Cl dyz        
    20     -0.248518  1 Cl py                40      0.248862  1 Cl dxz        
    73     -0.248518  2 Cl py                93     -0.248862  2 Cl dxz        

 Vector   25  Occ=0.000000D+00  E=-8.942394D-02
              MO Center= -5.4D-08,  1.5D-07,  5.1D-08, r^2= 4.3D+00
   Bfn.  Coefficient  Atom+Function         Bfn.  Coefficient  Atom+Function  
  ----- ------------  ---------------      ----- ------------  ---------------
    40      0.648401  1 Cl dxz               93     -0.648401  2 Cl dxz        
    23      0.386849  1 Cl px                76      0.386849  2 Cl px         
    34      0.346990  1 Cl dxz               87     -0.346990  2 Cl dxz        
    42     -0.250288  1 Cl dyz               95      0.250288  2 Cl dyz        
    19     -0.246729  1 Cl px                72     -0.246729  2 Cl px         

 Vector   26  Occ=0.000000D+00  E=-8.266161D-02
              MO Center=  9.2D-08, -1.5D-07,  1.1D-07, r^2= 2.8D+00
   Bfn.  Coefficient  Atom+Function         Bfn.  Coefficient  Atom+Function  
  ----- ------------  ---------------      ----- ------------  ---------------
    39      0.642262  1 Cl dxy               92      0.642262  2 Cl dxy        
    38      0.302972  1 Cl dxx               41     -0.302968  1 Cl dyy        
    91      0.302972  2 Cl dxx               94     -0.302968  2 Cl dyy        
    33      0.244641  1 Cl dxy               86      0.244641  2 Cl dxy        

 Vector   27  Occ=0.000000D+00  E=-8.185143D-02
              MO Center=  1.8D-07, -5.7D-08,  1.1D-07, r^2= 2.8D+00
   Bfn.  Coefficient  Atom+Function         Bfn.  Coefficient  Atom+Function  
  ----- ------------  ---------------      ----- ------------  ---------------
    39      0.605853  1 Cl dxy               92      0.605853  2 Cl dxy        
    41      0.328971  1 Cl dyy               94      0.328971  2 Cl dyy        
    38     -0.313198  1 Cl dxx               91     -0.313199  2 Cl dxx        
    33      0.230403  1 Cl dxy               86      0.230403  2 Cl dxy        

 Vector   28  Occ=0.000000D+00  E=-7.197037D-02
              MO Center= -2.3D-09,  8.3D-11, -1.7D-08, r^2= 1.2D+01
   Bfn.  Coefficient  Atom+Function         Bfn.  Coefficient  Atom+Function  
  ----- ------------  ---------------      ----- ------------  ---------------
    23      1.555236  1 Cl px                76     -1.555236  2 Cl px         
    24     -0.623395  1 Cl py                77      0.623395  2 Cl py         
    19     -0.405594  1 Cl px                72      0.405594  2 Cl px         
    40     -0.192818  1 Cl dxz               93     -0.192818  2 Cl dxz        
    20      0.162598  1 Cl py                73     -0.162598  2 Cl py         

 Vector   29  Occ=0.000000D+00  E=-7.040382D-02
              MO Center=  2.3D-09,  8.2D-09, -9.3D-08, r^2= 1.2D+01
   Bfn.  Coefficient  Atom+Function         Bfn.  Coefficient  Atom+Function  
  ----- ------------  ---------------      ----- ------------  ---------------
    24      1.551519  1 Cl py                77     -1.551519  2 Cl py         
    23      0.621860  1 Cl px                76     -0.621860  2 Cl px         
    20     -0.401592  1 Cl py                73      0.401592  2 Cl py         
    42     -0.192917  1 Cl dyz               95     -0.192917  2 Cl dyz        
    19     -0.160939  1 Cl px                72      0.160939  2 Cl px         

 Vector   30  Occ=0.000000D+00  E=-1.391686D-02
              MO Center=  2.3D-09,  1.6D-08, -4.8D-08, r^2= 1.3D+01
   Bfn.  Coefficient  Atom+Function         Bfn.  Coefficient  Atom+Function  
  ----- ------------  ---------------      ----- ------------  ---------------
    22     12.168686  1 Cl s                 75    -12.168686  2 Cl s          
    25      5.076254  1 Cl pz                78      5.076254  2 Cl pz         
     6     -0.473801  1 Cl s                 59      0.473801  2 Cl s          
    43     -0.379359  1 Cl dzz               96      0.379359  2 Cl dzz        
     5     -0.209119  1 Cl s                 58      0.209119  2 Cl s          

 Vector   31  Occ=0.000000D+00  E= 3.589975D-02
              MO Center= -1.2D-08,  4.0D-08,  5.5D-08, r^2= 8.9D+00
   Bfn.  Coefficient  Atom+Function         Bfn.  Coefficient  Atom+Function  
  ----- ------------  ---------------      ----- ------------  ---------------
    25      1.384320  1 Cl pz                78     -1.384320  2 Cl pz         
    21     -0.738531  1 Cl pz                74      0.738531  2 Cl pz         
    41     -0.480058  1 Cl dyy               94     -0.480058  2 Cl dyy        
    38     -0.473768  1 Cl dxx               91     -0.473768  2 Cl dxx        
    22      0.366536  1 Cl s                 75      0.366537  2 Cl s          

 Vector   32  Occ=0.000000D+00  E= 4.706545D-02
              MO Center= -4.5D-09,  8.4D-09, -1.1D-07, r^2= 3.1D+00
   Bfn.  Coefficient  Atom+Function         Bfn.  Coefficient  Atom+Function  
  ----- ------------  ---------------      ----- ------------  ---------------
    39      0.823881  1 Cl dxy               92     -0.823881  2 Cl dxy        
    38      0.388639  1 Cl dxx               41     -0.388640  1 Cl dyy        
    91     -0.388639  2 Cl dxx               94      0.388640  2 Cl dyy        
    33      0.293262  1 Cl dxy               86     -0.293262  2 Cl dxy        

 Vector   33  Occ=0.000000D+00  E= 4.826497D-02
              MO Center= -9.5D-09,  4.0D-09, -1.2D-07, r^2= 3.1D+00
   Bfn.  Coefficient  Atom+Function         Bfn.  Coefficient  Atom+Function  
  ----- ------------  ---------------      ----- ------------  ---------------
    39      0.777337  1 Cl dxy               92     -0.777336  2 Cl dxy        
    41      0.414860  1 Cl dyy               94     -0.414860  2 Cl dyy        
    38     -0.409082  1 Cl dxx               91      0.409082  2 Cl dxx        
    33      0.276542  1 Cl dxy               86     -0.276542  2 Cl dxy        

 Vector   34  Occ=0.000000D+00  E= 1.435097D-01
              MO Center= -1.3D-08,  1.2D-08,  3.2D-07, r^2= 1.2D+01
   Bfn.  Coefficient  Atom+Function         Bfn.  Coefficient  Atom+Function  
  ----- ------------  ---------------      ----- ------------  ---------------
    21      4.778211  1 Cl pz                74      4.778211  2 Cl pz         
     6      1.925677  1 Cl s                 59     -1.925678  2 Cl s          
    22      1.656691  1 Cl s                 75     -1.656692  2 Cl s          
    43      1.437726  1 Cl dzz               96     -1.437726  2 Cl dzz        
    25     -0.952891  1 Cl pz                78     -0.952891  2 Cl pz         

 Vector   35  Occ=0.000000D+00  E= 1.664867D-01
              MO Center= -8.0D-07,  8.9D-07, -3.1D-07, r^2= 8.6D+00
   Bfn.  Coefficient  Atom+Function         Bfn.  Coefficient  Atom+Function  
  ----- ------------  ---------------      ----- ------------  ---------------
     6      1.238271  1 Cl s                 59      1.238270  2 Cl s          
    22      1.213393  1 Cl s                 75      1.213395  2 Cl s          
    43     -1.034081  1 Cl dzz               96     -1.034082  2 Cl dzz        
    38     -0.958399  1 Cl dxx               91     -0.958400  2 Cl dxx        
    41     -0.952777  1 Cl dyy               94     -0.952778  2 Cl dyy        

 Vector   36  Occ=0.000000D+00  E= 1.702231D-01
              MO Center=  4.3D-08, -1.8D-08, -5.5D-07, r^2= 6.7D+00
   Bfn.  Coefficient  Atom+Function         Bfn.  Coefficient  Atom+Function  
  ----- ------------  ---------------      ----- ------------  ---------------
    23      1.294574  1 Cl px                76     -1.294573  2 Cl px         
    16      1.074393  1 Cl px                69     -1.074392  2 Cl px         
    40      1.049474  1 Cl dxz               93      1.049473  2 Cl dxz        
    19     -1.000207  1 Cl px                72      1.000207  2 Cl px         
    24     -0.519593  1 Cl py                77      0.519593  2 Cl py         

 Vector   37  Occ=0.000000D+00  E= 1.710035D-01
              MO Center= -6.5D-10, -7.3D-09,  1.2D-07, r^2= 6.8D+00
   Bfn.  Coefficient  Atom+Function         Bfn.  Coefficient  Atom+Function  
  ----- ------------  ---------------      ----- ------------  ---------------
    24      1.308100  1 Cl py                77     -1.308100  2 Cl py         
    17      1.089136  1 Cl py                70     -1.089136  2 Cl py         
    42      1.036470  1 Cl dyz               95      1.036470  2 Cl dyz        
    20     -1.021597  1 Cl py                73      1.021597  2 Cl py         
    23      0.524910  1 Cl px                76     -0.524910  2 Cl px         

 Vector   38  Occ=0.000000D+00  E= 1.756230D-01
              MO Center= -1.8D-07, -5.0D-07, -1.2D-07, r^2= 7.8D+00
   Bfn.  Coefficient  Atom+Function         Bfn.  Coefficient  Atom+Function  
  ----- ------------  ---------------      ----- ------------  ---------------
    17      1.588917  1 Cl py                70      1.588917  2 Cl py         
    20     -1.549830  1 Cl py                73     -1.549830  2 Cl py         
    24      0.857588  1 Cl py                77      0.857588  2 Cl py         
    16      0.618084  1 Cl px                69      0.618083  2 Cl px         
    19     -0.602893  1 Cl px                72     -0.602893  2 Cl px         

 Vector   39  Occ=0.000000D+00  E= 1.780390D-01
              MO Center=  9.8D-07, -3.9D-07,  6.0D-07, r^2= 7.8D+00
   Bfn.  Coefficient  Atom+Function         Bfn.  Coefficient  Atom+Function  
  ----- ------------  ---------------      ----- ------------  ---------------
    16      1.582565  1 Cl px                69      1.582566  2 Cl px         
    19     -1.549164  1 Cl px                72     -1.549164  2 Cl px         
    23      0.854874  1 Cl px                76      0.854874  2 Cl px         
    17     -0.615614  1 Cl py                70     -0.615615  2 Cl py         
    20      0.602606  1 Cl py                73      0.602607  2 Cl py         

 Vector   40  Occ=0.000000D+00  E= 2.429443D-01
              MO Center= -1.2D-07,  1.2D-07, -5.2D-08, r^2= 6.6D+00
   Bfn.  Coefficient  Atom+Function         Bfn.  Coefficient  Atom+Function  
  ----- ------------  ---------------      ----- ------------  ---------------
    22     10.453496  1 Cl s                 75    -10.453496  2 Cl s          
    25      3.906698  1 Cl pz                78      3.906698  2 Cl pz         
    38     -1.183475  1 Cl dxx               41     -1.187605  1 Cl dyy        
    91      1.183475  2 Cl dxx               94      1.187605  2 Cl dyy        
     6      0.951154  1 Cl s                 59     -0.951154  2 Cl s          

 Vector   41  Occ=0.000000D+00  E= 2.830816D-01
              MO Center= -1.2D-08, -5.5D-08, -2.6D-08, r^2= 5.7D+00
   Bfn.  Coefficient  Atom+Function         Bfn.  Coefficient  Atom+Function  
  ----- ------------  ---------------      ----- ------------  ---------------
    20      2.328944  1 Cl py                73     -2.328944  2 Cl py         
    42      1.479671  1 Cl dyz               95      1.479671  2 Cl dyz        
    24     -1.215538  1 Cl py                77      1.215538  2 Cl py         
    17     -1.192614  1 Cl py                70      1.192613  2 Cl py         
    19      0.916574  1 Cl px                72     -0.916574  2 Cl px         

 Vector   42  Occ=0.000000D+00  E= 2.836037D-01
              MO Center=  1.3D-07, -5.7D-08, -9.8D-08, r^2= 5.7D+00
   Bfn.  Coefficient  Atom+Function         Bfn.  Coefficient  Atom+Function  
  ----- ------------  ---------------      ----- ------------  ---------------
    19      2.336486  1 Cl px                72     -2.336486  2 Cl px         
    40      1.466519  1 Cl dxz               93      1.466519  2 Cl dxz        
    23     -1.225015  1 Cl px                76      1.225015  2 Cl px         
    16     -1.200349  1 Cl px                69      1.200349  2 Cl px         
    20     -0.919551  1 Cl py                73      0.919551  2 Cl py         

 Vector   43  Occ=0.000000D+00  E= 2.895726D-01
              MO Center=  4.1D-08, -2.9D-08,  6.9D-09, r^2= 5.1D+00
   Bfn.  Coefficient  Atom+Function         Bfn.  Coefficient  Atom+Function  
  ----- ------------  ---------------      ----- ------------  ---------------
    18      2.084938  1 Cl pz                71     -2.084938  2 Cl pz         
    21     -1.895503  1 Cl pz                74      1.895504  2 Cl pz         
     6      1.459001  1 Cl s                 59      1.459001  2 Cl s          
    43     -1.011897  1 Cl dzz               96     -1.011898  2 Cl dzz        
    25      0.977203  1 Cl pz                78     -0.977203  2 Cl pz         

 Vector   44  Occ=0.000000D+00  E= 5.583518D-01
              MO Center= -2.0D-09,  5.3D-09, -2.6D-08, r^2= 7.5D+00
   Bfn.  Coefficient  Atom+Function         Bfn.  Coefficient  Atom+Function  
  ----- ------------  ---------------      ----- ------------  ---------------
    21      6.801729  1 Cl pz                74      6.801729  2 Cl pz         
    43      4.710766  1 Cl dzz               96     -4.710766  2 Cl dzz        
    22     -3.462038  1 Cl s                 75      3.462038  2 Cl s          
     6      2.741526  1 Cl s                 59     -2.741526  2 Cl s          
    25     -2.374460  1 Cl pz                78     -2.374460  2 Cl pz         


   alpha - beta orbital overlaps 
   ----------------------------- 


   alpha      1      2      3      4      5      6      7      8      9     10
    beta      1      2      3      4      5      6      7      8      9     10
 overlap   1.000  1.000  1.000  1.000  1.000  1.000  1.000  1.000  1.000  1.000


   alpha     11     12     13     14     15     16     17     18     19     20
    beta     11     12     13     15     14     17     16     18     19     20
 overlap   1.000  1.000  1.000  0.999  1.000  1.000  1.000  1.000  0.999  0.982


   alpha     21     22     23     24     25     26     27     28     29     30
    beta     21     23     22     24     26     27     25     29     28     30
 overlap   1.000  0.980  1.000  0.981  1.000  0.978  1.000  1.000  1.000  0.998


   alpha     31     32     33     34     35     36     37     38     39     40
    beta     32     33     31     34     37     35     38     36     39     40
 overlap   1.000  0.997  0.998  1.000  0.998  1.000  1.000  1.000  1.000  0.999


   alpha     41     42     43     44     45     46     47     48     49     50
    beta     41     42     43     44     47     46     48     45     49     51
 overlap   0.999  1.000  1.000  0.999  0.751  1.000  1.000  0.751  1.000  0.994


   alpha     51     52     53     54     55     56     57     58     59     60
    beta     50     52     53     54     55     56     57     58     59     60
 overlap   1.000  1.000  1.000  0.995  1.000  1.000  1.000  1.000  1.000  1.000


   alpha     61     62     63     64     65     66     67     68     69     70
    beta     61     62     63     65     64     66     68     67     69     70
 overlap   1.000  1.000  0.999  1.000  1.000  0.999  0.999  0.999  1.000  1.000


   alpha     71     72     73     74     75     76     77     78     79     80
    beta     71     72     73     74     75     76     77     78     79     80
 overlap   1.000  1.000  1.000  1.000  1.000  1.000  1.000  1.000  1.000  1.000


   alpha     81     82     83     84     85     86     87     88     89     90
    beta     81     82     83     84     85     86     87     88     89     90
 overlap   1.000  1.000  1.000  1.000  1.000  0.996  1.000  1.000  0.996  1.000


   alpha     91     92     93     94     95     96     97     98     99    100
    beta     91     92     93     94     95     96     97     98     99    100
 overlap   1.000  1.000  1.000  1.000  1.000  1.000  1.000  1.000  1.000  1.000


   alpha    101    102    103    104    105    106
    beta    101    103    102    104    105    106
 overlap   1.000  1.000  1.000  1.000  1.000  1.000

     --------------------------
     Expectation value of S2:  
     --------------------------
      <S2> =      0.7531 (Exact =     0.7500)


 center of mass
 --------------
 x =   0.00000000 y =   0.00000000 z =   0.00000000

 moments of inertia (a.u.)
 ------------------
         225.624285864098           0.000000000000           0.000000000000
           0.000000000000         225.624285864098           0.000000000000
           0.000000000000           0.000000000000           0.000000000000

     Multipole analysis of the density
     ---------------------------------

     L   x y z        total         alpha         beta         nuclear
     -   - - -        -----         -----         ----         -------
     0   0 0 0      1.000000    -17.000000    -16.000000     34.000000

     1   1 0 0      0.000000      0.000000      0.000000      0.000000
     1   0 1 0     -0.000000     -0.000000     -0.000000      0.000000
     1   0 0 1     -0.000000     -0.000000     -0.000000      0.000000

     2   2 0 0    -16.453846     -8.608323     -7.845523      0.000000
     2   1 1 0      0.441128     -0.045950      0.487078      0.000000
     2   1 0 1     -0.000000     -0.000000     -0.000000      0.000000
     2   0 2 0    -15.518649     -8.705738     -6.812912      0.000000
     2   0 1 1      0.000000      0.000000      0.000000      0.000000
     2   0 0 2     -9.845255    -62.030384    -57.501431    109.686560


------------------------------------------------------------
EAF file 0: "./Cl2+.aoints.0" size=45613056 bytes
------------------------------------------------------------
               write      read    awrite     aread      wait
               -----      ----    ------     -----      ----
     calls:       87         9         0       774       774
   data(b): 4.56e+07  4.72e+06  0.00e+00  4.06e+08
   time(s): 0.00e+00  0.00e+00  0.00e+00  0.00e+00  0.00e+00
rate(mb/s): 0.00e+00  0.00e+00
------------------------------------------------------------


 Parallel integral file used      87 records with       0 large values


 Task  times  cpu:       43.2s     wall:       44.1s


                                NWChem Input Module
                                -------------------


 Summary of allocated global arrays
-----------------------------------
  No active global arrays



                         GA Statistics for process    0
                         ------------------------------

       create   destroy   get      put      acc     scatter   gather  read&inc
calls:  295      295     1.49e+04 9760     3763        0        0      324     
number of processes/call 1.00e+00 1.00e+00 1.00e+00 0.00e+00 0.00e+00
bytes total:             1.66e+08 2.72e+07 9.77e+07 0.00e+00 0.00e+00 2.59e+03
bytes remote:            0.00e+00 0.00e+00 0.00e+00 0.00e+00 0.00e+00 0.00e+00
Max memory consumed for GA by this process: 5842720 bytes

MA_summarize_allocated_blocks: starting scan ...
MA_summarize_allocated_blocks: scan completed: 0 heap blocks, 0 stack blocks
MA usage statistics:

	allocation statistics:
					      heap	     stack
					      ----	     -----
	current number of blocks	         0	         0
	maximum number of blocks	        22	        51
	current total bytes		         0	         0
	maximum total bytes		   3863856	  25265192
	maximum total K-bytes		      3864	     25266
	maximum total M-bytes		         4	        26


                                     CITATION
                                     --------
                Please cite the following reference when publishing
                           results obtained with NWChem:

                 M. Valiev, E.J. Bylaska, N. Govind, K. Kowalski,
              T.P. Straatsma, H.J.J. van Dam, D. Wang, J. Nieplocha,
                        E. Apra, T.L. Windus, W.A. de Jong
                 "NWChem: a comprehensive and scalable open-source
                  solution for large scale molecular simulations"
                      Comput. Phys. Commun. 181, 1477 (2010)
                           doi:10.1016/j.cpc.2010.04.018

                                      AUTHORS
                                      -------
          E. Apra, E. J. Bylaska, W. A. de Jong, N. Govind, K. Kowalski,
       T. P. Straatsma, M. Valiev, H. J. J. van Dam, D. Wang, T. L. Windus,
        J. Hammond, J. Autschbach, K. Bhaskaran-Nair, J. Brabec, K. Lopata,
       S. A. Fischer, S. Krishnamoorthy, W. Ma, M. Klemm, O. Villa, Y. Chen,
    V. Anisimov, F. Aquino, S. Hirata, M. T. Hackler, T. Risthaus, M. Malagoli,
       A. Marenich, A. Otero-de-la-Roza, J. Mullin, P. Nichols, R. Peverati,
     J. Pittner, Y. Zhao, P.-D. Fan, A. Fonari, M. Williamson, R. J. Harrison,
       J. R. Rehr, M. Dupuis, D. Silverstein, D. M. A. Smith, J. Nieplocha,
        V. Tipparaju, M. Krishnan, B. E. Van Kuiken, A. Vazquez-Mayagoitia,
        L. Jensen, M. Swart, Q. Wu, T. Van Voorhis, A. A. Auer, M. Nooijen,
      L. D. Crosby, E. Brown, G. Cisneros, G. I. Fann, H. Fruchtl, J. Garza,
        K. Hirao, R. A. Kendall, J. A. Nichols, K. Tsemekhman, K. Wolinski,
     J. Anchell, D. E. Bernholdt, P. Borowski, T. Clark, D. Clerc, H. Dachsel,
   M. J. O. Deegan, K. Dyall, D. Elwood, E. Glendening, M. Gutowski, A. C. Hess,
         J. Jaffe, B. G. Johnson, J. Ju, R. Kobayashi, R. Kutteh, Z. Lin,
   R. Littlefield, X. Long, B. Meng, T. Nakajima, S. Niu, L. Pollack, M. Rosing,
   K. Glaesemann, G. Sandrone, M. Stave, H. Taylor, G. Thomas, J. H. van Lenthe,
                               A. T. Wong, Z. Zhang.

 Total times  cpu:       43.2s     wall:       44.3s
