[1537883961.549021] [r8n3:28519:0]         sys.c:744  MXM  WARN  Conflicting CPU frequencies detected, using: 2499.99
[1537883961.555635] [r8n3:28519:0]         mxm.c:196  MXM  WARN  The 'ulimit -s' on the system is set to 'unlimited'. This may have negative performance implications. Please set the stack size to the default value (10240) 
[1537883961.557977] [r8n3:28519:0]         mxm.c:196  MXM  WARN  The 'ulimit -s' on the system is set to 'unlimited'. This may have negative performance implications. Please set the stack size to the default value (10240) 
 argument  1 = /storage/home/bikashp/nwchem_run/rabeet/ip13g2/nwrevtpss/O+.nw
                                         
                                         


              Northwest Computational Chemistry Package (NWChem) 6.6
              ------------------------------------------------------


                    Environmental Molecular Sciences Laboratory
                       Pacific Northwest National Laboratory
                                Richland, WA 99352

                              Copyright (c) 1994-2015
                       Pacific Northwest National Laboratory
                            Battelle Memorial Institute

             NWChem is an open-source computational chemistry package
                        distributed under the terms of the
                      Educational Community License (ECL) 2.0
             A copy of the license is included with this distribution
                              in the LICENSE.TXT file

                                  ACKNOWLEDGMENT
                                  --------------

            This software and its documentation were developed at the
            EMSL at Pacific Northwest National Laboratory, a multiprogram
            national laboratory, operated for the U.S. Department of Energy
            by Battelle under Contract Number DE-AC05-76RL01830. Support
            for this work was provided by the Department of Energy Office
            of Biological and Environmental Research, Office of Basic
            Energy Sciences, and the Office of Advanced Scientific Computing.


           Job information
           ---------------

    hostname        = r8n3.niserhpc.org
    program         = /home/bikashp/Code/nwchem-6.6_revtpss/bin/LINUX64/nwchem
    date            = Tue Sep 25 19:29:21 2018

    compiled        = Tue_Sep_25_17:05:19_2018
    source          = /home/bikashp/Code/nwchem-6.6_revtpss
    nwchem branch   = 6.6
    nwchem revision = 27746
    ga revision     = 10594
    input           = /storage/home/bikashp/nwchem_run/rabeet/ip13g2/nwrevtpss/O+.nw
    prefix          = O+.
    data base       = ./O+.db
    status          = startup
    nproc           =        1
    time left       =     -1s



           Memory information
           ------------------

    heap     =   13107196 doubles =    100.0 Mbytes
    stack    =   13107201 doubles =    100.0 Mbytes
    global   =   26214400 doubles =    200.0 Mbytes (distinct from heap & stack)
    total    =   52428797 doubles =    400.0 Mbytes
    verify   = yes
    hardfail = no 


           Directory information
           ---------------------

  0 permanent = .
  0 scratch   = .




                                NWChem Input Module
                                -------------------



 Scaling coordinates for geometry "geometry" by  1.889725989
 (inverse scale =  0.529177249)



                             Geometry "geometry" -> ""
                             -------------------------

 Output coordinates in angstroms (scale by  1.889725989 to convert to a.u.)

  No.       Tag          Charge          X              Y              Z
 ---- ---------------- ---------- -------------- -------------- --------------
    1 O                    8.0000     0.00000000     0.00000000     0.00000000

      Atomic Mass 
      ----------- 

      O                 15.994910


 Effective nuclear repulsion energy (a.u.)       0.0000000000

            Nuclear Dipole moment (a.u.) 
            ----------------------------
        X                 Y               Z
 ---------------- ---------------- ----------------
     0.0000000000     0.0000000000     0.0000000000


            XYZ format geometry
            -------------------
     1
 geometry
 O                     0.00000000     0.00000000     0.00000000



 Summary of "ao basis" -> "" (cartesian)
 ------------------------------------------------------------------------------
       Tag                 Description            Shells   Functions and Types
 ---------------- ------------------------------  ------  ---------------------
 *                     6-311++G(3df,3pd)              on all atoms 



                                 NWChem DFT Module
                                 -----------------


                      Basis "ao basis" -> "ao basis" (cartesian)
                      -----
  O (Oxygen)
  ----------
            Exponent  Coefficients 
       -------------- ---------------------------------------------------------
  1 S  8.58850000E+03  0.001895
  1 S  1.29723000E+03  0.014386
  1 S  2.99296000E+02  0.070732
  1 S  8.73771000E+01  0.240001
  1 S  2.56789000E+01  0.594797
  1 S  3.74004000E+00  0.280802

  2 S  4.21175000E+01  0.113889
  2 S  9.62837000E+00  0.920811
  2 S  2.85332000E+00 -0.003274

  3 P  4.21175000E+01  0.036511
  3 P  9.62837000E+00  0.237153
  3 P  2.85332000E+00  0.819702

  4 S  9.05661000E-01  1.000000

  5 P  9.05661000E-01  1.000000

  6 S  2.55611000E-01  1.000000

  7 P  2.55611000E-01  1.000000

  8 S  8.45000000E-02  1.000000

  9 P  8.45000000E-02  1.000000

 10 D  5.16000000E+00  1.000000

 11 D  1.29200000E+00  1.000000

 12 D  3.22500000E-01  1.000000

 13 F  1.40000000E+00  1.000000



 Summary of "ao basis" -> "ao basis" (cartesian)
 ------------------------------------------------------------------------------
       Tag                 Description            Shells   Functions and Types
 ---------------- ------------------------------  ------  ---------------------
 O                     6-311++G(3df,3pd)            13       45   5s4p3d1f




 Summary of "ao basis" -> "ao basis" (cartesian)
 ------------------------------------------------------------------------------
       Tag                 Description            Shells   Functions and Types
 ---------------- ------------------------------  ------  ---------------------
 O                     6-311++G(3df,3pd)            13       45   5s4p3d1f


  Caching 1-el integrals 

            General Information
            -------------------
          SCF calculation type: DFT
          Wavefunction type:  spin polarized.
          No. of atoms     :     1
          No. of electrons :     7
           Alpha electrons :     5
            Beta electrons :     2
          Charge           :     1
          Spin multiplicity:     4
          Use of symmetry is: off; symmetry adaption is: off
          Maximum number of iterations: ***
          AO basis - number of functions:    45
                     number of shells:    13
          Convergence on energy requested: 1.00D-06
          Convergence on density requested: 1.00D-05
          Convergence on gradient requested: 5.00D-04

              XC Information
              --------------
                  TPSS metaGGA Exchange Functional  1.000          
             TPSS03 metaGGA Correlation Functional  1.000          

             Grid Information
             ----------------
          Grid used for XC integration:  medium    
          Radial quadrature: Mura-Knowles        
          Angular quadrature: Lebedev. 
          Tag              B.-S. Rad. Rad. Pts. Rad. Cut. Ang. Pts.
          ---              ---------- --------- --------- ---------
          O                   0.60       49           6.0       434
          Grid pruning is: on 
          Number of quadrature shells:    49
          Spatial weights used:  Erf1

          Convergence Information
          -----------------------
          Convergence aids based upon iterative change in 
          total energy or number of iterations. 
          Levelshifting, if invoked, occurs when the 
          HOMO/LUMO gap drops below (HL_TOL): 1.00D-02
          DIIS, if invoked, will attempt to extrapolate 
          using up to (NFOCK): 10 stored Fock matrices.

                    Damping( 0%)  Levelshifting(0.5)       DIIS
                  --------------- ------------------- ---------------
          dE  on:    start            ASAP                start   
          dE off:    2 iters        *** iters           *** iters 


      Screening Tolerance Information
      -------------------------------
          Density screening/tol_rho: 1.00D-10
          AO Gaussian exp screening on grid/accAOfunc:  14
          CD Gaussian exp screening on grid/accCDfunc:  20
          XC Gaussian exp screening on grid/accXCfunc:  20
          Schwarz screening/accCoul: 1.00D-08


      Superposition of Atomic Density Guess
      -------------------------------------

 Sum of atomic energies:         -74.77778571

 Renormalizing density from       8.00 to      7

      Non-variational initial energy
      ------------------------------

 Total energy =     -68.155845
 1-e energy   =     -90.302244
 2-e energy   =      22.146399
 HOMO         =      -1.141715
 LUMO         =      -1.141715

   Time after variat. SCF:      0.2
   Time prior to 1st pass:      0.2

 Integral file          = ./O+.aoints.0
 Record size in doubles =    65536    No. of integs per rec  =    43688
 Max. records in memory =       19    Max. records in file   = ********
 No. of bits per label  =        8    No. of bits per value  =       64


 #quartets = 4.186D+03 #integrals = 9.141D+04 #direct =  0.0% #cached =100.0%


 Grid_pts file          = ./O+.gridpts.0
 Record size in doubles =  12289        No. of grid_pts per rec  =   3070
 Max. records in memory =      9        Max. recs in file   = 995336759


           Memory utilization after 1st SCF pass: 
           Heap Space remaining (MW):       11.75            11749124
          Stack Space remaining (MW):       13.11            13106724

   convergence    iter        energy       DeltaE   RMS-Dens  Diis-err    time
 ---------------- ----- ----------------- --------- --------- ---------  ------
 d= 0,ls=0.0,diis     1    -74.5444626361 -7.45D+01  3.61D-03  2.07D-01     0.6
                                                     5.35D-03  1.16D-01
 d= 0,ls=0.0,diis     2    -74.5583514162 -1.39D-02  1.25D-03  1.29D-02     0.9
                                                     3.94D-04  3.29D-03
 d= 0,ls=0.0,diis     3    -74.5601955176 -1.84D-03  2.82D-04  7.46D-04     1.1
                                                     3.11D-04  3.30D-04
 d= 0,ls=0.0,diis     4    -74.5603271461 -1.32D-04  1.82D-05  2.80D-06     1.4
                                                     2.95D-05  6.51D-07
 d= 0,ls=0.0,diis     5    -74.5603295658 -2.42D-06  8.21D-07  4.20D-09     1.7
                                                     8.82D-07  7.33D-10
 d= 0,ls=0.0,diis     6    -74.5603296297 -6.39D-08  1.16D-08  5.03D-13     1.9
                                                     4.17D-09  1.55D-13


         Total DFT energy =      -74.560329629732
      One electron energy =      -98.420366903828
           Coulomb energy =       31.946892152004
          Exchange energy =       -7.885900740431
       Correlation energy =       -0.200954137477
 Nuclear repulsion energy =        0.000000000000

 Numeric. integr. density =        6.999999998535

     Total iterative time =      1.8s



                    DFT Final Alpha Molecular Orbital Analysis
                    ------------------------------------------

 Vector    1  Occ=1.000000D+00  E=-1.974935D+01
              MO Center= -5.1D-17, -1.1D-16, -7.8D-17, r^2= 1.5D-02
   Bfn.  Coefficient  Atom+Function         Bfn.  Coefficient  Atom+Function  
  ----- ------------  ---------------      ----- ------------  ---------------
     1      0.551247  1 O  s                  2      0.470512  1 O  s          

 Vector    2  Occ=1.000000D+00  E=-1.563179D+00
              MO Center=  5.9D-15, -4.7D-15,  4.7D-15, r^2= 3.8D-01
   Bfn.  Coefficient  Atom+Function         Bfn.  Coefficient  Atom+Function  
  ----- ------------  ---------------      ----- ------------  ---------------
     6      0.740475  1 O  s                 10      0.643799  1 O  s          
     2     -0.248070  1 O  s          

 Vector    3  Occ=1.000000D+00  E=-9.763290D-01
              MO Center= -3.0D-15, -2.2D-15,  4.6D-16, r^2= 4.2D-01
   Bfn.  Coefficient  Atom+Function         Bfn.  Coefficient  Atom+Function  
  ----- ------------  ---------------      ----- ------------  ---------------
     7      0.459245  1 O  px                 3      0.300179  1 O  px         
    11      0.260457  1 O  px                 8      0.228165  1 O  py         
     9      0.194686  1 O  pz         

 Vector    4  Occ=1.000000D+00  E=-9.763290D-01
              MO Center=  2.2D-15, -9.5D-16, -5.4D-16, r^2= 4.2D-01
   Bfn.  Coefficient  Atom+Function         Bfn.  Coefficient  Atom+Function  
  ----- ------------  ---------------      ----- ------------  ---------------
     9      0.497002  1 O  pz                 5      0.324859  1 O  pz         
    13      0.281870  1 O  pz                 7     -0.229096  1 O  px         

 Vector    5  Occ=1.000000D+00  E=-9.763290D-01
              MO Center= -2.7D-15,  7.0D-15, -1.6D-15, r^2= 4.2D-01
   Bfn.  Coefficient  Atom+Function         Bfn.  Coefficient  Atom+Function  
  ----- ------------  ---------------      ----- ------------  ---------------
     8      0.497429  1 O  py                 4      0.325138  1 O  py         
    12      0.282113  1 O  py                 7     -0.193590  1 O  px         

 Vector    6  Occ=0.000000D+00  E=-2.187125D-01
              MO Center=  3.1D-14, -1.0D-14,  7.7D-15, r^2= 3.7D+00
   Bfn.  Coefficient  Atom+Function         Bfn.  Coefficient  Atom+Function  
  ----- ------------  ---------------      ----- ------------  ---------------
    14      1.510498  1 O  s                 10     -0.404508  1 O  s          
     6     -0.374343  1 O  s          

 Vector    7  Occ=0.000000D+00  E=-1.290281D-01
              MO Center= -1.5D-14, -1.3D-15,  1.5D-14, r^2= 4.5D+00
   Bfn.  Coefficient  Atom+Function         Bfn.  Coefficient  Atom+Function  
  ----- ------------  ---------------      ----- ------------  ---------------
    15      0.894262  1 O  px                17     -0.648137  1 O  pz         
     7     -0.153664  1 O  px         

 Vector    8  Occ=0.000000D+00  E=-1.290281D-01
              MO Center= -2.8D-15, -8.1D-15, -7.8D-15, r^2= 4.5D+00
   Bfn.  Coefficient  Atom+Function         Bfn.  Coefficient  Atom+Function  
  ----- ------------  ---------------      ----- ------------  ---------------
    17      0.723848  1 O  pz                16      0.700110  1 O  py         
    15      0.460788  1 O  px         

 Vector    9  Occ=0.000000D+00  E=-1.290281D-01
              MO Center= -9.2D-15,  2.0D-14, -1.4D-14, r^2= 4.5D+00
   Bfn.  Coefficient  Atom+Function         Bfn.  Coefficient  Atom+Function  
  ----- ------------  ---------------      ----- ------------  ---------------
    16      0.854185  1 O  py                17     -0.531411  1 O  pz         
    15     -0.463038  1 O  px         

 Vector   10  Occ=0.000000D+00  E= 3.106863D-01
              MO Center=  2.0D-15, -1.7D-15, -8.8D-16, r^2= 1.5D+00
   Bfn.  Coefficient  Atom+Function         Bfn.  Coefficient  Atom+Function  
  ----- ------------  ---------------      ----- ------------  ---------------
    33      0.883961  1 O  dyy               35     -0.605330  1 O  dzz        
    32      0.532933  1 O  dxz               31     -0.334083  1 O  dxy        
    30     -0.278631  1 O  dxx        

 Vector   11  Occ=0.000000D+00  E= 3.106863D-01
              MO Center= -6.5D-15,  1.6D-15, -1.5D-15, r^2= 1.5D+00
   Bfn.  Coefficient  Atom+Function         Bfn.  Coefficient  Atom+Function  
  ----- ------------  ---------------      ----- ------------  ---------------
    31      1.028306  1 O  dxy               32      0.939762  1 O  dxz        
    34     -0.697102  1 O  dyz               35      0.329419  1 O  dzz        
    30     -0.325654  1 O  dxx        

 Vector   12  Occ=0.000000D+00  E= 3.106863D-01
              MO Center=  6.2D-15,  5.0D-15, -1.8D-15, r^2= 1.5D+00
   Bfn.  Coefficient  Atom+Function         Bfn.  Coefficient  Atom+Function  
  ----- ------------  ---------------      ----- ------------  ---------------
    31      0.862838  1 O  dxy               32     -0.850765  1 O  dxz        
    34     -0.720542  1 O  dyz               35     -0.520632  1 O  dzz        
    30      0.377619  1 O  dxx        

 Vector   13  Occ=0.000000D+00  E= 3.106863D-01
              MO Center=  1.4D-15,  3.9D-16,  2.2D-15, r^2= 1.5D+00
   Bfn.  Coefficient  Atom+Function         Bfn.  Coefficient  Atom+Function  
  ----- ------------  ---------------      ----- ------------  ---------------
    34      1.347761  1 O  dyz               31      0.942027  1 O  dxy        
    35     -0.198727  1 O  dzz               32      0.182154  1 O  dxz        

 Vector   14  Occ=0.000000D+00  E= 3.106863D-01
              MO Center=  4.5D-15,  1.7D-16,  2.9D-15, r^2= 1.5D+00
   Bfn.  Coefficient  Atom+Function         Bfn.  Coefficient  Atom+Function  
  ----- ------------  ---------------      ----- ------------  ---------------
    32      0.965158  1 O  dxz               30      0.783888  1 O  dxx        
    35     -0.407925  1 O  dzz               33     -0.375964  1 O  dyy        
    31     -0.233994  1 O  dxy               34     -0.157906  1 O  dyz        

 Vector   15  Occ=0.000000D+00  E= 3.624188D-01
              MO Center=  4.4D-14,  8.2D-15, -1.9D-15, r^2= 3.4D+00
   Bfn.  Coefficient  Atom+Function         Bfn.  Coefficient  Atom+Function  
  ----- ------------  ---------------      ----- ------------  ---------------
    14      1.936635  1 O  s                 10      1.744344  1 O  s          
    30     -1.541070  1 O  dxx               33     -1.541070  1 O  dyy        
    35     -1.541070  1 O  dzz               24     -0.320607  1 O  dxx        
    27     -0.320607  1 O  dyy               29     -0.320607  1 O  dzz        
     2     -0.234057  1 O  s          

 Vector   16  Occ=0.000000D+00  E= 5.080015D-01
              MO Center= -1.1D-14,  1.2D-14, -6.4D-15, r^2= 2.6D+00
   Bfn.  Coefficient  Atom+Function         Bfn.  Coefficient  Atom+Function  
  ----- ------------  ---------------      ----- ------------  ---------------
    12      1.394270  1 O  py                11     -0.882452  1 O  px         
    16     -0.793290  1 O  py                 8     -0.535915  1 O  py         
    15      0.502084  1 O  px                13     -0.386711  1 O  pz         
     7      0.339188  1 O  px                 4     -0.223361  1 O  py         
    17      0.220025  1 O  pz         


                     DFT Final Beta Molecular Orbital Analysis
                     -----------------------------------------

 Vector    1  Occ=1.000000D+00  E=-1.966597D+01
              MO Center=  7.9D-17, -7.2D-17, -4.6D-17, r^2= 1.5D-02
   Bfn.  Coefficient  Atom+Function         Bfn.  Coefficient  Atom+Function  
  ----- ------------  ---------------      ----- ------------  ---------------
     1      0.553178  1 O  s                  2      0.469211  1 O  s          

 Vector    2  Occ=1.000000D+00  E=-1.323570D+00
              MO Center=  4.3D-16, -1.9D-17, -1.6D-15, r^2= 4.2D-01
   Bfn.  Coefficient  Atom+Function         Bfn.  Coefficient  Atom+Function  
  ----- ------------  ---------------      ----- ------------  ---------------
    10      0.667748  1 O  s                  6      0.651902  1 O  s          
     2     -0.227996  1 O  s          

 Vector    3  Occ=0.000000D+00  E=-7.255499D-01
              MO Center=  4.7D-16, -4.9D-17, -1.0D-15, r^2= 5.3D-01
   Bfn.  Coefficient  Atom+Function         Bfn.  Coefficient  Atom+Function  
  ----- ------------  ---------------      ----- ------------  ---------------
     8      0.331402  1 O  py                12      0.302615  1 O  py         
     7     -0.260473  1 O  px                 4      0.258898  1 O  py         
    11     -0.237847  1 O  px                 3     -0.203487  1 O  px         

 Vector    4  Occ=0.000000D+00  E=-7.255499D-01
              MO Center=  5.9D-16,  1.3D-15, -1.6D-15, r^2= 5.3D-01
   Bfn.  Coefficient  Atom+Function         Bfn.  Coefficient  Atom+Function  
  ----- ------------  ---------------      ----- ------------  ---------------
     7      0.340628  1 O  px                11      0.311039  1 O  px         
     3      0.266105  1 O  px                 8      0.224591  1 O  py         
    12      0.205083  1 O  py                 4      0.175456  1 O  py         

 Vector    5  Occ=0.000000D+00  E=-7.255499D-01
              MO Center= -9.4D-16,  3.0D-16, -2.1D-15, r^2= 5.3D-01
   Bfn.  Coefficient  Atom+Function         Bfn.  Coefficient  Atom+Function  
  ----- ------------  ---------------      ----- ------------  ---------------
     9      0.395876  1 O  pz                13      0.361489  1 O  pz         
     5      0.309267  1 O  pz                 8      0.164788  1 O  py         
    12      0.150474  1 O  py         

 Vector    6  Occ=0.000000D+00  E=-1.770266D-01
              MO Center=  1.4D-15, -6.3D-15,  1.1D-15, r^2= 3.9D+00
   Bfn.  Coefficient  Atom+Function         Bfn.  Coefficient  Atom+Function  
  ----- ------------  ---------------      ----- ------------  ---------------
    14      1.588395  1 O  s                 10     -0.439138  1 O  s          
     6     -0.331444  1 O  s          

 Vector    7  Occ=0.000000D+00  E=-8.895510D-02
              MO Center= -6.6D-16,  1.9D-15,  2.5D-15, r^2= 4.7D+00
   Bfn.  Coefficient  Atom+Function         Bfn.  Coefficient  Atom+Function  
  ----- ------------  ---------------      ----- ------------  ---------------
    17      0.983056  1 O  pz                16      0.592858  1 O  py         
    13     -0.254033  1 O  pz                15      0.178423  1 O  px         
    12     -0.153201  1 O  py         

 Vector    8  Occ=0.000000D+00  E=-8.895510D-02
              MO Center= -6.9D-15,  7.2D-16, -2.2D-15, r^2= 4.7D+00
   Bfn.  Coefficient  Atom+Function         Bfn.  Coefficient  Atom+Function  
  ----- ------------  ---------------      ----- ------------  ---------------
    15      1.115899  1 O  px                16     -0.323149  1 O  py         
    11     -0.288361  1 O  px                 7     -0.155801  1 O  px         

 Vector    9  Occ=0.000000D+00  E=-8.895510D-02
              MO Center=  3.4D-15,  4.2D-15, -3.0D-15, r^2= 4.7D+00
   Bfn.  Coefficient  Atom+Function         Bfn.  Coefficient  Atom+Function  
  ----- ------------  ---------------      ----- ------------  ---------------
    16      0.945415  1 O  py                17     -0.619077  1 O  pz         
    15      0.269535  1 O  px                12     -0.244306  1 O  py         
    13      0.159976  1 O  pz         

 Vector   10  Occ=0.000000D+00  E= 3.847306D-01
              MO Center= -8.7D-16, -8.4D-16, -4.2D-15, r^2= 1.5D+00
   Bfn.  Coefficient  Atom+Function         Bfn.  Coefficient  Atom+Function  
  ----- ------------  ---------------      ----- ------------  ---------------
    31      1.170219  1 O  dxy               32      0.876894  1 O  dxz        
    30     -0.516042  1 O  dxx               35      0.317910  1 O  dzz        
    33      0.198132  1 O  dyy        

 Vector   11  Occ=0.000000D+00  E= 3.847306D-01
              MO Center=  2.1D-15, -3.3D-15, -2.9D-15, r^2= 1.5D+00
   Bfn.  Coefficient  Atom+Function         Bfn.  Coefficient  Atom+Function  
  ----- ------------  ---------------      ----- ------------  ---------------
    33      0.851505  1 O  dyy               31     -0.656077  1 O  dxy        
    35     -0.489869  1 O  dzz               32      0.430201  1 O  dxz        
    34      0.380768  1 O  dyz               30     -0.361636  1 O  dxx        

 Vector   12  Occ=0.000000D+00  E= 3.847306D-01
              MO Center= -1.4D-15,  1.5D-15, -7.6D-16, r^2= 1.5D+00
   Bfn.  Coefficient  Atom+Function         Bfn.  Coefficient  Atom+Function  
  ----- ------------  ---------------      ----- ------------  ---------------
    32      1.147553  1 O  dxz               34     -1.019134  1 O  dyz        
    31     -0.654829  1 O  dxy               33     -0.217587  1 O  dyy        
    30      0.189064  1 O  dxx        

 Vector   13  Occ=0.000000D+00  E= 3.847306D-01
              MO Center=  1.5D-15,  1.9D-15, -1.4D-14, r^2= 1.5D+00
   Bfn.  Coefficient  Atom+Function         Bfn.  Coefficient  Atom+Function  
  ----- ------------  ---------------      ----- ------------  ---------------
    34      1.197832  1 O  dyz               31     -0.611310  1 O  dxy        
    32      0.567484  1 O  dxz               35      0.491167  1 O  dzz        
    33     -0.401985  1 O  dyy        

 Vector   14  Occ=0.000000D+00  E= 3.847306D-01
              MO Center=  1.8D-15,  1.9D-15, -2.5D-15, r^2= 1.5D+00
   Bfn.  Coefficient  Atom+Function         Bfn.  Coefficient  Atom+Function  
  ----- ------------  ---------------      ----- ------------  ---------------
    30      0.737062  1 O  dxx               35     -0.633201  1 O  dzz        
    32      0.599323  1 O  dxz               31      0.591412  1 O  dxy        
    34      0.577217  1 O  dyz        

 Vector   15  Occ=0.000000D+00  E= 4.243659D-01
              MO Center=  3.3D-15, -5.5D-15, -2.3D-14, r^2= 3.4D+00
   Bfn.  Coefficient  Atom+Function         Bfn.  Coefficient  Atom+Function  
  ----- ------------  ---------------      ----- ------------  ---------------
    10      2.141651  1 O  s                 14      1.904885  1 O  s          
    30     -1.657631  1 O  dxx               33     -1.657631  1 O  dyy        
    35     -1.657631  1 O  dzz               24     -0.334426  1 O  dxx        
    27     -0.334426  1 O  dyy               29     -0.334426  1 O  dzz        
     2     -0.235709  1 O  s          

 Vector   16  Occ=0.000000D+00  E= 6.154574D-01
              MO Center= -6.9D-15,  1.0D-15,  8.1D-15, r^2= 2.4D+00
   Bfn.  Coefficient  Atom+Function         Bfn.  Coefficient  Atom+Function  
  ----- ------------  ---------------      ----- ------------  ---------------
    12      1.519928  1 O  py                16     -0.818878  1 O  py         
     8     -0.570751  1 O  py                13     -0.564448  1 O  pz         
    11     -0.431133  1 O  px                17      0.304102  1 O  pz         
     4     -0.265536  1 O  py                15      0.232278  1 O  px         
     9      0.211957  1 O  pz                 7      0.161896  1 O  px         


   alpha - beta orbital overlaps 
   ----------------------------- 


   alpha      1      2      3      4      5      6      7      8      9     10
    beta      1      2      4      5      3      6      8      7      9     11
 overlap   1.000  0.999  0.752  0.793  0.954  0.998  0.756  0.935  0.783  0.934


   alpha     11     12     13     14     15     16     17     18     19     20
    beta     10     13     14     14     15     16     17     18     19     23
 overlap   0.891  0.884  0.631  0.723  0.997  0.952  0.882  0.925  0.998  0.886


   alpha     21     22     23     24     25     26     27     28     29     30
    beta     22     20     22     24     25     26     27     32     30     29
 overlap   0.749  0.661  0.613  0.871  0.819  0.983  0.807  0.527  0.781  0.571


   alpha     31     32     33     34     35     36     37     38     39     40
    beta     29     28     34     33     35     38     40     40     39     36
 overlap   0.679  0.772  0.881  0.881  0.999  0.842  0.639  0.593  0.809  0.745


   alpha     41     42     43     44     45
    beta     42     41     43     44     45
 overlap   0.875  0.876  0.999  1.000  1.000

     --------------------------
     Expectation value of S2:  
     --------------------------
      <S2> =      3.7523 (Exact =     3.7500)


 Parallel integral file used       3 records with       0 large values


 Task  times  cpu:        1.9s     wall:        2.3s


                                NWChem Input Module
                                -------------------


 Summary of allocated global arrays
-----------------------------------
  No active global arrays



                         GA Statistics for process    0
                         ------------------------------

       create   destroy   get      put      acc     scatter   gather  read&inc
calls:  197      197     2336     1890      492        0        0      131     
number of processes/call 1.00e+00 1.00e+00 1.00e+00 0.00e+00 0.00e+00
bytes total:             1.48e+07 3.49e+06 7.97e+06 0.00e+00 0.00e+00 1.05e+03
bytes remote:            0.00e+00 0.00e+00 0.00e+00 0.00e+00 0.00e+00 0.00e+00
Max memory consumed for GA by this process: 1053000 bytes

MA_summarize_allocated_blocks: starting scan ...
MA_summarize_allocated_blocks: scan completed: 0 heap blocks, 0 stack blocks
MA usage statistics:

	allocation statistics:
					      heap	     stack
					      ----	     -----
	current number of blocks	         0	         0
	maximum number of blocks	        23	        51
	current total bytes		         0	         0
	maximum total bytes		  10864224	  22512552
	maximum total K-bytes		     10865	     22513
	maximum total M-bytes		        11	        23


                                     CITATION
                                     --------
                Please cite the following reference when publishing
                           results obtained with NWChem:

                 M. Valiev, E.J. Bylaska, N. Govind, K. Kowalski,
              T.P. Straatsma, H.J.J. van Dam, D. Wang, J. Nieplocha,
                        E. Apra, T.L. Windus, W.A. de Jong
                 "NWChem: a comprehensive and scalable open-source
                  solution for large scale molecular simulations"
                      Comput. Phys. Commun. 181, 1477 (2010)
                           doi:10.1016/j.cpc.2010.04.018

                                      AUTHORS
                                      -------
          E. Apra, E. J. Bylaska, W. A. de Jong, N. Govind, K. Kowalski,
       T. P. Straatsma, M. Valiev, H. J. J. van Dam, D. Wang, T. L. Windus,
        J. Hammond, J. Autschbach, K. Bhaskaran-Nair, J. Brabec, K. Lopata,
       S. A. Fischer, S. Krishnamoorthy, W. Ma, M. Klemm, O. Villa, Y. Chen,
    V. Anisimov, F. Aquino, S. Hirata, M. T. Hackler, T. Risthaus, M. Malagoli,
       A. Marenich, A. Otero-de-la-Roza, J. Mullin, P. Nichols, R. Peverati,
     J. Pittner, Y. Zhao, P.-D. Fan, A. Fonari, M. Williamson, R. J. Harrison,
       J. R. Rehr, M. Dupuis, D. Silverstein, D. M. A. Smith, J. Nieplocha,
        V. Tipparaju, M. Krishnan, B. E. Van Kuiken, A. Vazquez-Mayagoitia,
        L. Jensen, M. Swart, Q. Wu, T. Van Voorhis, A. A. Auer, M. Nooijen,
      L. D. Crosby, E. Brown, G. Cisneros, G. I. Fann, H. Fruchtl, J. Garza,
        K. Hirao, R. A. Kendall, J. A. Nichols, K. Tsemekhman, K. Wolinski,
     J. Anchell, D. E. Bernholdt, P. Borowski, T. Clark, D. Clerc, H. Dachsel,
   M. J. O. Deegan, K. Dyall, D. Elwood, E. Glendening, M. Gutowski, A. C. Hess,
         J. Jaffe, B. G. Johnson, J. Ju, R. Kobayashi, R. Kutteh, Z. Lin,
   R. Littlefield, X. Long, B. Meng, T. Nakajima, S. Niu, L. Pollack, M. Rosing,
   K. Glaesemann, G. Sandrone, M. Stave, H. Taylor, G. Thomas, J. H. van Lenthe,
                               A. T. Wong, Z. Zhang.

 Total times  cpu:        1.9s     wall:        2.5s
