[1537884002.262667] [r8n3:28632:0]         sys.c:744  MXM  WARN  Conflicting CPU frequencies detected, using: 2499.99
[1537884002.269254] [r8n3:28632:0]         mxm.c:196  MXM  WARN  The 'ulimit -s' on the system is set to 'unlimited'. This may have negative performance implications. Please set the stack size to the default value (10240) 
[1537884002.271564] [r8n3:28632:0]         mxm.c:196  MXM  WARN  The 'ulimit -s' on the system is set to 'unlimited'. This may have negative performance implications. Please set the stack size to the default value (10240) 
 argument  1 = /storage/home/bikashp/nwchem_run/rabeet/ip13g2/nwrevtpss/P.nw
                                         
                                         


              Northwest Computational Chemistry Package (NWChem) 6.6
              ------------------------------------------------------


                    Environmental Molecular Sciences Laboratory
                       Pacific Northwest National Laboratory
                                Richland, WA 99352

                              Copyright (c) 1994-2015
                       Pacific Northwest National Laboratory
                            Battelle Memorial Institute

             NWChem is an open-source computational chemistry package
                        distributed under the terms of the
                      Educational Community License (ECL) 2.0
             A copy of the license is included with this distribution
                              in the LICENSE.TXT file

                                  ACKNOWLEDGMENT
                                  --------------

            This software and its documentation were developed at the
            EMSL at Pacific Northwest National Laboratory, a multiprogram
            national laboratory, operated for the U.S. Department of Energy
            by Battelle under Contract Number DE-AC05-76RL01830. Support
            for this work was provided by the Department of Energy Office
            of Biological and Environmental Research, Office of Basic
            Energy Sciences, and the Office of Advanced Scientific Computing.


           Job information
           ---------------

    hostname        = r8n3.niserhpc.org
    program         = /home/bikashp/Code/nwchem-6.6_revtpss/bin/LINUX64/nwchem
    date            = Tue Sep 25 19:30:02 2018

    compiled        = Tue_Sep_25_17:05:19_2018
    source          = /home/bikashp/Code/nwchem-6.6_revtpss
    nwchem branch   = 6.6
    nwchem revision = 27746
    ga revision     = 10594
    input           = /storage/home/bikashp/nwchem_run/rabeet/ip13g2/nwrevtpss/P.nw
    prefix          = P.
    data base       = ./P.db
    status          = startup
    nproc           =        1
    time left       =     -1s



           Memory information
           ------------------

    heap     =   13107196 doubles =    100.0 Mbytes
    stack    =   13107201 doubles =    100.0 Mbytes
    global   =   26214400 doubles =    200.0 Mbytes (distinct from heap & stack)
    total    =   52428797 doubles =    400.0 Mbytes
    verify   = yes
    hardfail = no 


           Directory information
           ---------------------

  0 permanent = .
  0 scratch   = .




                                NWChem Input Module
                                -------------------



 Scaling coordinates for geometry "geometry" by  1.889725989
 (inverse scale =  0.529177249)



                             Geometry "geometry" -> ""
                             -------------------------

 Output coordinates in angstroms (scale by  1.889725989 to convert to a.u.)

  No.       Tag          Charge          X              Y              Z
 ---- ---------------- ---------- -------------- -------------- --------------
    1 P                   15.0000     0.00000000     0.00000000     0.00000000

      Atomic Mass 
      ----------- 

      P                 30.973760


 Effective nuclear repulsion energy (a.u.)       0.0000000000

            Nuclear Dipole moment (a.u.) 
            ----------------------------
        X                 Y               Z
 ---------------- ---------------- ----------------
     0.0000000000     0.0000000000     0.0000000000


            XYZ format geometry
            -------------------
     1
 geometry
 P                     0.00000000     0.00000000     0.00000000



 Summary of "ao basis" -> "" (cartesian)
 ------------------------------------------------------------------------------
       Tag                 Description            Shells   Functions and Types
 ---------------- ------------------------------  ------  ---------------------
 *                     6-311++G(3df,3pd)              on all atoms 



                                 NWChem DFT Module
                                 -----------------


                      Basis "ao basis" -> "ao basis" (cartesian)
                      -----
  P (Phosphorous)
  ---------------
            Exponent  Coefficients 
       -------------- ---------------------------------------------------------
  1 S  7.74924000E+04  0.000781
  1 S  1.16058000E+04  0.006068
  1 S  2.64596000E+03  0.031160
  1 S  7.54976000E+02  0.123431
  1 S  2.48755000E+02  0.378209
  1 S  9.11565000E+01  0.563262

  2 S  9.11565000E+01  0.160255
  2 S  3.62257000E+01  0.627647
  2 S  1.52113000E+01  0.263849

  3 S  4.79417000E+00  1.000000

  4 S  1.80793000E+00  1.000000

  5 S  3.56816000E-01  1.000000

  6 S  1.14783000E-01  1.000000

  7 P  3.84843000E+02  0.009206
  7 P  9.05521000E+01  0.069874
  7 P  2.91339000E+01  0.292470
  7 P  1.08862000E+01  0.728103

  8 P  4.35259000E+00  0.628349
  8 P  1.77706000E+00  0.428044

  9 P  6.97005000E-01  1.000000

 10 P  2.53532000E-01  1.000000

 11 P  6.84930000E-02  1.000000

 12 S  3.48000000E-02  1.000000

 13 P  3.48000000E-02  1.000000

 14 D  2.20000000E+00  1.000000

 15 D  5.50000000E-01  1.000000

 16 D  1.37500000E-01  1.000000

 17 F  4.50000000E-01  1.000000



 Summary of "ao basis" -> "ao basis" (cartesian)
 ------------------------------------------------------------------------------
       Tag                 Description            Shells   Functions and Types
 ---------------- ------------------------------  ------  ---------------------
 P                     6-311++G(3df,3pd)            17       53   7s6p3d1f




 Summary of "ao basis" -> "ao basis" (cartesian)
 ------------------------------------------------------------------------------
       Tag                 Description            Shells   Functions and Types
 ---------------- ------------------------------  ------  ---------------------
 P                     6-311++G(3df,3pd)            17       53   7s6p3d1f


  Caching 1-el integrals 

            General Information
            -------------------
          SCF calculation type: DFT
          Wavefunction type:  spin polarized.
          No. of atoms     :     1
          No. of electrons :    15
           Alpha electrons :     9
            Beta electrons :     6
          Charge           :     0
          Spin multiplicity:     4
          Use of symmetry is: off; symmetry adaption is: off
          Maximum number of iterations: ***
          AO basis - number of functions:    53
                     number of shells:    17
          Convergence on energy requested: 1.00D-06
          Convergence on density requested: 1.00D-05
          Convergence on gradient requested: 5.00D-04

              XC Information
              --------------
                  TPSS metaGGA Exchange Functional  1.000          
             TPSS03 metaGGA Correlation Functional  1.000          

             Grid Information
             ----------------
          Grid used for XC integration:  medium    
          Radial quadrature: Mura-Knowles        
          Angular quadrature: Lebedev. 
          Tag              B.-S. Rad. Rad. Pts. Rad. Cut. Ang. Pts.
          ---              ---------- --------- --------- ---------
          P                   1.00       88           9.0       590
          Grid pruning is: on 
          Number of quadrature shells:    88
          Spatial weights used:  Erf1

          Convergence Information
          -----------------------
          Convergence aids based upon iterative change in 
          total energy or number of iterations. 
          Levelshifting, if invoked, occurs when the 
          HOMO/LUMO gap drops below (HL_TOL): 1.00D-02
          DIIS, if invoked, will attempt to extrapolate 
          using up to (NFOCK): 10 stored Fock matrices.

                    Damping( 0%)  Levelshifting(0.5)       DIIS
                  --------------- ------------------- ---------------
          dE  on:    start            ASAP                start   
          dE off:    2 iters        *** iters           *** iters 


      Screening Tolerance Information
      -------------------------------
          Density screening/tol_rho: 1.00D-10
          AO Gaussian exp screening on grid/accAOfunc:  14
          CD Gaussian exp screening on grid/accCDfunc:  20
          XC Gaussian exp screening on grid/accXCfunc:  20
          Schwarz screening/accCoul: 1.00D-08


      Superposition of Atomic Density Guess
      -------------------------------------

 Sum of atomic energies:        -340.65047561

      Non-variational initial energy
      ------------------------------

 Total energy =    -340.362186
 1-e energy   =    -471.309908
 2-e energy   =     130.947721
 HOMO         =      -0.168937
 LUMO         =      -0.168937

   Time after variat. SCF:      0.2
   Time prior to 1st pass:      0.2

 Integral file          = ./P.aoints.0
 Record size in doubles =    65536    No. of integs per rec  =    43688
 Max. records in memory =       34    Max. records in file   = ********
 No. of bits per label  =        8    No. of bits per value  =       64


 #quartets = 1.177D+04 #integrals = 1.644D+05 #direct =  0.0% #cached =100.0%


 Grid_pts file          = ./P.gridpts.0
 Record size in doubles =  12289        No. of grid_pts per rec  =   3070
 Max. records in memory =     20        Max. recs in file   = 995337884


           Memory utilization after 1st SCF pass: 
           Heap Space remaining (MW):       10.63            10630236
          Stack Space remaining (MW):       13.11            13106660

   convergence    iter        energy       DeltaE   RMS-Dens  Diis-err    time
 ---------------- ----- ----------------- --------- --------- ---------  ------
 d= 0,ls=0.0,diis     1   -341.1283345092 -3.41D+02  7.04D-03  1.28D-01     1.4
                                                     1.61D-03  8.77D-02
 d= 0,ls=0.0,diis     2   -341.1493553694 -2.10D-02  3.04D-03  7.74D-03     2.4
                                                     2.44D-03  4.09D-03
 d= 0,ls=0.0,diis     3   -341.1522830274 -2.93D-03  8.11D-04  2.71D-03     3.3
                                                     4.69D-04  1.96D-03
 d= 0,ls=0.0,diis     4   -341.1531218889 -8.39D-04  1.47D-04  2.43D-05     4.3
                                                     6.00D-05  1.00D-05
 d= 0,ls=0.0,diis     5   -341.1531476621 -2.58D-05  1.90D-05  3.75D-08     5.2
                                                     1.21D-05  4.99D-08
 d= 0,ls=0.0,diis     6   -341.1531474574  2.05D-07  6.48D-07  7.78D-11     6.2
                                                     4.71D-07  2.81D-11


         Total DFT energy =     -341.153147457444
      One electron energy =     -471.483961815803
           Coulomb energy =      153.390773796653
          Exchange energy =      -22.514124964007
       Correlation energy =       -0.545834474287
 Nuclear repulsion energy =        0.000000000000

 Numeric. integr. density =       14.999999999706

     Total iterative time =      5.9s



                    DFT Final Alpha Molecular Orbital Analysis
                    ------------------------------------------

 Vector    1  Occ=1.000000D+00  E=-7.666989D+01
              MO Center=  4.5D-17,  3.4D-18, -2.1D-17, r^2= 4.1D-03
   Bfn.  Coefficient  Atom+Function         Bfn.  Coefficient  Atom+Function  
  ----- ------------  ---------------      ----- ------------  ---------------
     2      0.644963  1 P  s                  1      0.419927  1 P  s          

 Vector    2  Occ=1.000000D+00  E=-6.415750D+00
              MO Center= -7.6D-16, -5.1D-16,  7.3D-16, r^2= 9.0D-02
   Bfn.  Coefficient  Atom+Function         Bfn.  Coefficient  Atom+Function  
  ----- ------------  ---------------      ----- ------------  ---------------
     4      0.586648  1 P  s                  3      0.510182  1 P  s          
     2     -0.313172  1 P  s          

 Vector    3  Occ=1.000000D+00  E=-4.577627D+00
              MO Center=  4.8D-16,  4.9D-16,  1.7D-16, r^2= 8.3D-02
   Bfn.  Coefficient  Atom+Function         Bfn.  Coefficient  Atom+Function  
  ----- ------------  ---------------      ----- ------------  ---------------
    11      0.453069  1 P  py                10      0.435371  1 P  px         
     8      0.270377  1 P  py                12      0.264176  1 P  pz         
     7      0.259816  1 P  px                 9      0.157652  1 P  pz         

 Vector    4  Occ=1.000000D+00  E=-4.577627D+00
              MO Center=  2.2D-16, -2.0D-16,  3.0D-17, r^2= 8.3D-02
   Bfn.  Coefficient  Atom+Function         Bfn.  Coefficient  Atom+Function  
  ----- ------------  ---------------      ----- ------------  ---------------
    10      0.516755  1 P  px                11     -0.429225  1 P  py         
     7      0.308383  1 P  px                 8     -0.256148  1 P  py         

 Vector    5  Occ=1.000000D+00  E=-4.577627D+00
              MO Center=  9.3D-17,  3.9D-16, -8.1D-16, r^2= 8.3D-02
   Bfn.  Coefficient  Atom+Function         Bfn.  Coefficient  Atom+Function  
  ----- ------------  ---------------      ----- ------------  ---------------
    12      0.617641  1 P  pz                 9      0.368589  1 P  pz         
    11     -0.274050  1 P  py                 8     -0.163544  1 P  py         

 Vector    6  Occ=1.000000D+00  E=-5.589933D-01
              MO Center= -3.4D-15, -5.0D-15, -4.9D-15, r^2= 1.2D+00
   Bfn.  Coefficient  Atom+Function         Bfn.  Coefficient  Atom+Function  
  ----- ------------  ---------------      ----- ------------  ---------------
     6      0.777560  1 P  s                  5      0.534855  1 P  s          
     4     -0.361104  1 P  s                  3     -0.214025  1 P  s          

 Vector    7  Occ=1.000000D+00  E=-2.370912D-01
              MO Center= -1.8D-15, -4.1D-15,  9.5D-16, r^2= 1.8D+00
   Bfn.  Coefficient  Atom+Function         Bfn.  Coefficient  Atom+Function  
  ----- ------------  ---------------      ----- ------------  ---------------
    18      0.593420  1 P  pz                17     -0.404256  1 P  py         
    16     -0.334126  1 P  px                21      0.249321  1 P  pz         
    20     -0.169845  1 P  py         

 Vector    8  Occ=1.000000D+00  E=-2.370912D-01
              MO Center=  4.6D-15, -3.1D-15,  9.5D-16, r^2= 1.8D+00
   Bfn.  Coefficient  Atom+Function         Bfn.  Coefficient  Atom+Function  
  ----- ------------  ---------------      ----- ------------  ---------------
    16      0.706424  1 P  px                18      0.351526  1 P  pz         
    19      0.296798  1 P  px                10     -0.168200  1 P  px         
    13      0.154154  1 P  px         

 Vector    9  Occ=1.000000D+00  E=-2.370912D-01
              MO Center= -3.8D-15,  1.2D-14,  6.4D-15, r^2= 1.8D+00
   Bfn.  Coefficient  Atom+Function         Bfn.  Coefficient  Atom+Function  
  ----- ------------  ---------------      ----- ------------  ---------------
    17      0.677631  1 P  py                18      0.389220  1 P  pz         
    20      0.284701  1 P  py                21      0.163527  1 P  pz         
    11     -0.161344  1 P  py         

 Vector   10  Occ=0.000000D+00  E=-7.237796D-04
              MO Center= -1.3D-13, -6.1D-15, -7.5D-14, r^2= 1.0D+01
   Bfn.  Coefficient  Atom+Function         Bfn.  Coefficient  Atom+Function  
  ----- ------------  ---------------      ----- ------------  ---------------
    22      1.671230  1 P  s                  5     -0.359062  1 P  s          
     6     -0.253593  1 P  s                 38     -0.252685  1 P  dxx        
    41     -0.252685  1 P  dyy               43     -0.252685  1 P  dzz        

 Vector   11  Occ=0.000000D+00  E= 3.184917D-02
              MO Center=  5.3D-15,  1.3D-14, -4.7D-15, r^2= 1.4D+01
   Bfn.  Coefficient  Atom+Function         Bfn.  Coefficient  Atom+Function  
  ----- ------------  ---------------      ----- ------------  ---------------
    24      1.384791  1 P  py                20     -0.795171  1 P  py         
    25     -0.763927  1 P  pz                23      0.590318  1 P  px         
    21      0.438660  1 P  pz                19     -0.338971  1 P  px         
    17      0.228276  1 P  py                14     -0.165356  1 P  py         

 Vector   12  Occ=0.000000D+00  E= 3.184917D-02
              MO Center=  1.0D-13, -4.3D-14,  2.2D-15, r^2= 1.4D+01
   Bfn.  Coefficient  Atom+Function         Bfn.  Coefficient  Atom+Function  
  ----- ------------  ---------------      ----- ------------  ---------------
    23      1.553846  1 P  px                19     -0.892244  1 P  px         
    24     -0.659733  1 P  py                20      0.378830  1 P  py         
    16      0.256144  1 P  px                13     -0.185542  1 P  px         
    44     -0.168287  1 P  fxxx              47     -0.168287  1 P  fxyy       
    49     -0.168287  1 P  fxzz       

 Vector   13  Occ=0.000000D+00  E= 3.184917D-02
              MO Center=  1.3D-14,  3.1D-14,  6.6D-14, r^2= 1.4D+01
   Bfn.  Coefficient  Atom+Function         Bfn.  Coefficient  Atom+Function  
  ----- ------------  ---------------      ----- ------------  ---------------
    25      1.505357  1 P  pz                21     -0.864401  1 P  pz         
    24      0.704849  1 P  py                20     -0.404736  1 P  py         
    23      0.294611  1 P  px                18      0.248151  1 P  pz         
    15     -0.179752  1 P  pz                19     -0.169171  1 P  px         
    46     -0.163036  1 P  fxxz              51     -0.163036  1 P  fyyz       

 Vector   14  Occ=0.000000D+00  E= 1.426763D-01
              MO Center= -3.7D-15,  2.7D-15,  2.0D-15, r^2= 3.0D+00
   Bfn.  Coefficient  Atom+Function         Bfn.  Coefficient  Atom+Function  
  ----- ------------  ---------------      ----- ------------  ---------------
    41      0.862582  1 P  dyy               43     -0.433715  1 P  dzz        
    38     -0.428867  1 P  dxx               35      0.222541  1 P  dyy        

 Vector   15  Occ=0.000000D+00  E= 1.426763D-01
              MO Center=  8.1D-15,  3.1D-16,  5.1D-16, r^2= 3.0D+00
   Bfn.  Coefficient  Atom+Function         Bfn.  Coefficient  Atom+Function  
  ----- ------------  ---------------      ----- ------------  ---------------
    38      0.748235  1 P  dxx               43     -0.739729  1 P  dzz        
    32      0.193040  1 P  dxx               37     -0.190845  1 P  dzz        
    42     -0.177608  1 P  dyz        

 Vector   16  Occ=0.000000D+00  E= 1.426763D-01
              MO Center= -6.7D-15,  2.7D-15,  7.2D-15, r^2= 3.0D+00
   Bfn.  Coefficient  Atom+Function         Bfn.  Coefficient  Atom+Function  
  ----- ------------  ---------------      ----- ------------  ---------------
    40      1.409453  1 P  dxz               42     -0.478417  1 P  dyz        
    34      0.363630  1 P  dxz        

 Vector   17  Occ=0.000000D+00  E= 1.426763D-01
              MO Center=  6.4D-15,  2.9D-15, -3.7D-15, r^2= 3.0D+00
   Bfn.  Coefficient  Atom+Function         Bfn.  Coefficient  Atom+Function  
  ----- ------------  ---------------      ----- ------------  ---------------
    39      1.314142  1 P  dxy               42     -0.612890  1 P  dyz        
    40     -0.352539  1 P  dxz               33      0.339040  1 P  dxy        
    36     -0.158122  1 P  dyz        

 Vector   18  Occ=0.000000D+00  E= 1.426763D-01
              MO Center=  1.4D-15,  7.0D-15,  4.7D-15, r^2= 3.0D+00
   Bfn.  Coefficient  Atom+Function         Bfn.  Coefficient  Atom+Function  
  ----- ------------  ---------------      ----- ------------  ---------------
    42      1.268435  1 P  dyz               39      0.704912  1 P  dxy        
    40      0.359948  1 P  dxz               36      0.327248  1 P  dyz        
    33      0.181863  1 P  dxy        

 Vector   19  Occ=0.000000D+00  E= 2.533749D-01
              MO Center= -6.9D-14, -4.0D-15,  4.3D-15, r^2= 9.4D+00
   Bfn.  Coefficient  Atom+Function         Bfn.  Coefficient  Atom+Function  
  ----- ------------  ---------------      ----- ------------  ---------------
    16      2.991575  1 P  px                19     -2.954226  1 P  px         
    23      1.791563  1 P  px                44     -0.895662  1 P  fxxx       
    47     -0.895662  1 P  fxyy              49     -0.895662  1 P  fxzz       
    18     -0.462835  1 P  pz                21      0.457057  1 P  pz         
    13     -0.430322  1 P  px                25     -0.277178  1 P  pz         

 Vector   20  Occ=0.000000D+00  E= 2.533749D-01
              MO Center=  4.4D-14,  1.0D-13,  2.8D-13, r^2= 9.4D+00
   Bfn.  Coefficient  Atom+Function         Bfn.  Coefficient  Atom+Function  
  ----- ------------  ---------------      ----- ------------  ---------------
    18      2.827483  1 P  pz                21     -2.792182  1 P  pz         
    25      1.693293  1 P  pz                17      0.990090  1 P  py         
    20     -0.977729  1 P  py                46     -0.846533  1 P  fxxz       
    51     -0.846533  1 P  fyyz              53     -0.846533  1 P  fzzz       
    24      0.592935  1 P  py                16      0.434601  1 P  px         

 Vector   21  Occ=0.000000D+00  E= 2.533749D-01
              MO Center= -3.7D-15,  1.8D-14, -5.3D-15, r^2= 9.4D+00
   Bfn.  Coefficient  Atom+Function         Bfn.  Coefficient  Atom+Function  
  ----- ------------  ---------------      ----- ------------  ---------------
    17      2.860675  1 P  py                20     -2.824960  1 P  py         
    24      1.713171  1 P  py                18     -0.977210  1 P  pz         
    21      0.965010  1 P  pz                45     -0.856471  1 P  fxxy       
    50     -0.856471  1 P  fyyy              52     -0.856471  1 P  fyzz       
    25     -0.585221  1 P  pz                14     -0.411493  1 P  py         

 Vector   22  Occ=0.000000D+00  E= 2.699544D-01
              MO Center=  3.1D-14, -1.2D-13, -2.7D-13, r^2= 7.7D+00
   Bfn.  Coefficient  Atom+Function         Bfn.  Coefficient  Atom+Function  
  ----- ------------  ---------------      ----- ------------  ---------------
     6      2.680294  1 P  s                 22      1.787553  1 P  s          
    38     -1.755497  1 P  dxx               41     -1.755497  1 P  dyy        
    43     -1.755497  1 P  dzz               32     -0.365230  1 P  dxx        
    35     -0.365230  1 P  dyy               37     -0.365230  1 P  dzz        
     4     -0.318298  1 P  s                  3     -0.189706  1 P  s          

 Vector   23  Occ=0.000000D+00  E= 8.113077D-01
              MO Center=  5.7D-16, -2.5D-15,  1.1D-14, r^2= 1.8D+00
   Bfn.  Coefficient  Atom+Function         Bfn.  Coefficient  Atom+Function  
  ----- ------------  ---------------      ----- ------------  ---------------
    35      0.787566  1 P  dyy               37     -0.789167  1 P  dzz        
    33     -0.554742  1 P  dxy               41     -0.547724  1 P  dyy        
    43      0.548837  1 P  dzz               36      0.493603  1 P  dyz        
    39      0.385803  1 P  dxy               42     -0.343283  1 P  dyz        


                     DFT Final Beta Molecular Orbital Analysis
                     -----------------------------------------

 Vector    1  Occ=1.000000D+00  E=-7.665898D+01
              MO Center=  2.1D-17,  3.5D-18,  9.1D-18, r^2= 4.1D-03
   Bfn.  Coefficient  Atom+Function         Bfn.  Coefficient  Atom+Function  
  ----- ------------  ---------------      ----- ------------  ---------------
     2      0.645008  1 P  s                  1      0.419962  1 P  s          

 Vector    2  Occ=1.000000D+00  E=-6.405649D+00
              MO Center= -6.1D-16, -7.1D-16,  8.3D-17, r^2= 9.0D-02
   Bfn.  Coefficient  Atom+Function         Bfn.  Coefficient  Atom+Function  
  ----- ------------  ---------------      ----- ------------  ---------------
     4      0.594350  1 P  s                  3      0.507618  1 P  s          
     2     -0.312785  1 P  s          

 Vector    3  Occ=1.000000D+00  E=-4.561575D+00
              MO Center=  1.2D-16, -1.7D-16, -1.8D-16, r^2= 8.3D-02
   Bfn.  Coefficient  Atom+Function         Bfn.  Coefficient  Atom+Function  
  ----- ------------  ---------------      ----- ------------  ---------------
    12      0.585041  1 P  pz                 9      0.347339  1 P  pz         
    11      0.284139  1 P  py                10     -0.211004  1 P  px         
     8      0.168693  1 P  py         

 Vector    4  Occ=1.000000D+00  E=-4.561575D+00
              MO Center= -9.5D-17,  8.4D-17, -1.6D-17, r^2= 8.3D-02
   Bfn.  Coefficient  Atom+Function         Bfn.  Coefficient  Atom+Function  
  ----- ------------  ---------------      ----- ------------  ---------------
    11      0.521106  1 P  py                12     -0.350582  1 P  pz         
     8      0.309380  1 P  py                10     -0.270317  1 P  px         
     9     -0.208141  1 P  pz                 7     -0.160487  1 P  px         

 Vector    5  Occ=1.000000D+00  E=-4.561575D+00
              MO Center=  9.6D-16,  6.5D-16,  5.4D-17, r^2= 8.3D-02
   Bfn.  Coefficient  Atom+Function         Bfn.  Coefficient  Atom+Function  
  ----- ------------  ---------------      ----- ------------  ---------------
    10      0.591554  1 P  px                 7      0.351206  1 P  px         
    11      0.339476  1 P  py                 8      0.201547  1 P  py         

 Vector    6  Occ=1.000000D+00  E=-4.402934D-01
              MO Center= -1.0D-15,  7.3D-15,  5.6D-15, r^2= 1.2D+00
   Bfn.  Coefficient  Atom+Function         Bfn.  Coefficient  Atom+Function  
  ----- ------------  ---------------      ----- ------------  ---------------
     6      0.726998  1 P  s                  5      0.516972  1 P  s          
     4     -0.373862  1 P  s                  3     -0.201997  1 P  s          

 Vector    7  Occ=0.000000D+00  E=-1.336918D-01
              MO Center=  3.9D-16,  3.0D-15,  8.0D-15, r^2= 2.2D+00
   Bfn.  Coefficient  Atom+Function         Bfn.  Coefficient  Atom+Function  
  ----- ------------  ---------------      ----- ------------  ---------------
    16      0.544651  1 P  px                17     -0.514132  1 P  py         
    19      0.299492  1 P  px                20     -0.282711  1 P  py         

 Vector    8  Occ=0.000000D+00  E=-1.336918D-01
              MO Center=  5.3D-15,  8.8D-15,  7.8D-15, r^2= 2.2D+00
   Bfn.  Coefficient  Atom+Function         Bfn.  Coefficient  Atom+Function  
  ----- ------------  ---------------      ----- ------------  ---------------
    17      0.541725  1 P  py                16      0.510330  1 P  px         
    20      0.297884  1 P  py                19      0.280620  1 P  px         

 Vector    9  Occ=0.000000D+00  E=-1.336918D-01
              MO Center= -2.0D-16,  1.0D-14,  7.7D-15, r^2= 2.2D+00
   Bfn.  Coefficient  Atom+Function         Bfn.  Coefficient  Atom+Function  
  ----- ------------  ---------------      ----- ------------  ---------------
    18      0.744216  1 P  pz                21      0.409229  1 P  pz         
    12     -0.172641  1 P  pz                15      0.151153  1 P  pz         

 Vector   10  Occ=0.000000D+00  E= 3.320706D-02
              MO Center=  3.8D-14,  3.6D-14,  1.2D-13, r^2= 9.9D+00
   Bfn.  Coefficient  Atom+Function         Bfn.  Coefficient  Atom+Function  
  ----- ------------  ---------------      ----- ------------  ---------------
    22      1.664153  1 P  s                  6     -0.377161  1 P  s          
     5     -0.302293  1 P  s                 38     -0.221850  1 P  dxx        
    41     -0.221850  1 P  dyy               43     -0.221850  1 P  dzz        

 Vector   11  Occ=0.000000D+00  E= 6.537772D-02
              MO Center= -7.8D-14, -2.6D-14, -9.4D-14, r^2= 1.5D+01
   Bfn.  Coefficient  Atom+Function         Bfn.  Coefficient  Atom+Function  
  ----- ------------  ---------------      ----- ------------  ---------------
    25      1.315559  1 P  pz                23      1.123175  1 P  px         
    21     -0.841002  1 P  pz                19     -0.718016  1 P  px         
    24      0.375528  1 P  py                18      0.255925  1 P  pz         
    20     -0.240065  1 P  py                16      0.218499  1 P  px         
    15     -0.169397  1 P  pz                46     -0.158204  1 P  fxxz       

 Vector   12  Occ=0.000000D+00  E= 6.537772D-02
              MO Center=  1.9D-14, -3.3D-14, -5.0D-15, r^2= 1.5D+01
   Bfn.  Coefficient  Atom+Function         Bfn.  Coefficient  Atom+Function  
  ----- ------------  ---------------      ----- ------------  ---------------
    24      1.508951  1 P  py                20     -0.964633  1 P  py         
    23     -0.870895  1 P  px                19      0.556740  1 P  px         
    25      0.312806  1 P  pz                17      0.293547  1 P  py         
    21     -0.199968  1 P  pz                14     -0.194299  1 P  py         
    45     -0.181461  1 P  fxxy              50     -0.181461  1 P  fyyy       

 Vector   13  Occ=0.000000D+00  E= 6.537772D-02
              MO Center=  2.0D-14,  1.8D-14, -2.2D-14, r^2= 1.5D+01
   Bfn.  Coefficient  Atom+Function         Bfn.  Coefficient  Atom+Function  
  ----- ------------  ---------------      ----- ------------  ---------------
    25     -1.142233  1 P  pz                23      1.055110  1 P  px         
    24      0.845745  1 P  py                21      0.730200  1 P  pz         
    19     -0.674504  1 P  px                20     -0.540663  1 P  py         
    18     -0.222207  1 P  pz                16      0.205258  1 P  px         
    17      0.164529  1 P  py         

 Vector   14  Occ=0.000000D+00  E= 2.096191D-01
              MO Center=  1.0D-16, -1.4D-15, -6.5D-16, r^2= 3.2D+00
   Bfn.  Coefficient  Atom+Function         Bfn.  Coefficient  Atom+Function  
  ----- ------------  ---------------      ----- ------------  ---------------
    39      1.166207  1 P  dxy               42      0.851490  1 P  dyz        
    38     -0.346907  1 P  dxx               33      0.203206  1 P  dxy        
    43      0.193277  1 P  dzz               40      0.165265  1 P  dxz        
    41      0.153630  1 P  dyy        

 Vector   15  Occ=0.000000D+00  E= 2.096191D-01
              MO Center=  1.4D-15, -4.7D-15,  2.3D-15, r^2= 3.2D+00
   Bfn.  Coefficient  Atom+Function         Bfn.  Coefficient  Atom+Function  
  ----- ------------  ---------------      ----- ------------  ---------------
    41      0.807565  1 P  dyy               43     -0.652306  1 P  dzz        
    42      0.376404  1 P  dyz               39     -0.355475  1 P  dxy        
    38     -0.155259  1 P  dxx        

 Vector   16  Occ=0.000000D+00  E= 2.096191D-01
              MO Center=  4.2D-15,  2.9D-15,  2.0D-15, r^2= 3.2D+00
   Bfn.  Coefficient  Atom+Function         Bfn.  Coefficient  Atom+Function  
  ----- ------------  ---------------      ----- ------------  ---------------
    42      0.974424  1 P  dyz               38      0.711236  1 P  dxx        
    41     -0.377314  1 P  dyy               43     -0.333921  1 P  dzz        
    36      0.169788  1 P  dyz        

 Vector   17  Occ=0.000000D+00  E= 2.096191D-01
              MO Center=  3.5D-15,  4.5D-15,  8.3D-15, r^2= 3.2D+00
   Bfn.  Coefficient  Atom+Function         Bfn.  Coefficient  Atom+Function  
  ----- ------------  ---------------      ----- ------------  ---------------
    40      1.281531  1 P  dxz               42     -0.522884  1 P  dyz        
    39      0.450221  1 P  dxy               43     -0.323092  1 P  dzz        
    38      0.265708  1 P  dxx               34      0.223300  1 P  dxz        

 Vector   18  Occ=0.000000D+00  E= 2.096191D-01
              MO Center= -3.0D-15, -1.4D-15,  2.3D-15, r^2= 3.2D+00
   Bfn.  Coefficient  Atom+Function         Bfn.  Coefficient  Atom+Function  
  ----- ------------  ---------------      ----- ------------  ---------------
    40     -0.895503  1 P  dxz               39      0.883105  1 P  dxy        
    42     -0.620779  1 P  dyz               43     -0.382422  1 P  dzz        
    38      0.322631  1 P  dxx               34     -0.156037  1 P  dxz        
    33      0.153877  1 P  dxy        

 Vector   19  Occ=0.000000D+00  E= 2.859033D-01
              MO Center= -1.8D-14, -1.7D-15, -1.7D-14, r^2= 9.0D+00
   Bfn.  Coefficient  Atom+Function         Bfn.  Coefficient  Atom+Function  
  ----- ------------  ---------------      ----- ------------  ---------------
    16      3.271999  1 P  px                19     -2.957488  1 P  px         
    23      1.746581  1 P  px                44     -0.991909  1 P  fxxx       
    47     -0.991909  1 P  fxyy              49     -0.991909  1 P  fxzz       
    13     -0.494999  1 P  px                17     -0.377236  1 P  py         
    20      0.340976  1 P  py                24     -0.201367  1 P  py         

 Vector   20  Occ=0.000000D+00  E= 2.859033D-01
              MO Center=  2.9D-15,  6.3D-16,  1.2D-13, r^2= 9.0D+00
   Bfn.  Coefficient  Atom+Function         Bfn.  Coefficient  Atom+Function  
  ----- ------------  ---------------      ----- ------------  ---------------
    18      3.293487  1 P  pz                21     -2.976911  1 P  pz         
    25      1.758051  1 P  pz                46     -0.998424  1 P  fxxz       
    51     -0.998424  1 P  fyyz              53     -0.998424  1 P  fzzz       
    15     -0.498250  1 P  pz         

 Vector   21  Occ=0.000000D+00  E= 2.859033D-01
              MO Center=  2.9D-15,  6.3D-14, -6.4D-16, r^2= 9.0D+00
   Bfn.  Coefficient  Atom+Function         Bfn.  Coefficient  Atom+Function  
  ----- ------------  ---------------      ----- ------------  ---------------
    17      3.271884  1 P  py                20     -2.957384  1 P  py         
    24      1.746520  1 P  py                45     -0.991875  1 P  fxxy       
    50     -0.991875  1 P  fyyy              52     -0.991875  1 P  fyzz       
    14     -0.494982  1 P  py                16      0.377031  1 P  px         
    19     -0.340790  1 P  px                23      0.201258  1 P  px         

 Vector   22  Occ=0.000000D+00  E= 3.086572D-01
              MO Center=  1.8D-15, -5.5D-14, -1.2D-13, r^2= 7.8D+00
   Bfn.  Coefficient  Atom+Function         Bfn.  Coefficient  Atom+Function  
  ----- ------------  ---------------      ----- ------------  ---------------
     6      2.962075  1 P  s                 38     -1.836638  1 P  dxx        
    41     -1.836638  1 P  dyy               43     -1.836638  1 P  dzz        
    22      1.810281  1 P  s                 32     -0.365439  1 P  dxx        
    35     -0.365439  1 P  dyy               37     -0.365439  1 P  dzz        
     5     -0.329190  1 P  s                  4     -0.316061  1 P  s          

 Vector   23  Occ=0.000000D+00  E= 8.967221D-01
              MO Center=  7.3D-15,  1.3D-14,  7.8D-15, r^2= 1.6D+00
   Bfn.  Coefficient  Atom+Function         Bfn.  Coefficient  Atom+Function  
  ----- ------------  ---------------      ----- ------------  ---------------
    33      1.233515  1 P  dxy               36      1.223329  1 P  dyz        
    39     -0.788125  1 P  dxy               42     -0.781616  1 P  dyz        
    34      0.224404  1 P  dxz               27      0.189278  1 P  dxy        
    30      0.187715  1 P  dyz        


   alpha - beta orbital overlaps 
   ----------------------------- 


   alpha      1      2      3      4      5      6      7      8      9     10
    beta      1      2      5      4      4      6      8      7      7     10
 overlap   1.000  1.000  0.910  0.693  0.719  1.000  0.737  0.700  0.706  1.000


   alpha     11     12     13     14     15     16     17     18     19     20
    beta     13     12     11     15     16     17     18     14     19     20
 overlap   0.889  0.782  0.858  0.866  0.586  0.874  0.742  0.815  0.979  0.935


   alpha     21     22     23     24     25     26     27     28     29     30
    beta     21     22     27     24     23     25     26     28     29     30
 overlap   0.933  1.000  0.660  0.702  0.947  0.672  0.914  0.999  0.993  0.993


   alpha     31     32     33     34     35     36     37     38     39     40
    beta     31     32     33     37     34     37     38     36     39     40
 overlap   0.999  0.591  0.650  0.762  0.713  0.462  0.810  0.832  0.999  0.984


   alpha     41     42     43     44     45     46     47     48     49     50
    beta     41     42     43     45     46     44     47     48     50     49
 overlap   0.984  1.000  0.787  0.721  0.911  0.848  0.990  1.000  0.818  0.743


   alpha     51     52     53
    beta     51     52     53
 overlap   0.925  1.000  1.000

     --------------------------
     Expectation value of S2:  
     --------------------------
      <S2> =      3.7509 (Exact =     3.7500)


 Parallel integral file used       4 records with       0 large values


 Task  times  cpu:        6.1s     wall:        6.5s


                                NWChem Input Module
                                -------------------


 Summary of allocated global arrays
-----------------------------------
  No active global arrays



                         GA Statistics for process    0
                         ------------------------------

       create   destroy   get      put      acc     scatter   gather  read&inc
calls:  197      197     2646     2533      565        0        0      176     
number of processes/call 1.00e+00 1.00e+00 1.00e+00 0.00e+00 0.00e+00
bytes total:             2.16e+07 4.83e+06 1.27e+07 0.00e+00 0.00e+00 1.41e+03
bytes remote:            0.00e+00 0.00e+00 0.00e+00 0.00e+00 0.00e+00 0.00e+00
Max memory consumed for GA by this process: 1460680 bytes

MA_summarize_allocated_blocks: starting scan ...
MA_summarize_allocated_blocks: scan completed: 0 heap blocks, 0 stack blocks
MA usage statistics:

	allocation statistics:
					      heap	     stack
					      ----	     -----
	current number of blocks	         0	         0
	maximum number of blocks	        23	        51
	current total bytes		         0	         0
	maximum total bytes		  19815328	  22513064
	maximum total K-bytes		     19816	     22514
	maximum total M-bytes		        20	        23


                                     CITATION
                                     --------
                Please cite the following reference when publishing
                           results obtained with NWChem:

                 M. Valiev, E.J. Bylaska, N. Govind, K. Kowalski,
              T.P. Straatsma, H.J.J. van Dam, D. Wang, J. Nieplocha,
                        E. Apra, T.L. Windus, W.A. de Jong
                 "NWChem: a comprehensive and scalable open-source
                  solution for large scale molecular simulations"
                      Comput. Phys. Commun. 181, 1477 (2010)
                           doi:10.1016/j.cpc.2010.04.018

                                      AUTHORS
                                      -------
          E. Apra, E. J. Bylaska, W. A. de Jong, N. Govind, K. Kowalski,
       T. P. Straatsma, M. Valiev, H. J. J. van Dam, D. Wang, T. L. Windus,
        J. Hammond, J. Autschbach, K. Bhaskaran-Nair, J. Brabec, K. Lopata,
       S. A. Fischer, S. Krishnamoorthy, W. Ma, M. Klemm, O. Villa, Y. Chen,
    V. Anisimov, F. Aquino, S. Hirata, M. T. Hackler, T. Risthaus, M. Malagoli,
       A. Marenich, A. Otero-de-la-Roza, J. Mullin, P. Nichols, R. Peverati,
     J. Pittner, Y. Zhao, P.-D. Fan, A. Fonari, M. Williamson, R. J. Harrison,
       J. R. Rehr, M. Dupuis, D. Silverstein, D. M. A. Smith, J. Nieplocha,
        V. Tipparaju, M. Krishnan, B. E. Van Kuiken, A. Vazquez-Mayagoitia,
        L. Jensen, M. Swart, Q. Wu, T. Van Voorhis, A. A. Auer, M. Nooijen,
      L. D. Crosby, E. Brown, G. Cisneros, G. I. Fann, H. Fruchtl, J. Garza,
        K. Hirao, R. A. Kendall, J. A. Nichols, K. Tsemekhman, K. Wolinski,
     J. Anchell, D. E. Bernholdt, P. Borowski, T. Clark, D. Clerc, H. Dachsel,
   M. J. O. Deegan, K. Dyall, D. Elwood, E. Glendening, M. Gutowski, A. C. Hess,
         J. Jaffe, B. G. Johnson, J. Ju, R. Kobayashi, R. Kutteh, Z. Lin,
   R. Littlefield, X. Long, B. Meng, T. Nakajima, S. Niu, L. Pollack, M. Rosing,
   K. Glaesemann, G. Sandrone, M. Stave, H. Taylor, G. Thomas, J. H. van Lenthe,
                               A. T. Wong, Z. Zhang.

 Total times  cpu:        6.1s     wall:        6.7s
