[1537884029.927879] [r8n3:28705:0]         sys.c:744  MXM  WARN  Conflicting CPU frequencies detected, using: 2499.99
[1537884029.934032] [r8n3:28705:0]         mxm.c:196  MXM  WARN  The 'ulimit -s' on the system is set to 'unlimited'. This may have negative performance implications. Please set the stack size to the default value (10240) 
[1537884029.936194] [r8n3:28705:0]         mxm.c:196  MXM  WARN  The 'ulimit -s' on the system is set to 'unlimited'. This may have negative performance implications. Please set the stack size to the default value (10240) 
 argument  1 = /storage/home/bikashp/nwchem_run/rabeet/ip13g2/nwrevtpss/PH+.nw
                                         
                                         


              Northwest Computational Chemistry Package (NWChem) 6.6
              ------------------------------------------------------


                    Environmental Molecular Sciences Laboratory
                       Pacific Northwest National Laboratory
                                Richland, WA 99352

                              Copyright (c) 1994-2015
                       Pacific Northwest National Laboratory
                            Battelle Memorial Institute

             NWChem is an open-source computational chemistry package
                        distributed under the terms of the
                      Educational Community License (ECL) 2.0
             A copy of the license is included with this distribution
                              in the LICENSE.TXT file

                                  ACKNOWLEDGMENT
                                  --------------

            This software and its documentation were developed at the
            EMSL at Pacific Northwest National Laboratory, a multiprogram
            national laboratory, operated for the U.S. Department of Energy
            by Battelle under Contract Number DE-AC05-76RL01830. Support
            for this work was provided by the Department of Energy Office
            of Biological and Environmental Research, Office of Basic
            Energy Sciences, and the Office of Advanced Scientific Computing.


           Job information
           ---------------

    hostname        = r8n3.niserhpc.org
    program         = /home/bikashp/Code/nwchem-6.6_revtpss/bin/LINUX64/nwchem
    date            = Tue Sep 25 19:30:30 2018

    compiled        = Tue_Sep_25_17:05:19_2018
    source          = /home/bikashp/Code/nwchem-6.6_revtpss
    nwchem branch   = 6.6
    nwchem revision = 27746
    ga revision     = 10594
    input           = /storage/home/bikashp/nwchem_run/rabeet/ip13g2/nwrevtpss/PH+.nw
    prefix          = PH+.
    data base       = ./PH+.db
    status          = startup
    nproc           =        1
    time left       =     -1s



           Memory information
           ------------------

    heap     =   13107196 doubles =    100.0 Mbytes
    stack    =   13107201 doubles =    100.0 Mbytes
    global   =   26214400 doubles =    200.0 Mbytes (distinct from heap & stack)
    total    =   52428797 doubles =    400.0 Mbytes
    verify   = yes
    hardfail = no 


           Directory information
           ---------------------

  0 permanent = .
  0 scratch   = .




                                NWChem Input Module
                                -------------------



 Scaling coordinates for geometry "geometry" by  1.889725989
 (inverse scale =  0.529177249)


          ------
          auto-z
          ------


                             Geometry "geometry" -> ""
                             -------------------------

 Output coordinates in angstroms (scale by  1.889725989 to convert to a.u.)

  No.       Tag          Charge          X              Y              Z
 ---- ---------------- ---------- -------------- -------------- --------------
    1 P                   15.0000     0.00000000     0.00000000    -0.08891125
    2 H                    1.0000     0.00000000     0.00000000     1.33366875

      Atomic Mass 
      ----------- 

      P                 30.973760
      H                  1.007825


 Effective nuclear repulsion energy (a.u.)       5.5797626390

            Nuclear Dipole moment (a.u.) 
            ----------------------------
        X                 Y               Z
 ---------------- ---------------- ----------------
     0.0000000000     0.0000000000     0.0000000000



                                Z-matrix (autoz)
                                -------- 

 Units are Angstrom for bonds and degrees for angles

      Type          Name      I     J     K     L     M      Value
      ----------- --------  ----- ----- ----- ----- ----- ----------
    1 Stretch                  1     2                       1.42258


            XYZ format geometry
            -------------------
     2
 geometry
 P                     0.00000000     0.00000000    -0.08891125
 H                     0.00000000     0.00000000     1.33366875

 ==============================================================================
                                internuclear distances
 ------------------------------------------------------------------------------
       center one      |      center two      | atomic units |  angstroms
 ------------------------------------------------------------------------------
    2 H                |   1 P                |     2.68829  |     1.42258
 ------------------------------------------------------------------------------
                         number of included internuclear distances:          1
 ==============================================================================





 Summary of "ao basis" -> "" (cartesian)
 ------------------------------------------------------------------------------
       Tag                 Description            Shells   Functions and Types
 ---------------- ------------------------------  ------  ---------------------
 *                     6-311++G(3df,3pd)              on all atoms 



                                 NWChem DFT Module
                                 -----------------


                      Basis "ao basis" -> "ao basis" (cartesian)
                      -----
  P (Phosphorous)
  ---------------
            Exponent  Coefficients 
       -------------- ---------------------------------------------------------
  1 S  7.74924000E+04  0.000781
  1 S  1.16058000E+04  0.006068
  1 S  2.64596000E+03  0.031160
  1 S  7.54976000E+02  0.123431
  1 S  2.48755000E+02  0.378209
  1 S  9.11565000E+01  0.563262

  2 S  9.11565000E+01  0.160255
  2 S  3.62257000E+01  0.627647
  2 S  1.52113000E+01  0.263849

  3 S  4.79417000E+00  1.000000

  4 S  1.80793000E+00  1.000000

  5 S  3.56816000E-01  1.000000

  6 S  1.14783000E-01  1.000000

  7 P  3.84843000E+02  0.009206
  7 P  9.05521000E+01  0.069874
  7 P  2.91339000E+01  0.292470
  7 P  1.08862000E+01  0.728103

  8 P  4.35259000E+00  0.628349
  8 P  1.77706000E+00  0.428044

  9 P  6.97005000E-01  1.000000

 10 P  2.53532000E-01  1.000000

 11 P  6.84930000E-02  1.000000

 12 S  3.48000000E-02  1.000000

 13 P  3.48000000E-02  1.000000

 14 D  2.20000000E+00  1.000000

 15 D  5.50000000E-01  1.000000

 16 D  1.37500000E-01  1.000000

 17 F  4.50000000E-01  1.000000

  H (Hydrogen)
  ------------
            Exponent  Coefficients 
       -------------- ---------------------------------------------------------
  1 S  3.38650000E+01  0.025494
  1 S  5.09479000E+00  0.190373
  1 S  1.15879000E+00  0.852161

  2 S  3.25840000E-01  1.000000

  3 S  1.02741000E-01  1.000000

  4 S  3.60000000E-02  1.000000

  5 P  3.00000000E+00  1.000000

  6 P  7.50000000E-01  1.000000

  7 P  1.87500000E-01  1.000000

  8 D  1.00000000E+00  1.000000



 Summary of "ao basis" -> "ao basis" (cartesian)
 ------------------------------------------------------------------------------
       Tag                 Description            Shells   Functions and Types
 ---------------- ------------------------------  ------  ---------------------
 P                     6-311++G(3df,3pd)            17       53   7s6p3d1f
 H                     6-311++G(3df,3pd)             8       19   4s3p1d




 Summary of "ao basis" -> "ao basis" (cartesian)
 ------------------------------------------------------------------------------
       Tag                 Description            Shells   Functions and Types
 ---------------- ------------------------------  ------  ---------------------
 P                     6-311++G(3df,3pd)            17       53   7s6p3d1f
 H                     6-311++G(3df,3pd)             8       19   4s3p1d


  Caching 1-el integrals 

            General Information
            -------------------
          SCF calculation type: DFT
          Wavefunction type:  spin polarized.
          No. of atoms     :     2
          No. of electrons :    15
           Alpha electrons :     8
            Beta electrons :     7
          Charge           :     1
          Spin multiplicity:     2
          Use of symmetry is: off; symmetry adaption is: off
          Maximum number of iterations: ***
          AO basis - number of functions:    72
                     number of shells:    25
          Convergence on energy requested: 1.00D-06
          Convergence on density requested: 1.00D-05
          Convergence on gradient requested: 5.00D-04

              XC Information
              --------------
                  TPSS metaGGA Exchange Functional  1.000          
             TPSS03 metaGGA Correlation Functional  1.000          

             Grid Information
             ----------------
          Grid used for XC integration:  medium    
          Radial quadrature: Mura-Knowles        
          Angular quadrature: Lebedev. 
          Tag              B.-S. Rad. Rad. Pts. Rad. Cut. Ang. Pts.
          ---              ---------- --------- --------- ---------
          P                   1.00       88          11.0       590
          H                   0.35       45          11.0       434
          Grid pruning is: on 
          Number of quadrature shells:   133
          Spatial weights used:  Erf1

          Convergence Information
          -----------------------
          Convergence aids based upon iterative change in 
          total energy or number of iterations. 
          Levelshifting, if invoked, occurs when the 
          HOMO/LUMO gap drops below (HL_TOL): 1.00D-02
          DIIS, if invoked, will attempt to extrapolate 
          using up to (NFOCK): 10 stored Fock matrices.

                    Damping( 0%)  Levelshifting(0.5)       DIIS
                  --------------- ------------------- ---------------
          dE  on:    start            ASAP                start   
          dE off:    2 iters        *** iters           *** iters 


      Screening Tolerance Information
      -------------------------------
          Density screening/tol_rho: 1.00D-10
          AO Gaussian exp screening on grid/accAOfunc:  14
          CD Gaussian exp screening on grid/accCDfunc:  20
          XC Gaussian exp screening on grid/accXCfunc:  20
          Schwarz screening/accCoul: 1.00D-08


      Superposition of Atomic Density Guess
      -------------------------------------

 Sum of atomic energies:        -341.15029377

 Renormalizing density from      16.00 to     15

      Non-variational initial energy
      ------------------------------

 Total energy =    -327.331460
 1-e energy   =    -452.604275
 2-e energy   =     119.693053
 HOMO         =      -0.654880
 LUMO         =      -0.654880

   Time after variat. SCF:      0.3
   Time prior to 1st pass:      0.3

 Integral file          = ./PH+.aoints.0
 Record size in doubles =    65536    No. of integs per rec  =    43688
 Max. records in memory =      110    Max. records in file   = ********
 No. of bits per label  =        8    No. of bits per value  =       64


 #quartets = 5.238D+04 #integrals = 8.428D+05 #direct =  0.0% #cached =100.0%


 Grid_pts file          = ./PH+.gridpts.0
 Record size in doubles =  12289        No. of grid_pts per rec  =   3070
 Max. records in memory =     30        Max. recs in file   = 995338390


           Memory utilization after 1st SCF pass: 
           Heap Space remaining (MW):        5.53             5526244
          Stack Space remaining (MW):       13.11            13106492

   convergence    iter        energy       DeltaE   RMS-Dens  Diis-err    time
 ---------------- ----- ----------------- --------- --------- ---------  ------
 d= 0,ls=0.0,diis     1   -341.2423606088 -3.47D+02  1.30D-02  1.73D+00     2.7
                                                     1.24D-02  1.75D+00
 d= 0,ls=0.0,diis     2   -341.3486055552 -1.06D-01  4.37D-03  4.77D-01     4.5
                                                     3.87D-03  4.64D-01
 d= 0,ls=0.0,diis     3   -341.4023972299 -5.38D-02  1.06D-03  2.12D-03     6.2
                                                     8.35D-04  1.82D-03
 d= 0,ls=0.0,diis     4   -341.4036477418 -1.25D-03  2.88D-04  3.46D-04     8.0
                                                     2.30D-04  2.82D-04
 d= 0,ls=0.0,diis     5   -341.4038885153 -2.41D-04  3.65D-05  3.29D-06     9.8
                                                     1.95D-05  2.32D-06
  Resetting Diis
 d= 0,ls=0.0,diis     6   -341.4038921367 -3.62D-06  1.17D-05  1.49D-07    11.6
                                                     9.95D-06  1.97D-07
 d= 0,ls=0.0,diis     7   -341.4038917266  4.10D-07  1.18D-06  1.04D-09    13.4
                                                     1.54D-06  1.27D-09


         Total DFT energy =     -341.403891726558
      One electron energy =     -477.412950291246
           Coulomb energy =      153.576639410152
          Exchange energy =      -22.590575805006
       Correlation energy =       -0.556767679463
 Nuclear repulsion energy =        5.579762639005

 Numeric. integr. density =       14.999999035290

     Total iterative time =     13.0s



                    DFT Final Alpha Molecular Orbital Analysis
                    ------------------------------------------

 Vector    1  Occ=1.000000D+00  E=-7.705219D+01
              MO Center= -1.7D-13,  1.7D-13, -8.9D-02, r^2= 4.1D-03
   Bfn.  Coefficient  Atom+Function         Bfn.  Coefficient  Atom+Function  
  ----- ------------  ---------------      ----- ------------  ---------------
     2      0.644982  1 P  s                  1      0.419939  1 P  s          

 Vector    2  Occ=1.000000D+00  E=-6.792183D+00
              MO Center= -3.5D-10,  3.6D-10, -8.7D-02, r^2= 9.0D-02
   Bfn.  Coefficient  Atom+Function         Bfn.  Coefficient  Atom+Function  
  ----- ------------  ---------------      ----- ------------  ---------------
     4      0.589659  1 P  s                  3      0.510045  1 P  s          
     2     -0.313142  1 P  s          

 Vector    3  Occ=1.000000D+00  E=-4.962009D+00
              MO Center=  3.9D-10, -5.6D-11, -8.9D-02, r^2= 8.3D-02
   Bfn.  Coefficient  Atom+Function         Bfn.  Coefficient  Atom+Function  
  ----- ------------  ---------------      ----- ------------  ---------------
    10      0.672271  1 P  px                 7      0.399940  1 P  px         

 Vector    4  Occ=1.000000D+00  E=-4.952116D+00
              MO Center= -7.0D-11, -2.8D-10, -8.9D-02, r^2= 8.3D-02
   Bfn.  Coefficient  Atom+Function         Bfn.  Coefficient  Atom+Function  
  ----- ------------  ---------------      ----- ------------  ---------------
    11      0.671836  1 P  py                 8      0.400972  1 P  py         

 Vector    5  Occ=1.000000D+00  E=-4.943542D+00
              MO Center= -2.2D-11,  6.3D-11, -9.1D-02, r^2= 8.3D-02
   Bfn.  Coefficient  Atom+Function         Bfn.  Coefficient  Atom+Function  
  ----- ------------  ---------------      ----- ------------  ---------------
    12      0.682485  1 P  pz                 9      0.407002  1 P  pz         

 Vector    6  Occ=1.000000D+00  E=-9.041864D-01
              MO Center=  1.4D-09, -1.8D-09,  2.5D-01, r^2= 1.1D+00
   Bfn.  Coefficient  Atom+Function         Bfn.  Coefficient  Atom+Function  
  ----- ------------  ---------------      ----- ------------  ---------------
     6      0.614089  1 P  s                  5      0.529653  1 P  s          
     4     -0.349396  1 P  s                  3     -0.201786  1 P  s          

 Vector    7  Occ=1.000000D+00  E=-6.308927D-01
              MO Center= -3.7D-10,  7.7D-10,  1.7D-01, r^2= 1.6D+00
   Bfn.  Coefficient  Atom+Function         Bfn.  Coefficient  Atom+Function  
  ----- ------------  ---------------      ----- ------------  ---------------
     6      0.445426  1 P  s                 18     -0.392071  1 P  pz         
    55     -0.292658  2 H  s                  5      0.211298  1 P  s          
    15     -0.197184  1 P  pz                54     -0.157798  2 H  s          
    12      0.155676  1 P  pz         

 Vector    8  Occ=1.000000D+00  E=-5.465660D-01
              MO Center= -5.5D-10,  1.5D-09, -4.9D-02, r^2= 1.5D+00
   Bfn.  Coefficient  Atom+Function         Bfn.  Coefficient  Atom+Function  
  ----- ------------  ---------------      ----- ------------  ---------------
    17      0.761228  1 P  py                20      0.233088  1 P  py         
    14      0.223659  1 P  py                11     -0.201980  1 P  py         

 Vector    9  Occ=0.000000D+00  E=-5.198961D-01
              MO Center= -3.4D-09, -4.2D-10, -4.6D-02, r^2= 1.5D+00
   Bfn.  Coefficient  Atom+Function         Bfn.  Coefficient  Atom+Function  
  ----- ------------  ---------------      ----- ------------  ---------------
    16      0.738756  1 P  px                19      0.255703  1 P  px         
    13      0.224275  1 P  px                10     -0.199351  1 P  px         

 Vector   10  Occ=0.000000D+00  E=-2.617043D-01
              MO Center= -2.7D-09,  5.1D-09,  2.0D-01, r^2= 3.0D+00
   Bfn.  Coefficient  Atom+Function         Bfn.  Coefficient  Atom+Function  
  ----- ------------  ---------------      ----- ------------  ---------------
    18      0.897880  1 P  pz                56     -0.718075  2 H  s          
     6      0.647816  1 P  s                 57     -0.492296  2 H  s          
    21      0.477699  1 P  pz                55     -0.398168  2 H  s          
    22      0.360600  1 P  s                 43     -0.243745  1 P  dzz        
     5      0.175841  1 P  s                 37     -0.176625  1 P  dzz        

 Vector   11  Occ=0.000000D+00  E=-1.823867D-01
              MO Center= -3.3D-07,  4.9D-07,  5.0D-01, r^2= 7.6D+00
   Bfn.  Coefficient  Atom+Function         Bfn.  Coefficient  Atom+Function  
  ----- ------------  ---------------      ----- ------------  ---------------
    22      1.358105  1 P  s                 56     -0.507395  2 H  s          
    21      0.317805  1 P  pz                18      0.307512  1 P  pz         
     5     -0.283049  1 P  s                  6     -0.224220  1 P  s          
    25      0.169571  1 P  pz         

 Vector   12  Occ=0.000000D+00  E=-1.292915D-01
              MO Center= -3.8D-07, -2.0D-06,  3.5D-01, r^2= 4.9D+00
   Bfn.  Coefficient  Atom+Function         Bfn.  Coefficient  Atom+Function  
  ----- ------------  ---------------      ----- ------------  ---------------
    42      1.034128  1 P  dyz               24      0.626644  1 P  py         
    36      0.389063  1 P  dyz               17     -0.221330  1 P  py         
    40      0.180364  1 P  dxz               20     -0.169670  1 P  py         

 Vector   13  Occ=0.000000D+00  E=-1.284589D-01
              MO Center= -1.2D-05,  6.8D-06, -4.1D-01, r^2= 1.1D+01
   Bfn.  Coefficient  Atom+Function         Bfn.  Coefficient  Atom+Function  
  ----- ------------  ---------------      ----- ------------  ---------------
    22      1.017795  1 P  s                 25     -0.860983  1 P  pz         
    57     -0.660183  2 H  s                 21      0.340431  1 P  pz         
    56     -0.210431  2 H  s                  6     -0.185662  1 P  s          
    18      0.162657  1 P  pz         

 Vector   14  Occ=0.000000D+00  E=-1.282154D-01
              MO Center=  1.1D-05, -2.0D-06,  3.5D-01, r^2= 7.2D+00
   Bfn.  Coefficient  Atom+Function         Bfn.  Coefficient  Atom+Function  
  ----- ------------  ---------------      ----- ------------  ---------------
    23      0.891255  1 P  px                40      0.822575  1 P  dxz        
    34      0.299409  1 P  dxz               19     -0.242711  1 P  px         
    16     -0.238976  1 P  px                24     -0.156225  1 P  py         

 Vector   15  Occ=0.000000D+00  E=-1.212835D-01
              MO Center= -1.1D-06, -2.5D-06, -3.8D-01, r^2= 9.3D+00
   Bfn.  Coefficient  Atom+Function         Bfn.  Coefficient  Atom+Function  
  ----- ------------  ---------------      ----- ------------  ---------------
    24      1.066375  1 P  py                42     -0.668368  1 P  dyz        
    36     -0.261450  1 P  dyz               20     -0.244883  1 P  py         
    23      0.169289  1 P  px         

 Vector   16  Occ=0.000000D+00  E=-1.210806D-01
              MO Center=  2.3D-06, -7.3D-07, -3.8D-01, r^2= 7.1D+00
   Bfn.  Coefficient  Atom+Function         Bfn.  Coefficient  Atom+Function  
  ----- ------------  ---------------      ----- ------------  ---------------
    40     -0.909673  1 P  dxz               23      0.871747  1 P  px         
    34     -0.346505  1 P  dxz               19     -0.200053  1 P  px         

 Vector   17  Occ=0.000000D+00  E=-1.200537D-01
              MO Center=  8.1D-07,  2.5D-07, -8.1D-02, r^2= 2.8D+00
   Bfn.  Coefficient  Atom+Function         Bfn.  Coefficient  Atom+Function  
  ----- ------------  ---------------      ----- ------------  ---------------
    39      1.328660  1 P  dxy               33      0.475021  1 P  dxy        
    38      0.241838  1 P  dxx               41     -0.241834  1 P  dyy        

 Vector   18  Occ=0.000000D+00  E=-1.153083D-01
              MO Center= -1.7D-07, -1.3D-07, -9.7D-02, r^2= 2.9D+00
   Bfn.  Coefficient  Atom+Function         Bfn.  Coefficient  Atom+Function  
  ----- ------------  ---------------      ----- ------------  ---------------
    38      0.679938  1 P  dxx               41     -0.643835  1 P  dyy        
    39     -0.481896  1 P  dxy               32      0.249448  1 P  dxx        
    35     -0.221470  1 P  dyy               25      0.172385  1 P  pz         
    33     -0.171429  1 P  dxy        

 Vector   19  Occ=0.000000D+00  E=-5.948332D-02
              MO Center= -1.6D-07,  2.7D-07,  7.0D-01, r^2= 1.6D+01
   Bfn.  Coefficient  Atom+Function         Bfn.  Coefficient  Atom+Function  
  ----- ------------  ---------------      ----- ------------  ---------------
    57      7.752019  2 H  s                 22     -6.872846  1 P  s          
    25     -3.836585  1 P  pz                56     -1.467086  2 H  s          
    21      1.034842  1 P  pz                 6      1.019017  1 P  s          
    18      0.686992  1 P  pz                43      0.275041  1 P  dzz        
    55     -0.239311  2 H  s                 66      0.232995  2 H  pz         

 Vector   20  Occ=0.000000D+00  E= 2.881182D-02
              MO Center=  8.8D-08, -1.1D-07,  1.1D+00, r^2= 8.7D+00
   Bfn.  Coefficient  Atom+Function         Bfn.  Coefficient  Atom+Function  
  ----- ------------  ---------------      ----- ------------  ---------------
    56      3.596236  2 H  s                 22     -2.159841  1 P  s          
     6     -2.134998  1 P  s                 18     -1.962154  1 P  pz         
    25     -1.094718  1 P  pz                38      0.960008  1 P  dxx        
    41      0.939284  1 P  dyy               46      0.591348  1 P  fxxz       
    51      0.593530  1 P  fyyz              53      0.562080  1 P  fzzz       

 Vector   21  Occ=0.000000D+00  E= 5.590863D-02
              MO Center= -3.5D-05,  6.2D-06, -9.4D-02, r^2= 1.2D+01
   Bfn.  Coefficient  Atom+Function         Bfn.  Coefficient  Atom+Function  
  ----- ------------  ---------------      ----- ------------  ---------------
    19      2.950759  1 P  px                16     -2.296420  1 P  px         
    23     -2.044438  1 P  px                49      0.652102  1 P  fxzz       
    44      0.639861  1 P  fxxx              47      0.637520  1 P  fxyy       
    20     -0.532103  1 P  py                17      0.414154  1 P  py         
    24      0.368627  1 P  py                13      0.259394  1 P  px         

 Vector   22  Occ=0.000000D+00  E= 5.716992D-02
              MO Center=  3.9D-05,  2.0D-05, -1.5D+00, r^2= 9.8D+00
   Bfn.  Coefficient  Atom+Function         Bfn.  Coefficient  Atom+Function  
  ----- ------------  ---------------      ----- ------------  ---------------
    21      4.492055  1 P  pz                56     -3.687972  2 H  s          
     6      2.644016  1 P  s                 25     -2.560278  1 P  pz         
    57      1.305081  2 H  s                 66      0.733024  2 H  pz         
    38     -0.701089  1 P  dxx               41     -0.699998  1 P  dyy        
    43      0.486807  1 P  dzz               18     -0.450798  1 P  pz         

 Vector   23  Occ=0.000000D+00  E= 5.894775D-02
              MO Center= -4.8D-06, -2.7D-05, -9.4D-02, r^2= 1.2D+01
   Bfn.  Coefficient  Atom+Function         Bfn.  Coefficient  Atom+Function  
  ----- ------------  ---------------      ----- ------------  ---------------
    20      2.949534  1 P  py                17     -2.286375  1 P  py         
    24     -2.048600  1 P  py                52      0.651438  1 P  fyzz       
    45      0.637844  1 P  fxxy              50      0.636215  1 P  fyyy       
    19      0.531874  1 P  px                16     -0.412242  1 P  px         
    23     -0.369453  1 P  px                14      0.262453  1 P  py         

 Vector   24  Occ=0.000000D+00  E= 1.590489D-01
              MO Center= -3.8D-08,  5.3D-08,  3.8D-01, r^2= 7.6D+00
   Bfn.  Coefficient  Atom+Function         Bfn.  Coefficient  Atom+Function  
  ----- ------------  ---------------      ----- ------------  ---------------
    22      5.108395  1 P  s                 56      4.963026  2 H  s          
    57     -4.935689  2 H  s                 21     -3.765610  1 P  pz         
    43     -3.192093  1 P  dzz               25      2.935676  1 P  pz         
    38     -1.319664  1 P  dxx               41     -1.326080  1 P  dyy        
    18     -0.895258  1 P  pz                55      0.586341  2 H  s          

 Vector   25  Occ=0.000000D+00  E= 2.074628D-01
              MO Center= -6.5D-08,  3.8D-08,  9.3D-01, r^2= 6.6D+00
   Bfn.  Coefficient  Atom+Function         Bfn.  Coefficient  Atom+Function  
  ----- ------------  ---------------      ----- ------------  ---------------
    56      5.449879  2 H  s                 57     -4.790942  2 H  s          
    22      3.955596  1 P  s                 25      2.141777  1 P  pz         
     6     -2.087898  1 P  s                 21     -1.994068  1 P  pz         
    55     -1.909974  2 H  s                 66     -1.097525  2 H  pz         
    18     -1.062406  1 P  pz                38     -0.778969  1 P  dxx        

 Vector   26  Occ=0.000000D+00  E= 2.171696D-01
              MO Center=  7.0D-08, -1.1D-08,  9.6D-01, r^2= 3.6D+00
   Bfn.  Coefficient  Atom+Function         Bfn.  Coefficient  Atom+Function  
  ----- ------------  ---------------      ----- ------------  ---------------
    40      1.958930  1 P  dxz               64     -1.795925  2 H  px         
    16      0.908442  1 P  px                19      0.869032  1 P  px         
    49     -0.383783  1 P  fxzz              42     -0.345424  1 P  dyz        
    65      0.316680  2 H  py                44     -0.255396  1 P  fxxx       
    47     -0.249884  1 P  fxyy              23     -0.246512  1 P  px         

 Vector   27  Occ=0.000000D+00  E= 2.200200D-01
              MO Center= -4.8D-09, -2.4D-08,  9.7D-01, r^2= 3.6D+00
   Bfn.  Coefficient  Atom+Function         Bfn.  Coefficient  Atom+Function  
  ----- ------------  ---------------      ----- ------------  ---------------
    42      1.947834  1 P  dyz               65     -1.796423  2 H  py         
    17      0.891067  1 P  py                20      0.882773  1 P  py         
    52     -0.378829  1 P  fyzz              40      0.343466  1 P  dxz        
    64     -0.316768  2 H  px                24     -0.254751  1 P  py         
    45     -0.248696  1 P  fxxy              50     -0.249546  1 P  fyyy       

 Vector   28  Occ=0.000000D+00  E= 4.614037D-01
              MO Center=  1.8D-08, -2.5D-08,  2.5D-01, r^2= 6.3D+00
   Bfn.  Coefficient  Atom+Function         Bfn.  Coefficient  Atom+Function  
  ----- ------------  ---------------      ----- ------------  ---------------
    56    -11.263577  2 H  s                  6     10.331584  1 P  s          
    18      8.880946  1 P  pz                21      4.630332  1 P  pz         
    66      4.119040  2 H  pz                43      2.965186  1 P  dzz        
    46     -2.582645  1 P  fxxz              51     -2.578836  1 P  fyyz       
    53     -2.416300  1 P  fzzz              57      2.056040  2 H  s          

 Vector   29  Occ=0.000000D+00  E= 5.035608D-01
              MO Center= -1.2D-08, -8.1D-09, -8.7D-02, r^2= 2.0D+00
   Bfn.  Coefficient  Atom+Function         Bfn.  Coefficient  Atom+Function  
  ----- ------------  ---------------      ----- ------------  ---------------
    33      1.603067  1 P  dxy               39     -1.234645  1 P  dxy        
    32      0.291991  1 P  dxx               35     -0.291954  1 P  dyy        
    27      0.239365  1 P  dxy               38     -0.224839  1 P  dxx        
    41      0.224902  1 P  dyy        


                     DFT Final Beta Molecular Orbital Analysis
                     -----------------------------------------

 Vector    1  Occ=1.000000D+00  E=-7.704785D+01
              MO Center= -1.6D-13,  1.6D-13, -8.9D-02, r^2= 4.1D-03
   Bfn.  Coefficient  Atom+Function         Bfn.  Coefficient  Atom+Function  
  ----- ------------  ---------------      ----- ------------  ---------------
     2      0.645001  1 P  s                  1      0.419952  1 P  s          

 Vector    2  Occ=1.000000D+00  E=-6.788124D+00
              MO Center= -3.5D-10,  3.9D-10, -8.7D-02, r^2= 9.0D-02
   Bfn.  Coefficient  Atom+Function         Bfn.  Coefficient  Atom+Function  
  ----- ------------  ---------------      ----- ------------  ---------------
     4      0.592651  1 P  s                  3      0.509204  1 P  s          
     2     -0.313003  1 P  s          

 Vector    3  Occ=1.000000D+00  E=-4.959202D+00
              MO Center=  3.9D-10, -6.5D-11, -8.9D-02, r^2= 8.3D-02
   Bfn.  Coefficient  Atom+Function         Bfn.  Coefficient  Atom+Function  
  ----- ------------  ---------------      ----- ------------  ---------------
    10      0.672708  1 P  px                 7      0.399811  1 P  px         

 Vector    4  Occ=1.000000D+00  E=-4.940491D+00
              MO Center= -3.9D-11, -9.7D-11, -9.1D-02, r^2= 8.3D-02
   Bfn.  Coefficient  Atom+Function         Bfn.  Coefficient  Atom+Function  
  ----- ------------  ---------------      ----- ------------  ---------------
    12      0.683307  1 P  pz                 9      0.406900  1 P  pz         

 Vector    5  Occ=1.000000D+00  E=-4.938708D+00
              MO Center= -3.8D-11, -1.7D-10, -8.9D-02, r^2= 8.3D-02
   Bfn.  Coefficient  Atom+Function         Bfn.  Coefficient  Atom+Function  
  ----- ------------  ---------------      ----- ------------  ---------------
    11      0.673348  1 P  py                 8      0.400286  1 P  py         

 Vector    6  Occ=1.000000D+00  E=-8.681788D-01
              MO Center=  2.1D-09, -2.2D-09,  3.2D-01, r^2= 1.1D+00
   Bfn.  Coefficient  Atom+Function         Bfn.  Coefficient  Atom+Function  
  ----- ------------  ---------------      ----- ------------  ---------------
     6      0.541062  1 P  s                  5      0.498151  1 P  s          
     4     -0.342051  1 P  s                  3     -0.190197  1 P  s          
    55      0.169548  2 H  s          

 Vector    7  Occ=1.000000D+00  E=-6.207071D-01
              MO Center=  2.9D-10, -4.3D-11,  6.0D-02, r^2= 1.7D+00
   Bfn.  Coefficient  Atom+Function         Bfn.  Coefficient  Atom+Function  
  ----- ------------  ---------------      ----- ------------  ---------------
     6      0.467839  1 P  s                 18     -0.395810  1 P  pz         
    55     -0.281594  2 H  s                  5      0.227317  1 P  s          
    15     -0.197242  1 P  pz                 4     -0.160548  1 P  s          
    12      0.155592  1 P  pz         

 Vector    8  Occ=0.000000D+00  E=-4.998646D-01
              MO Center= -4.8D-09, -5.6D-11, -6.3D-02, r^2= 1.6D+00
   Bfn.  Coefficient  Atom+Function         Bfn.  Coefficient  Atom+Function  
  ----- ------------  ---------------      ----- ------------  ---------------
    16      0.745140  1 P  px                19      0.261737  1 P  px         
    13      0.218879  1 P  px                10     -0.197625  1 P  px         

 Vector    9  Occ=0.000000D+00  E=-4.501320D-01
              MO Center=  2.8D-10,  2.7D-09, -5.2D-02, r^2= 1.7D+00
   Bfn.  Coefficient  Atom+Function         Bfn.  Coefficient  Atom+Function  
  ----- ------------  ---------------      ----- ------------  ---------------
    17      0.800807  1 P  py                20      0.287017  1 P  py         
    11     -0.190283  1 P  py                14      0.186853  1 P  py         

 Vector   10  Occ=0.000000D+00  E=-2.414154D-01
              MO Center= -5.2D-09,  8.3D-09,  2.5D-01, r^2= 3.3D+00
   Bfn.  Coefficient  Atom+Function         Bfn.  Coefficient  Atom+Function  
  ----- ------------  ---------------      ----- ------------  ---------------
    18      0.796376  1 P  pz                57     -0.677144  2 H  s          
    56     -0.673700  2 H  s                  6      0.600509  1 P  s          
    22      0.501555  1 P  s                 21      0.453721  1 P  pz         
    55     -0.330171  2 H  s                 43     -0.267564  1 P  dzz        
    25      0.203452  1 P  pz                 5      0.168581  1 P  s          

 Vector   11  Occ=0.000000D+00  E=-1.700933D-01
              MO Center= -4.3D-07,  4.6D-07,  5.8D-01, r^2= 7.6D+00
   Bfn.  Coefficient  Atom+Function         Bfn.  Coefficient  Atom+Function  
  ----- ------------  ---------------      ----- ------------  ---------------
    22      1.104088  1 P  s                 56     -0.449369  2 H  s          
    18      0.310679  1 P  pz                21      0.290276  1 P  pz         
     5     -0.242570  1 P  s                  6     -0.224534  1 P  s          
    57      0.221586  2 H  s                 38      0.161603  1 P  dxx        

 Vector   12  Occ=0.000000D+00  E=-1.238607D-01
              MO Center= -3.2D-06,  1.6D-06, -5.6D-01, r^2= 1.1D+01
   Bfn.  Coefficient  Atom+Function         Bfn.  Coefficient  Atom+Function  
  ----- ------------  ---------------      ----- ------------  ---------------
    22      0.962667  1 P  s                 25     -0.937417  1 P  pz         
    57     -0.545387  2 H  s                 21      0.409234  1 P  pz         
    56     -0.281138  2 H  s                 18      0.180877  1 P  pz         
     6     -0.156559  1 P  s          

 Vector   13  Occ=0.000000D+00  E=-1.222394D-01
              MO Center=  2.0D-06, -3.6D-07,  3.6D-01, r^2= 7.1D+00
   Bfn.  Coefficient  Atom+Function         Bfn.  Coefficient  Atom+Function  
  ----- ------------  ---------------      ----- ------------  ---------------
    23      0.884119  1 P  px                40      0.837242  1 P  dxz        
    34      0.300190  1 P  dxz               19     -0.263806  1 P  px         
    16     -0.207656  1 P  px                24     -0.156340  1 P  py         

 Vector   14  Occ=0.000000D+00  E=-1.125172D-01
              MO Center=  1.9D-06, -3.4D-07, -3.7D-01, r^2= 7.5D+00
   Bfn.  Coefficient  Atom+Function         Bfn.  Coefficient  Atom+Function  
  ----- ------------  ---------------      ----- ------------  ---------------
    23      0.929397  1 P  px                40     -0.902925  1 P  dxz        
    34     -0.320558  1 P  dxz               19     -0.264870  1 P  px         
    24     -0.164743  1 P  py                42      0.159085  1 P  dyz        

 Vector   15  Occ=0.000000D+00  E=-1.037446D-01
              MO Center= -1.9D-07, -9.6D-07,  1.8D-01, r^2= 1.1D+01
   Bfn.  Coefficient  Atom+Function         Bfn.  Coefficient  Atom+Function  
  ----- ------------  ---------------      ----- ------------  ---------------
    24      1.256903  1 P  py                20     -0.471787  1 P  py         
    42      0.403948  1 P  dyz               23      0.222358  1 P  px         
    17     -0.163348  1 P  py         

 Vector   16  Occ=0.000000D+00  E=-9.092449D-02
              MO Center= -7.8D-08, -3.6D-07, -1.7D-01, r^2= 4.4D+00
   Bfn.  Coefficient  Atom+Function         Bfn.  Coefficient  Atom+Function  
  ----- ------------  ---------------      ----- ------------  ---------------
    42      1.160573  1 P  dyz               24     -0.538027  1 P  py         
    36      0.373375  1 P  dyz               40      0.204681  1 P  dxz        
    20      0.176404  1 P  py                65      0.163136  2 H  py         

 Vector   17  Occ=0.000000D+00  E=-7.861137D-02
              MO Center=  1.2D-08,  2.2D-08, -7.6D-02, r^2= 3.0D+00
   Bfn.  Coefficient  Atom+Function         Bfn.  Coefficient  Atom+Function  
  ----- ------------  ---------------      ----- ------------  ---------------
    38      0.712753  1 P  dxx               41     -0.655265  1 P  dyy        
    39     -0.495946  1 P  dxy               22     -0.391928  1 P  s          
    57      0.250191  2 H  s                 32      0.216134  1 P  dxx        
    56      0.205283  2 H  s                 35     -0.187676  1 P  dyy        
    25     -0.174605  1 P  pz         

 Vector   18  Occ=0.000000D+00  E=-7.818115D-02
              MO Center=  3.4D-08,  4.4D-09, -8.5D-02, r^2= 2.9D+00
   Bfn.  Coefficient  Atom+Function         Bfn.  Coefficient  Atom+Function  
  ----- ------------  ---------------      ----- ------------  ---------------
    39      1.375172  1 P  dxy               33      0.411201  1 P  dxy        
    38      0.249251  1 P  dxx               41     -0.249308  1 P  dyy        

 Vector   19  Occ=0.000000D+00  E=-5.328089D-02
              MO Center= -2.2D-07,  3.1D-07,  7.2D-01, r^2= 1.6D+01
   Bfn.  Coefficient  Atom+Function         Bfn.  Coefficient  Atom+Function  
  ----- ------------  ---------------      ----- ------------  ---------------
    57      7.872747  2 H  s                 22     -7.012420  1 P  s          
    25     -3.902534  1 P  pz                56     -1.645643  2 H  s          
    21      1.132544  1 P  pz                 6      1.115343  1 P  s          
    18      0.721046  1 P  pz                43      0.291034  1 P  dzz        
    66      0.244403  2 H  pz                55     -0.206534  2 H  s          

 Vector   20  Occ=0.000000D+00  E= 3.989615D-02
              MO Center=  2.5D-07, -1.7D-07,  1.1D+00, r^2= 8.9D+00
   Bfn.  Coefficient  Atom+Function         Bfn.  Coefficient  Atom+Function  
  ----- ------------  ---------------      ----- ------------  ---------------
    56      3.397043  2 H  s                 18     -2.057054  1 P  pz         
    22     -2.050593  1 P  s                  6     -1.962668  1 P  s          
    25     -1.280329  1 P  pz                41      0.901586  1 P  dyy        
    38      0.834815  1 P  dxx               51      0.626268  1 P  fyyz       
    46      0.614368  1 P  fxxz              53      0.599896  1 P  fzzz       

 Vector   21  Occ=0.000000D+00  E= 6.275789D-02
              MO Center= -6.9D-05,  1.2D-05, -1.1D-01, r^2= 1.2D+01
   Bfn.  Coefficient  Atom+Function         Bfn.  Coefficient  Atom+Function  
  ----- ------------  ---------------      ----- ------------  ---------------
    19      2.948302  1 P  px                16     -2.341714  1 P  px         
    23     -2.025286  1 P  px                47      0.666663  1 P  fxyy       
    49      0.662884  1 P  fxzz              44      0.647803  1 P  fxxx       
    20     -0.521031  1 P  py                17      0.413948  1 P  py         
    24      0.357847  1 P  py                13      0.269431  1 P  px         

 Vector   22  Occ=0.000000D+00  E= 6.345859D-02
              MO Center=  6.9D-05, -9.6D-06, -1.4D+00, r^2= 9.6D+00
   Bfn.  Coefficient  Atom+Function         Bfn.  Coefficient  Atom+Function  
  ----- ------------  ---------------      ----- ------------  ---------------
    21      4.545280  1 P  pz                56     -4.035283  2 H  s          
     6      2.839450  1 P  s                 25     -2.436655  1 P  pz         
    57      1.263443  2 H  s                 41     -0.783500  1 P  dyy        
    38     -0.773279  1 P  dxx               66      0.761692  2 H  pz         
    43      0.539070  1 P  dzz               22      0.350085  1 P  s          

 Vector   23  Occ=0.000000D+00  E= 8.128111D-02
              MO Center= -4.9D-07, -2.8D-06, -1.1D-01, r^2= 1.1D+01
   Bfn.  Coefficient  Atom+Function         Bfn.  Coefficient  Atom+Function  
  ----- ------------  ---------------      ----- ------------  ---------------
    20      2.948530  1 P  py                17     -2.488989  1 P  py         
    24     -1.979724  1 P  py                50      0.710924  1 P  fyyy       
    52      0.702019  1 P  fyzz              45      0.688565  1 P  fxxy       
    19      0.521081  1 P  px                16     -0.439759  1 P  px         
    23     -0.349924  1 P  px                14      0.299238  1 P  py         

 Vector   24  Occ=0.000000D+00  E= 1.697699D-01
              MO Center= -3.0D-08,  4.5D-08,  3.8D-01, r^2= 7.5D+00
   Bfn.  Coefficient  Atom+Function         Bfn.  Coefficient  Atom+Function  
  ----- ------------  ---------------      ----- ------------  ---------------
    22      5.096460  1 P  s                 56      4.931920  2 H  s          
    57     -4.899278  2 H  s                 21     -3.724640  1 P  pz         
    43     -3.216814  1 P  dzz               25      2.899298  1 P  pz         
    38     -1.382149  1 P  dxx               41     -1.323447  1 P  dyy        
    18     -0.891759  1 P  pz                55      0.559930  2 H  s          

 Vector   25  Occ=0.000000D+00  E= 2.211859D-01
              MO Center= -2.8D-07,  5.1D-08,  9.6D-01, r^2= 3.6D+00
   Bfn.  Coefficient  Atom+Function         Bfn.  Coefficient  Atom+Function  
  ----- ------------  ---------------      ----- ------------  ---------------
    40      1.963135  1 P  dxz               64     -1.801729  2 H  px         
    16      0.917479  1 P  px                19      0.884390  1 P  px         
    49     -0.379495  1 P  fxzz              42     -0.346205  1 P  dyz        
    65      0.317740  2 H  py                47     -0.268899  1 P  fxyy       
    44     -0.256958  1 P  fxxx              23     -0.251621  1 P  px         

 Vector   26  Occ=0.000000D+00  E= 2.226723D-01
              MO Center=  2.8D-07, -4.6D-08,  8.5D-01, r^2= 6.4D+00
   Bfn.  Coefficient  Atom+Function         Bfn.  Coefficient  Atom+Function  
  ----- ------------  ---------------      ----- ------------  ---------------
    56      5.432365  2 H  s                 57     -4.670894  2 H  s          
    22      3.890105  1 P  s                 25      2.124251  1 P  pz         
     6     -2.073543  1 P  s                 21     -2.021232  1 P  pz         
    55     -1.897428  2 H  s                 66     -1.161066  2 H  pz         
    18     -1.013776  1 P  pz                38     -0.815670  1 P  dxx        

 Vector   27  Occ=0.000000D+00  E= 2.326831D-01
              MO Center= -1.3D-10,  1.5D-09,  9.4D-01, r^2= 3.7D+00
   Bfn.  Coefficient  Atom+Function         Bfn.  Coefficient  Atom+Function  
  ----- ------------  ---------------      ----- ------------  ---------------
    42      2.006150  1 P  dyz               65     -1.806602  2 H  py         
    17      0.969555  1 P  py                20      0.884502  1 P  py         
    52     -0.385530  1 P  fyzz              40      0.353787  1 P  dxz        
    64     -0.318598  2 H  px                50     -0.289124  1 P  fyyy       
    45     -0.279999  1 P  fxxy              24     -0.248827  1 P  py         

 Vector   28  Occ=0.000000D+00  E= 4.704577D-01
              MO Center=  1.8D-08, -2.5D-08,  2.6D-01, r^2= 6.3D+00
   Bfn.  Coefficient  Atom+Function         Bfn.  Coefficient  Atom+Function  
  ----- ------------  ---------------      ----- ------------  ---------------
    56     11.394299  2 H  s                  6    -10.329094  1 P  s          
    18     -8.810412  1 P  pz                21     -4.744551  1 P  pz         
    66     -4.196706  2 H  pz                43     -3.013916  1 P  dzz        
    51      2.557888  1 P  fyyz              46      2.523359  1 P  fxxz       
    53      2.360052  1 P  fzzz              57     -2.124689  2 H  s          

 Vector   29  Occ=0.000000D+00  E= 5.238592D-01
              MO Center= -9.3D-09,  1.1D-09, -1.4D-01, r^2= 2.0D+00
   Bfn.  Coefficient  Atom+Function         Bfn.  Coefficient  Atom+Function  
  ----- ------------  ---------------      ----- ------------  ---------------
    34      1.643901  1 P  dxz               40     -1.458550  1 P  dxz        
    16     -0.338966  1 P  px                36     -0.289877  1 P  dyz        
    42      0.257193  1 P  dyz               28      0.251981  1 P  dxz        
    49      0.170884  1 P  fxzz       


   alpha - beta orbital overlaps 
   ----------------------------- 


   alpha      1      2      3      4      5      6      7      8      9     10
    beta      1      2      3      5      4      6      7      9      8     10
 overlap   1.000  1.000  1.000  1.000  1.000  0.996  0.997  0.998  1.000  0.993


   alpha     11     12     13     14     15     16     17     18     19     20
    beta     11     15     12     13     16     14     18     17     19     20
 overlap   0.996  0.799  0.994  1.000  0.798  0.999  0.999  0.981  0.996  0.993


   alpha     21     22     23     24     25     26     27     28     29     30
    beta     21     22     23     24     26     25     27     28     30     31
 overlap   1.000  0.995  0.997  0.999  0.998  1.000  0.999  0.992  0.999  0.986


   alpha     31     32     33     34     35     36     37     38     39     40
    beta     29     32     33     34     35     36     37     40     38     41
 overlap   1.000  0.999  0.992  1.000  0.999  0.997  0.999  0.999  1.000  0.997


   alpha     41     42     43     44     45     46     47     48     49     50
    beta     39     42     43     44     45     46     47     48     49     50
 overlap   0.999  0.997  0.999  0.999  1.000  1.000  0.999  0.999  1.000  1.000


   alpha     51     52     53     54     55     56     57     58     59     60
    beta     51     53     52     54     55     56     58     57     59     60
 overlap   1.000  1.000  1.000  1.000  0.997  0.997  1.000  1.000  0.997  0.997


   alpha     61     62     63     64     65     66     67     68     69     70
    beta     61     62     63     64     65     66     67     68     69     70
 overlap   0.997  0.997  0.996  0.999  1.000  1.000  0.998  1.000  1.000  1.000


   alpha     71     72
    beta     71     72
 overlap   1.000  1.000

     --------------------------
     Expectation value of S2:  
     --------------------------
      <S2> =      0.7567 (Exact =     0.7500)


 center of mass
 --------------
 x =   0.00000000 y =   0.00000000 z =  -0.08330283

 moments of inertia (a.u.)
 ------------------
           7.053913691528           0.000000000000           0.000000000000
           0.000000000000           7.053913691528           0.000000000000
           0.000000000000           0.000000000000           0.000000000000

     Multipole analysis of the density
     ---------------------------------

     L   x y z        total         alpha         beta         nuclear
     -   - - -        -----         -----         ----         -------
     0   0 0 0      1.000000     -8.000000     -7.000000     16.000000

     1   1 0 0     -0.000000     -0.000000     -0.000000      0.000000
     1   0 1 0      0.000000     -0.000000      0.000000      0.000000
     1   0 0 1      0.262138      0.146829      0.115308      0.000000

     2   2 0 0     -6.241247     -3.642793     -2.598453      0.000000
     2   1 1 0     -0.346100     -0.379540      0.033440      0.000000
     2   1 0 1      0.000000     -0.000000      0.000000      0.000000
     2   0 2 0     -8.142908     -5.728206     -2.414702      0.000000
     2   0 1 1      0.000000      0.000000      0.000000      0.000000
     2   0 0 2     -7.294142     -7.474105     -6.595241      6.775204


 Parallel integral file used      20 records with       0 large values


 Task  times  cpu:       13.3s     wall:       13.8s


                                NWChem Input Module
                                -------------------


 Summary of allocated global arrays
-----------------------------------
  No active global arrays



                         GA Statistics for process    0
                         ------------------------------

       create   destroy   get      put      acc     scatter   gather  read&inc
calls:  255      255     8514     4967     2121        0        0      257     
number of processes/call 1.00e+00 1.00e+00 1.00e+00 0.00e+00 0.00e+00
bytes total:             5.71e+07 1.00e+07 2.88e+07 0.00e+00 0.00e+00 2.06e+03
bytes remote:            0.00e+00 0.00e+00 0.00e+00 0.00e+00 0.00e+00 0.00e+00
Max memory consumed for GA by this process: 2695680 bytes

MA_summarize_allocated_blocks: starting scan ...
MA_summarize_allocated_blocks: scan completed: 0 heap blocks, 0 stack blocks
MA usage statistics:

	allocation statistics:
					      heap	     stack
					      ----	     -----
	current number of blocks	         0	         0
	maximum number of blocks	        23	        51
	current total bytes		         0	         0
	maximum total bytes		  60647256	  22514408
	maximum total K-bytes		     60648	     22515
	maximum total M-bytes		        61	        23


                                     CITATION
                                     --------
                Please cite the following reference when publishing
                           results obtained with NWChem:

                 M. Valiev, E.J. Bylaska, N. Govind, K. Kowalski,
              T.P. Straatsma, H.J.J. van Dam, D. Wang, J. Nieplocha,
                        E. Apra, T.L. Windus, W.A. de Jong
                 "NWChem: a comprehensive and scalable open-source
                  solution for large scale molecular simulations"
                      Comput. Phys. Commun. 181, 1477 (2010)
                           doi:10.1016/j.cpc.2010.04.018

                                      AUTHORS
                                      -------
          E. Apra, E. J. Bylaska, W. A. de Jong, N. Govind, K. Kowalski,
       T. P. Straatsma, M. Valiev, H. J. J. van Dam, D. Wang, T. L. Windus,
        J. Hammond, J. Autschbach, K. Bhaskaran-Nair, J. Brabec, K. Lopata,
       S. A. Fischer, S. Krishnamoorthy, W. Ma, M. Klemm, O. Villa, Y. Chen,
    V. Anisimov, F. Aquino, S. Hirata, M. T. Hackler, T. Risthaus, M. Malagoli,
       A. Marenich, A. Otero-de-la-Roza, J. Mullin, P. Nichols, R. Peverati,
     J. Pittner, Y. Zhao, P.-D. Fan, A. Fonari, M. Williamson, R. J. Harrison,
       J. R. Rehr, M. Dupuis, D. Silverstein, D. M. A. Smith, J. Nieplocha,
        V. Tipparaju, M. Krishnan, B. E. Van Kuiken, A. Vazquez-Mayagoitia,
        L. Jensen, M. Swart, Q. Wu, T. Van Voorhis, A. A. Auer, M. Nooijen,
      L. D. Crosby, E. Brown, G. Cisneros, G. I. Fann, H. Fruchtl, J. Garza,
        K. Hirao, R. A. Kendall, J. A. Nichols, K. Tsemekhman, K. Wolinski,
     J. Anchell, D. E. Bernholdt, P. Borowski, T. Clark, D. Clerc, H. Dachsel,
   M. J. O. Deegan, K. Dyall, D. Elwood, E. Glendening, M. Gutowski, A. C. Hess,
         J. Jaffe, B. G. Johnson, J. Ju, R. Kobayashi, R. Kutteh, Z. Lin,
   R. Littlefield, X. Long, B. Meng, T. Nakajima, S. Niu, L. Pollack, M. Rosing,
   K. Glaesemann, G. Sandrone, M. Stave, H. Taylor, G. Thomas, J. H. van Lenthe,
                               A. T. Wong, Z. Zhang.

 Total times  cpu:       13.4s     wall:       14.0s
