[1537884213.926348] [r8n3:29008:0]         sys.c:744  MXM  WARN  Conflicting CPU frequencies detected, using: 2499.99
[1537884213.932215] [r8n3:29008:0]         mxm.c:196  MXM  WARN  The 'ulimit -s' on the system is set to 'unlimited'. This may have negative performance implications. Please set the stack size to the default value (10240) 
[1537884213.934261] [r8n3:29008:0]         mxm.c:196  MXM  WARN  The 'ulimit -s' on the system is set to 'unlimited'. This may have negative performance implications. Please set the stack size to the default value (10240) 
 argument  1 = /storage/home/bikashp/nwchem_run/rabeet/ip13g2/nwrevtpss/Si+.nw
                                         
                                         


              Northwest Computational Chemistry Package (NWChem) 6.6
              ------------------------------------------------------


                    Environmental Molecular Sciences Laboratory
                       Pacific Northwest National Laboratory
                                Richland, WA 99352

                              Copyright (c) 1994-2015
                       Pacific Northwest National Laboratory
                            Battelle Memorial Institute

             NWChem is an open-source computational chemistry package
                        distributed under the terms of the
                      Educational Community License (ECL) 2.0
             A copy of the license is included with this distribution
                              in the LICENSE.TXT file

                                  ACKNOWLEDGMENT
                                  --------------

            This software and its documentation were developed at the
            EMSL at Pacific Northwest National Laboratory, a multiprogram
            national laboratory, operated for the U.S. Department of Energy
            by Battelle under Contract Number DE-AC05-76RL01830. Support
            for this work was provided by the Department of Energy Office
            of Biological and Environmental Research, Office of Basic
            Energy Sciences, and the Office of Advanced Scientific Computing.


           Job information
           ---------------

    hostname        = r8n3.niserhpc.org
    program         = /home/bikashp/Code/nwchem-6.6_revtpss/bin/LINUX64/nwchem
    date            = Tue Sep 25 19:33:34 2018

    compiled        = Tue_Sep_25_17:05:19_2018
    source          = /home/bikashp/Code/nwchem-6.6_revtpss
    nwchem branch   = 6.6
    nwchem revision = 27746
    ga revision     = 10594
    input           = /storage/home/bikashp/nwchem_run/rabeet/ip13g2/nwrevtpss/Si+.nw
    prefix          = Si+.
    data base       = ./Si+.db
    status          = startup
    nproc           =        1
    time left       =     -1s



           Memory information
           ------------------

    heap     =   13107196 doubles =    100.0 Mbytes
    stack    =   13107201 doubles =    100.0 Mbytes
    global   =   26214400 doubles =    200.0 Mbytes (distinct from heap & stack)
    total    =   52428797 doubles =    400.0 Mbytes
    verify   = yes
    hardfail = no 


           Directory information
           ---------------------

  0 permanent = .
  0 scratch   = .




                                NWChem Input Module
                                -------------------



 Scaling coordinates for geometry "geometry" by  1.889725989
 (inverse scale =  0.529177249)



                             Geometry "geometry" -> ""
                             -------------------------

 Output coordinates in angstroms (scale by  1.889725989 to convert to a.u.)

  No.       Tag          Charge          X              Y              Z
 ---- ---------------- ---------- -------------- -------------- --------------
    1 Si                  14.0000     0.00000000     0.00000000     0.00000000

      Atomic Mass 
      ----------- 

      Si                27.976930


 Effective nuclear repulsion energy (a.u.)       0.0000000000

            Nuclear Dipole moment (a.u.) 
            ----------------------------
        X                 Y               Z
 ---------------- ---------------- ----------------
     0.0000000000     0.0000000000     0.0000000000


            XYZ format geometry
            -------------------
     1
 geometry
 Si                    0.00000000     0.00000000     0.00000000



 Summary of "ao basis" -> "" (cartesian)
 ------------------------------------------------------------------------------
       Tag                 Description            Shells   Functions and Types
 ---------------- ------------------------------  ------  ---------------------
 *                     6-311++G(3df,3pd)              on all atoms 



                                 NWChem DFT Module
                                 -----------------


                      Basis "ao basis" -> "ao basis" (cartesian)
                      -----
  Si (Silicon)
  ------------
            Exponent  Coefficients 
       -------------- ---------------------------------------------------------
  1 S  6.93792300E+04  0.000757
  1 S  1.03549400E+04  0.005932
  1 S  2.33387960E+03  0.031088
  1 S  6.57142950E+02  0.124967
  1 S  2.14301130E+02  0.386897
  1 S  7.76291680E+01  0.554888

  2 S  7.76291680E+01  0.177881
  2 S  3.06308070E+01  0.627765
  2 S  1.28012950E+01  0.247623

  3 S  3.92686600E+00  1.000000

  4 S  1.45234300E+00  1.000000

  5 S  2.56234000E-01  1.000000

  6 S  9.42790000E-02  1.000000

  7 P  3.35483190E+02  0.008866
  7 P  7.89003660E+01  0.068299
  7 P  2.49881500E+01  0.290958
  7 P  9.21971100E+00  0.732117

  8 P  3.62114000E+00  0.619879
  8 P  1.45131000E+00  0.439148

  9 P  5.04977000E-01  1.000000

 10 P  1.86317000E-01  1.000000

 11 P  6.54320000E-02  1.000000

 12 S  3.31000000E-02  1.000000

 13 P  3.31000000E-02  1.000000

 14 D  1.80000000E+00  1.000000

 15 D  4.50000000E-01  1.000000

 16 D  1.12500000E-01  1.000000

 17 F  3.20000000E-01  1.000000



 Summary of "ao basis" -> "ao basis" (cartesian)
 ------------------------------------------------------------------------------
       Tag                 Description            Shells   Functions and Types
 ---------------- ------------------------------  ------  ---------------------
 Si                    6-311++G(3df,3pd)            17       53   7s6p3d1f




 Summary of "ao basis" -> "ao basis" (cartesian)
 ------------------------------------------------------------------------------
       Tag                 Description            Shells   Functions and Types
 ---------------- ------------------------------  ------  ---------------------
 Si                    6-311++G(3df,3pd)            17       53   7s6p3d1f


  Caching 1-el integrals 

            General Information
            -------------------
          SCF calculation type: DFT
          Wavefunction type:  spin polarized.
          No. of atoms     :     1
          No. of electrons :    13
           Alpha electrons :     7
            Beta electrons :     6
          Charge           :     1
          Spin multiplicity:     2
          Use of symmetry is: off; symmetry adaption is: off
          Maximum number of iterations: ***
          AO basis - number of functions:    53
                     number of shells:    17
          Convergence on energy requested: 1.00D-06
          Convergence on density requested: 1.00D-05
          Convergence on gradient requested: 5.00D-04

              XC Information
              --------------
                  TPSS metaGGA Exchange Functional  1.000          
             TPSS03 metaGGA Correlation Functional  1.000          

             Grid Information
             ----------------
          Grid used for XC integration:  medium    
          Radial quadrature: Mura-Knowles        
          Angular quadrature: Lebedev. 
          Tag              B.-S. Rad. Rad. Pts. Rad. Cut. Ang. Pts.
          ---              ---------- --------- --------- ---------
          Si                  1.10       88           9.0       590
          Grid pruning is: on 
          Number of quadrature shells:    88
          Spatial weights used:  Erf1

          Convergence Information
          -----------------------
          Convergence aids based upon iterative change in 
          total energy or number of iterations. 
          Levelshifting, if invoked, occurs when the 
          HOMO/LUMO gap drops below (HL_TOL): 1.00D-02
          DIIS, if invoked, will attempt to extrapolate 
          using up to (NFOCK): 10 stored Fock matrices.

                    Damping( 0%)  Levelshifting(0.5)       DIIS
                  --------------- ------------------- ---------------
          dE  on:    start            ASAP                start   
          dE off:    2 iters        *** iters           *** iters 


      Screening Tolerance Information
      -------------------------------
          Density screening/tol_rho: 1.00D-10
          AO Gaussian exp screening on grid/accAOfunc:  14
          CD Gaussian exp screening on grid/accCDfunc:  20
          XC Gaussian exp screening on grid/accXCfunc:  20
          Schwarz screening/accCoul: 1.00D-08


      Superposition of Atomic Density Guess
      -------------------------------------

 Sum of atomic energies:        -288.83675415

 Renormalizing density from      14.00 to     13

      Non-variational initial energy
      ------------------------------

 Total energy =    -275.423910
 1-e energy   =    -371.898149
 2-e energy   =      96.474239
 HOMO         =      -0.495612
 LUMO         =      -0.495612

   Time after variat. SCF:      0.2
   Time prior to 1st pass:      0.2

 Integral file          = ./Si+.aoints.0
 Record size in doubles =    65536    No. of integs per rec  =    43688
 Max. records in memory =       34    Max. records in file   = ********
 No. of bits per label  =        8    No. of bits per value  =       64


 #quartets = 1.178D+04 #integrals = 1.645D+05 #direct =  0.0% #cached =100.0%


 Grid_pts file          = ./Si+.gridpts.0
 Record size in doubles =  12289        No. of grid_pts per rec  =   3070
 Max. records in memory =     20        Max. recs in file   = 995337752


           Memory utilization after 1st SCF pass: 
           Heap Space remaining (MW):       10.63            10630236
          Stack Space remaining (MW):       13.11            13106660

   convergence    iter        energy       DeltaE   RMS-Dens  Diis-err    time
 ---------------- ----- ----------------- --------- --------- ---------  ------
 d= 0,ls=0.0,diis     1   -288.8074946790 -2.89D+02  2.77D-02  1.82D+00     1.2
                                                     2.77D-02  1.83D+00
 d= 0,ls=0.0,diis     2   -288.9304765850 -1.23D-01  5.01D-03  5.18D-01     1.9
                                                     5.51D-03  5.12D-01
 d= 0,ls=0.0,diis     3   -288.9756100702 -4.51D-02  7.70D-04  6.79D-05     2.6
                                                     4.71D-04  5.63D-05
 d= 0,ls=0.0,diis     4   -288.9756427322 -3.27D-05  1.22D-04  1.15D-06     3.3
                                                     7.47D-05  1.09D-06
 d= 0,ls=0.0,diis     5   -288.9756428272 -9.50D-08  5.21D-06  6.73D-09     4.1
                                                     3.01D-06  6.29D-09


         Total DFT energy =     -288.975642827162
      One electron energy =     -395.803182190821
           Coulomb energy =      127.275027745522
          Exchange energy =      -19.970128763363
       Correlation energy =       -0.477359618499
 Nuclear repulsion energy =        0.000000000000

 Numeric. integr. density =       13.000000000067

     Total iterative time =      3.9s



                    DFT Final Alpha Molecular Orbital Analysis
                    ------------------------------------------

 Vector    1  Occ=1.000000D+00  E=-6.611853D+01
              MO Center= -9.2D-17, -9.1D-17, -1.2D-16, r^2= 4.7D-03
   Bfn.  Coefficient  Atom+Function         Bfn.  Coefficient  Atom+Function  
  ----- ------------  ---------------      ----- ------------  ---------------
     2      0.645597  1 Si s                  1      0.418483  1 Si s          

 Vector    2  Occ=1.000000D+00  E=-5.516215D+00
              MO Center=  3.7D-15,  1.7D-14,  5.1D-15, r^2= 1.1D-01
   Bfn.  Coefficient  Atom+Function         Bfn.  Coefficient  Atom+Function  
  ----- ------------  ---------------      ----- ------------  ---------------
     3      0.553421  1 Si s                  4      0.545538  1 Si s          
     2     -0.305660  1 Si s          

 Vector    3  Occ=1.000000D+00  E=-3.878680D+00
              MO Center= -6.1D-15, -7.7D-15,  5.2D-15, r^2= 1.0D-01
   Bfn.  Coefficient  Atom+Function         Bfn.  Coefficient  Atom+Function  
  ----- ------------  ---------------      ----- ------------  ---------------
    11      0.551159  1 Si py                10      0.340605  1 Si px         
     8      0.321425  1 Si py                12     -0.238082  1 Si pz         
     7      0.198634  1 Si px         

 Vector    4  Occ=1.000000D+00  E=-3.878680D+00
              MO Center=  4.0D-15, -3.6D-15, -7.8D-15, r^2= 1.0D-01
   Bfn.  Coefficient  Atom+Function         Bfn.  Coefficient  Atom+Function  
  ----- ------------  ---------------      ----- ------------  ---------------
    12      0.530814  1 Si pz                11      0.374000  1 Si py         
     9      0.309560  1 Si pz                10     -0.234161  1 Si px         
     8      0.218109  1 Si py         

 Vector    5  Occ=1.000000D+00  E=-3.870050D+00
              MO Center= -1.4D-15,  2.8D-15, -3.6D-16, r^2= 1.0D-01
   Bfn.  Coefficient  Atom+Function         Bfn.  Coefficient  Atom+Function  
  ----- ------------  ---------------      ----- ------------  ---------------
    10      0.552571  1 Si px                12      0.371339  1 Si pz         
     7      0.323286  1 Si px                 9      0.217255  1 Si pz         
    11     -0.181072  1 Si py         

 Vector    6  Occ=1.000000D+00  E=-7.187705D-01
              MO Center= -1.3D-14,  2.4D-13,  5.9D-14, r^2= 1.4D+00
   Bfn.  Coefficient  Atom+Function         Bfn.  Coefficient  Atom+Function  
  ----- ------------  ---------------      ----- ------------  ---------------
     5      0.631528  1 Si s                  6      0.611501  1 Si s          
     4     -0.339195  1 Si s                  3     -0.220988  1 Si s          

 Vector    7  Occ=1.000000D+00  E=-4.607471D-01
              MO Center=  2.4D-14,  1.2D-13,  5.6D-14, r^2= 1.9D+00
   Bfn.  Coefficient  Atom+Function         Bfn.  Coefficient  Atom+Function  
  ----- ------------  ---------------      ----- ------------  ---------------
    16      0.473000  1 Si px                18      0.317867  1 Si pz         
    13      0.228334  1 Si px                19      0.188750  1 Si px         
    10     -0.155465  1 Si px                17     -0.154995  1 Si py         
    15      0.153445  1 Si pz         

 Vector    8  Occ=0.000000D+00  E=-4.280671D-01
              MO Center=  5.9D-14,  1.1D-13, -3.0D-14, r^2= 2.0D+00
   Bfn.  Coefficient  Atom+Function         Bfn.  Coefficient  Atom+Function  
  ----- ------------  ---------------      ----- ------------  ---------------
    18      0.464419  1 Si pz                16     -0.235614  1 Si px         
    17      0.233401  1 Si py                15      0.228660  1 Si pz         
    21      0.220510  1 Si pz                12     -0.154730  1 Si pz         

 Vector    9  Occ=0.000000D+00  E=-4.280669D-01
              MO Center= -3.8D-14,  3.6D-14,  8.3D-14, r^2= 2.0D+00
   Bfn.  Coefficient  Atom+Function         Bfn.  Coefficient  Atom+Function  
  ----- ------------  ---------------      ----- ------------  ---------------
    17      0.498767  1 Si py                16      0.247504  1 Si px         
    14      0.245571  1 Si py                20      0.236815  1 Si py         
    11     -0.166174  1 Si py         

 Vector   10  Occ=0.000000D+00  E=-1.634714D-01
              MO Center=  1.5D-13,  1.6D-12,  5.3D-13, r^2= 9.5D+00
   Bfn.  Coefficient  Atom+Function         Bfn.  Coefficient  Atom+Function  
  ----- ------------  ---------------      ----- ------------  ---------------
    22      1.505497  1 Si s                  6     -0.585076  1 Si s          
     5     -0.438002  1 Si s          

 Vector   11  Occ=0.000000D+00  E=-1.169280D-01
              MO Center= -2.5D-14,  3.3D-13,  4.0D-13, r^2= 3.5D+00
   Bfn.  Coefficient  Atom+Function         Bfn.  Coefficient  Atom+Function  
  ----- ------------  ---------------      ----- ------------  ---------------
    39      0.879274  1 Si dxy               40      0.623785  1 Si dxz        
    43      0.553406  1 Si dzz               38     -0.297189  1 Si dxx        
    33      0.265214  1 Si dxy               41     -0.256220  1 Si dyy        
    42      0.255579  1 Si dyz               34      0.188152  1 Si dxz        
    37      0.166923  1 Si dzz        

 Vector   12  Occ=0.000000D+00  E=-1.169280D-01
              MO Center=  3.0D-13,  3.2D-13, -1.4D-13, r^2= 3.5D+00
   Bfn.  Coefficient  Atom+Function         Bfn.  Coefficient  Atom+Function  
  ----- ------------  ---------------      ----- ------------  ---------------
    42      0.730360  1 Si dyz               38      0.636951  1 Si dxx        
    39      0.610773  1 Si dxy               43     -0.368411  1 Si dzz        
    41     -0.268542  1 Si dyy               36      0.220298  1 Si dyz        
    32      0.192123  1 Si dxx               33      0.184227  1 Si dxy        

 Vector   13  Occ=0.000000D+00  E=-1.137151D-01
              MO Center=  5.3D-13, -2.5D-13,  3.7D-13, r^2= 3.5D+00
   Bfn.  Coefficient  Atom+Function         Bfn.  Coefficient  Atom+Function  
  ----- ------------  ---------------      ----- ------------  ---------------
    40      1.088567  1 Si dxz               39     -0.530694  1 Si dxy        
    38      0.366516  1 Si dxx               41     -0.356383  1 Si dyy        
    42     -0.356819  1 Si dyz               34      0.335658  1 Si dxz        
    33     -0.163643  1 Si dxy        

 Vector   14  Occ=0.000000D+00  E=-1.104474D-01
              MO Center= -3.6D-13,  5.5D-13,  6.3D-13, r^2= 1.3D+01
   Bfn.  Coefficient  Atom+Function         Bfn.  Coefficient  Atom+Function  
  ----- ------------  ---------------      ----- ------------  ---------------
    25     -0.886096  1 Si pz                23      0.833172  1 Si px         
    24      0.721252  1 Si py                21      0.347760  1 Si pz         
    19     -0.326943  1 Si px                20     -0.283058  1 Si py         
    15      0.173539  1 Si pz                13     -0.163153  1 Si px         

 Vector   15  Occ=0.000000D+00  E=-1.104373D-01
              MO Center=  2.3D-13, -5.0D-13, -7.7D-13, r^2= 1.3D+01
   Bfn.  Coefficient  Atom+Function         Bfn.  Coefficient  Atom+Function  
  ----- ------------  ---------------      ----- ------------  ---------------
    24      1.159380  1 Si py                25      0.793529  1 Si pz         
    20     -0.454879  1 Si py                21     -0.311461  1 Si pz         
    14     -0.227036  1 Si py                45     -0.172414  1 Si fxxy       
    50     -0.170696  1 Si fyyy              52     -0.170769  1 Si fyzz       
    17      0.166260  1 Si py                23     -0.159702  1 Si px         

 Vector   16  Occ=0.000000D+00  E=-1.103011D-01
              MO Center= -6.2D-13, -4.6D-13, -4.9D-13, r^2= 1.3D+01
   Bfn.  Coefficient  Atom+Function         Bfn.  Coefficient  Atom+Function  
  ----- ------------  ---------------      ----- ------------  ---------------
    23      1.107028  1 Si px                25      0.748384  1 Si pz         
    19     -0.397313  1 Si px                24     -0.359469  1 Si py         
    21     -0.268743  1 Si pz                13     -0.201748  1 Si px         

 Vector   17  Occ=0.000000D+00  E=-1.073956D-01
              MO Center= -9.7D-14, -7.8D-13, -2.3D-13, r^2= 3.6D+00
   Bfn.  Coefficient  Atom+Function         Bfn.  Coefficient  Atom+Function  
  ----- ------------  ---------------      ----- ------------  ---------------
    42      1.177872  1 Si dyz               39     -0.800838  1 Si dxy        
    36      0.340077  1 Si dyz               33     -0.231222  1 Si dxy        
    43      0.189432  1 Si dzz               38     -0.175298  1 Si dxx        

 Vector   18  Occ=0.000000D+00  E=-1.073938D-01
              MO Center= -8.6D-14, -8.9D-13, -3.0D-13, r^2= 3.6D+00
   Bfn.  Coefficient  Atom+Function         Bfn.  Coefficient  Atom+Function  
  ----- ------------  ---------------      ----- ------------  ---------------
    40      0.733329  1 Si dxz               41      0.687211  1 Si dyy        
    43     -0.488932  1 Si dzz               39      0.294043  1 Si dxy        
    42      0.232698  1 Si dyz               34      0.211730  1 Si dxz        
    35      0.198418  1 Si dyy               38     -0.198278  1 Si dxx        

 Vector   19  Occ=0.000000D+00  E= 5.790764D-02
              MO Center=  2.8D-12,  4.8D-11,  1.4D-11, r^2= 1.1D+01
   Bfn.  Coefficient  Atom+Function         Bfn.  Coefficient  Atom+Function  
  ----- ------------  ---------------      ----- ------------  ---------------
    22      2.485350  1 Si s                  6      2.111473  1 Si s          
    38     -1.800611  1 Si dxx               41     -1.800675  1 Si dyy        
    43     -1.800649  1 Si dzz                5     -0.420656  1 Si s          
     4     -0.282030  1 Si s                 32     -0.258560  1 Si dxx        
    37     -0.253382  1 Si dzz               35     -0.250135  1 Si dyy        

 Vector   20  Occ=0.000000D+00  E= 5.979785D-02
              MO Center= -2.5D-12, -1.1D-12,  3.1D-12, r^2= 1.3D+01
   Bfn.  Coefficient  Atom+Function         Bfn.  Coefficient  Atom+Function  
  ----- ------------  ---------------      ----- ------------  ---------------
    18      3.349862  1 Si pz                21     -2.922827  1 Si pz         
    16     -2.654568  1 Si px                19      2.316163  1 Si px         
    25      1.743864  1 Si pz                23     -1.381903  1 Si px         
    17     -1.229530  1 Si py                20      1.072778  1 Si py         
    46     -1.028997  1 Si fxxz              51     -1.028576  1 Si fyyz       

 Vector   21  Occ=0.000000D+00  E= 5.980236D-02
              MO Center= -2.4D-12, -4.6D-11, -1.9D-11, r^2= 1.3D+01
   Bfn.  Coefficient  Atom+Function         Bfn.  Coefficient  Atom+Function  
  ----- ------------  ---------------      ----- ------------  ---------------
    17      4.111745  1 Si py                20     -3.587633  1 Si py         
    24      2.140536  1 Si py                18      1.681029  1 Si pz         
    21     -1.466763  1 Si pz                45     -1.261429  1 Si fxxy       
    50     -1.262758  1 Si fyyy              52     -1.262505  1 Si fyzz       
    25      0.875143  1 Si pz                14     -0.720868  1 Si py         

 Vector   22  Occ=0.000000D+00  E= 6.209961D-02
              MO Center=  2.1D-12, -6.5D-13,  1.4D-12, r^2= 1.4D+01
   Bfn.  Coefficient  Atom+Function         Bfn.  Coefficient  Atom+Function  
  ----- ------------  ---------------      ----- ------------  ---------------
    16      3.547408  1 Si px                19     -3.116533  1 Si px         
    18      2.384588  1 Si pz                21     -2.094951  1 Si pz         
    23      1.867916  1 Si px                25      1.255623  1 Si pz         
    17     -1.162052  1 Si py                44     -1.087997  1 Si fxxx       
    47     -1.089965  1 Si fxyy              49     -1.086967  1 Si fxzz       

 Vector   23  Occ=0.000000D+00  E= 4.358475D-01
              MO Center=  3.0D-15,  9.2D-15,  9.8D-16, r^2= 2.3D+00
   Bfn.  Coefficient  Atom+Function         Bfn.  Coefficient  Atom+Function  
  ----- ------------  ---------------      ----- ------------  ---------------
    36      1.401665  1 Si dyz               42     -0.996229  1 Si dyz        
    33     -0.952737  1 Si dxy               39      0.677155  1 Si dxy        
    37      0.225196  1 Si dzz               32     -0.208747  1 Si dxx        
    30      0.175909  1 Si dyz               43     -0.160057  1 Si dzz        
    34      0.156534  1 Si dxz        

 Vector   24  Occ=0.000000D+00  E= 4.358488D-01
              MO Center=  4.9D-15,  1.2D-14,  4.6D-16, r^2= 2.3D+00
   Bfn.  Coefficient  Atom+Function         Bfn.  Coefficient  Atom+Function  
  ----- ------------  ---------------      ----- ------------  ---------------
    34      0.872647  1 Si dxz               35      0.817675  1 Si dyy        
    40     -0.620233  1 Si dxz               37     -0.581848  1 Si dzz        
    41     -0.581163  1 Si dyy               43      0.413548  1 Si dzz        
    33      0.350085  1 Si dxy               36      0.276423  1 Si dyz        
    39     -0.248823  1 Si dxy               32     -0.235826  1 Si dxx        

 Vector   25  Occ=0.000000D+00  E= 4.413677D-01
              MO Center= -8.2D-15,  1.5D-14, -2.4D-15, r^2= 2.3D+00
   Bfn.  Coefficient  Atom+Function         Bfn.  Coefficient  Atom+Function  
  ----- ------------  ---------------      ----- ------------  ---------------
    33      1.273121  1 Si dxy               39     -0.915297  1 Si dxy        
    36      0.684900  1 Si dyz               34      0.588096  1 Si dxz        
    42     -0.492402  1 Si dyz               35     -0.422564  1 Si dyy        
    40     -0.422806  1 Si dxz               37      0.372635  1 Si dzz        
    41      0.303797  1 Si dyy               43     -0.267903  1 Si dzz        

 Vector   26  Occ=0.000000D+00  E= 4.413677D-01
              MO Center=  2.4D-15,  1.9D-14, -1.0D-14, r^2= 2.3D+00
   Bfn.  Coefficient  Atom+Function         Bfn.  Coefficient  Atom+Function  
  ----- ------------  ---------------      ----- ------------  ---------------
    32      0.839569  1 Si dxx               37     -0.702851  1 Si dzz        
    36      0.623102  1 Si dyz               38     -0.603598  1 Si dxx        
    43      0.505308  1 Si dzz               34     -0.481680  1 Si dxz        
    42     -0.447973  1 Si dyz               40      0.346299  1 Si dxz        

 Vector   27  Occ=0.000000D+00  E= 4.443784D-01
              MO Center=  1.6D-15,  3.7D-14,  1.6D-14, r^2= 2.3D+00
   Bfn.  Coefficient  Atom+Function         Bfn.  Coefficient  Atom+Function  
  ----- ------------  ---------------      ----- ------------  ---------------
    34      1.306541  1 Si dxz               40     -0.945703  1 Si dxz        
    33     -0.637203  1 Si dxy                6      0.602620  1 Si s          
    38     -0.530480  1 Si dxx               39      0.461222  1 Si dxy        
    35     -0.440695  1 Si dyy               32      0.427069  1 Si dxx        
    36     -0.428103  1 Si dyz               42      0.309870  1 Si dyz        

 Vector   28  Occ=0.000000D+00  E= 5.127109D-01
              MO Center=  5.6D-14, -4.5D-14, -7.5D-14, r^2= 6.8D+00
   Bfn.  Coefficient  Atom+Function         Bfn.  Coefficient  Atom+Function  
  ----- ------------  ---------------      ----- ------------  ---------------
    18     -8.434222  1 Si pz                16      8.120093  1 Si px         
    17      7.482402  1 Si py                46      3.379876  1 Si fxxz       
    51      3.371058  1 Si fyyz              53      3.371575  1 Si fzzz       
    49     -3.260968  1 Si fxzz              44     -3.240124  1 Si fxxx       
    47     -3.256166  1 Si fxyy              45     -2.992694  1 Si fxxy       


                     DFT Final Beta Molecular Orbital Analysis
                     -----------------------------------------

 Vector    1  Occ=1.000000D+00  E=-6.611506D+01
              MO Center= -1.1D-16, -7.9D-17, -8.0D-17, r^2= 4.7D-03
   Bfn.  Coefficient  Atom+Function         Bfn.  Coefficient  Atom+Function  
  ----- ------------  ---------------      ----- ------------  ---------------
     2      0.645612  1 Si s                  1      0.418497  1 Si s          

 Vector    2  Occ=1.000000D+00  E=-5.513096D+00
              MO Center=  1.9D-15,  1.7D-14,  4.9D-15, r^2= 1.1D-01
   Bfn.  Coefficient  Atom+Function         Bfn.  Coefficient  Atom+Function  
  ----- ------------  ---------------      ----- ------------  ---------------
     3      0.552004  1 Si s                  4      0.547301  1 Si s          
     2     -0.305477  1 Si s          

 Vector    3  Occ=1.000000D+00  E=-3.876720D+00
              MO Center= -6.0D-15, -7.2D-15,  4.9D-15, r^2= 1.0D-01
   Bfn.  Coefficient  Atom+Function         Bfn.  Coefficient  Atom+Function  
  ----- ------------  ---------------      ----- ------------  ---------------
    11      0.553548  1 Si py                10      0.339279  1 Si px         
     8      0.322602  1 Si py                12     -0.234944  1 Si pz         
     7      0.197729  1 Si px         

 Vector    4  Occ=1.000000D+00  E=-3.876720D+00
              MO Center=  3.8D-15, -3.8D-15, -8.4D-15, r^2= 1.0D-01
   Bfn.  Coefficient  Atom+Function         Bfn.  Coefficient  Atom+Function  
  ----- ------------  ---------------      ----- ------------  ---------------
    12      0.532379  1 Si pz                11      0.370774  1 Si py         
     9      0.310265  1 Si pz                10     -0.236271  1 Si px         
     8      0.216083  1 Si py         

 Vector    5  Occ=1.000000D+00  E=-3.859426D+00
              MO Center= -1.3D-16,  2.7D-15,  8.5D-16, r^2= 1.0D-01
   Bfn.  Coefficient  Atom+Function         Bfn.  Coefficient  Atom+Function  
  ----- ------------  ---------------      ----- ------------  ---------------
    10      0.553500  1 Si px                12      0.371963  1 Si pz         
     7      0.322705  1 Si px                 9      0.216864  1 Si pz         
    11     -0.181376  1 Si py         

 Vector    6  Occ=1.000000D+00  E=-6.780367D-01
              MO Center=  5.8D-14,  4.3D-13,  1.5D-13, r^2= 1.4D+00
   Bfn.  Coefficient  Atom+Function         Bfn.  Coefficient  Atom+Function  
  ----- ------------  ---------------      ----- ------------  ---------------
     5      0.642871  1 Si s                  6      0.579109  1 Si s          
     4     -0.348727  1 Si s                  3     -0.217191  1 Si s          

 Vector    7  Occ=0.000000D+00  E=-4.174903D-01
              MO Center=  1.3D-13,  8.7D-14, -1.4D-13, r^2= 2.0D+00
   Bfn.  Coefficient  Atom+Function         Bfn.  Coefficient  Atom+Function  
  ----- ------------  ---------------      ----- ------------  ---------------
    18      0.450685  1 Si pz                17      0.264449  1 Si py         
    15      0.227757  1 Si pz                16     -0.216215  1 Si px         
    21      0.216865  1 Si pz                12     -0.152290  1 Si pz         

 Vector    8  Occ=0.000000D+00  E=-4.174900D-01
              MO Center= -1.1D-13, -5.5D-14,  1.6D-13, r^2= 2.0D+00
   Bfn.  Coefficient  Atom+Function         Bfn.  Coefficient  Atom+Function  
  ----- ------------  ---------------      ----- ------------  ---------------
    17      0.477324  1 Si py                16      0.260606  1 Si px         
    14      0.241221  1 Si py                20      0.229682  1 Si py         
    11     -0.161292  1 Si py                18     -0.155045  1 Si pz         

 Vector    9  Occ=0.000000D+00  E=-3.733290D-01
              MO Center=  2.7D-14,  2.7D-13,  7.6D-14, r^2= 2.2D+00
   Bfn.  Coefficient  Atom+Function         Bfn.  Coefficient  Atom+Function  
  ----- ------------  ---------------      ----- ------------  ---------------
    16      0.550570  1 Si px                18      0.369995  1 Si pz         
    19      0.235716  1 Si px                13      0.180163  1 Si px         
    17     -0.180415  1 Si py                21      0.158406  1 Si pz         

 Vector   10  Occ=0.000000D+00  E=-1.484948D-01
              MO Center=  2.8D-13,  2.3D-12,  8.1D-13, r^2= 9.4D+00
   Bfn.  Coefficient  Atom+Function         Bfn.  Coefficient  Atom+Function  
  ----- ------------  ---------------      ----- ------------  ---------------
    22      1.499918  1 Si s                  6     -0.577988  1 Si s          
     5     -0.437388  1 Si s                  4      0.153438  1 Si s          

 Vector   11  Occ=0.000000D+00  E=-1.028948D-01
              MO Center=  2.4D-13,  1.1D-12,  2.0D-13, r^2= 3.6D+00
   Bfn.  Coefficient  Atom+Function         Bfn.  Coefficient  Atom+Function  
  ----- ------------  ---------------      ----- ------------  ---------------
    42      1.181079  1 Si dyz               39     -0.787216  1 Si dxy        
    36      0.347933  1 Si dyz               33     -0.231904  1 Si dxy        
    38     -0.181515  1 Si dxx               43      0.171589  1 Si dzz        
    40      0.156352  1 Si dxz        

 Vector   12  Occ=0.000000D+00  E=-1.028928D-01
              MO Center=  1.2D-13,  1.1D-12,  3.5D-13, r^2= 3.6D+00
   Bfn.  Coefficient  Atom+Function         Bfn.  Coefficient  Atom+Function  
  ----- ------------  ---------------      ----- ------------  ---------------
    40      0.725758  1 Si dxz               41      0.684801  1 Si dyy        
    43     -0.493496  1 Si dzz               39      0.320653  1 Si dxy        
    34      0.213803  1 Si dxz               35      0.201737  1 Si dyy        
    38     -0.191311  1 Si dxx               42      0.190644  1 Si dyz        

 Vector   13  Occ=0.000000D+00  E=-1.016422D-01
              MO Center= -7.5D-13, -1.8D-12,  2.5D-13, r^2= 1.3D+01
   Bfn.  Coefficient  Atom+Function         Bfn.  Coefficient  Atom+Function  
  ----- ------------  ---------------      ----- ------------  ---------------
    25     -0.863526  1 Si pz                23      0.838700  1 Si px         
    24      0.788509  1 Si py                21      0.362616  1 Si pz         
    19     -0.352193  1 Si px                20     -0.331117  1 Si py         
    18     -0.188107  1 Si pz                15      0.183223  1 Si pz         
    16      0.182698  1 Si px                13     -0.177954  1 Si px         

 Vector   14  Occ=0.000000D+00  E=-1.016329D-01
              MO Center=  1.7D-13, -2.9D-12, -1.6D-12, r^2= 1.3D+01
   Bfn.  Coefficient  Atom+Function         Bfn.  Coefficient  Atom+Function  
  ----- ------------  ---------------      ----- ------------  ---------------
    24      1.142993  1 Si py                25      0.851592  1 Si pz         
    20     -0.479957  1 Si py                21     -0.357590  1 Si pz         
    17      0.249031  1 Si py                14     -0.242541  1 Si py         
    50     -0.201576  1 Si fyyy              52     -0.201404  1 Si fyzz       
    23     -0.197784  1 Si px                45     -0.190882  1 Si fxxy       

 Vector   15  Occ=0.000000D+00  E=-8.247329D-02
              MO Center= -4.3D-13, -1.8D-12, -1.5D-13, r^2= 1.4D+01
   Bfn.  Coefficient  Atom+Function         Bfn.  Coefficient  Atom+Function  
  ----- ------------  ---------------      ----- ------------  ---------------
    23      1.220158  1 Si px                25      0.819998  1 Si pz         
    19     -0.603476  1 Si px                21     -0.405559  1 Si pz         
    24     -0.399811  1 Si py                16      0.355006  1 Si px         
    13     -0.268697  1 Si px                47     -0.244659  1 Si fxyy       
    18      0.238577  1 Si pz                44     -0.236387  1 Si fxxx       

 Vector   16  Occ=0.000000D+00  E=-8.127821D-02
              MO Center=  7.2D-13,  1.2D-12, -5.2D-13, r^2= 3.6D+00
   Bfn.  Coefficient  Atom+Function         Bfn.  Coefficient  Atom+Function  
  ----- ------------  ---------------      ----- ------------  ---------------
    42      0.774347  1 Si dyz               39      0.729553  1 Si dxy        
    38      0.611232  1 Si dxx               43     -0.306509  1 Si dzz        
    41     -0.304729  1 Si dyy               36      0.200418  1 Si dyz        
    33      0.188823  1 Si dxy               32      0.158198  1 Si dxx        

 Vector   17  Occ=0.000000D+00  E=-8.127811D-02
              MO Center= -2.9D-13,  5.7D-13,  6.6D-13, r^2= 3.6D+00
   Bfn.  Coefficient  Atom+Function         Bfn.  Coefficient  Atom+Function  
  ----- ------------  ---------------      ----- ------------  ---------------
    39      0.818899  1 Si dxy               40      0.649484  1 Si dxz        
    43      0.608264  1 Si dzz               38     -0.380721  1 Si dxx        
    41     -0.227562  1 Si dyy               33      0.211948  1 Si dxy        
    42      0.169919  1 Si dyz               34      0.168096  1 Si dxz        
    37      0.157429  1 Si dzz        

 Vector   18  Occ=0.000000D+00  E=-7.811894D-02
              MO Center= -8.6D-14,  2.5D-14, -5.7D-14, r^2= 3.7D+00
   Bfn.  Coefficient  Atom+Function         Bfn.  Coefficient  Atom+Function  
  ----- ------------  ---------------      ----- ------------  ---------------
    40      1.131284  1 Si dxz               39     -0.551920  1 Si dxy        
    38      0.402794  1 Si dxx               42     -0.370799  1 Si dyz        
    41     -0.348595  1 Si dyy               34      0.272342  1 Si dxz        

 Vector   19  Occ=0.000000D+00  E= 6.612923D-02
              MO Center= -3.4D-12,  1.4D-13,  5.2D-12, r^2= 1.3D+01
   Bfn.  Coefficient  Atom+Function         Bfn.  Coefficient  Atom+Function  
  ----- ------------  ---------------      ----- ------------  ---------------
    18      3.680312  1 Si pz                21     -3.220660  1 Si pz         
    16     -2.454777  1 Si px                19      2.148182  1 Si px         
    25      1.915588  1 Si pz                23     -1.277694  1 Si px         
    46     -1.123599  1 Si fxxz              51     -1.123556  1 Si fyyz       
    53     -1.128739  1 Si fzzz              44      0.758273  1 Si fxxx       

 Vector   20  Occ=0.000000D+00  E= 6.613078D-02
              MO Center=  6.3D-12,  2.7D-11,  3.8D-12, r^2= 1.3D+01
   Bfn.  Coefficient  Atom+Function         Bfn.  Coefficient  Atom+Function  
  ----- ------------  ---------------      ----- ------------  ---------------
    17      4.268791  1 Si py                20     -3.735644  1 Si py         
    24      2.221892  1 Si py                45     -1.315997  1 Si fxxy       
    50     -1.303328  1 Si fyyy              52     -1.308166  1 Si fyzz       
    16      0.996324  1 Si px                19     -0.871884  1 Si px         
    14     -0.745584  1 Si py                18      0.598782  1 Si pz         

 Vector   21  Occ=0.000000D+00  E= 6.996594D-02
              MO Center= -3.2D-12, -2.7D-11, -9.1D-12, r^2= 1.1D+01
   Bfn.  Coefficient  Atom+Function         Bfn.  Coefficient  Atom+Function  
  ----- ------------  ---------------      ----- ------------  ---------------
    22      2.494971  1 Si s                  6      2.141083  1 Si s          
    41     -1.820000  1 Si dyy               43     -1.811320  1 Si dzz        
    38     -1.797491  1 Si dxx                5     -0.442962  1 Si s          
     4     -0.281011  1 Si s                 32     -0.266286  1 Si dxx        
    37     -0.252367  1 Si dzz               35     -0.243632  1 Si dyy        

 Vector   22  Occ=0.000000D+00  E= 8.487327D-02
              MO Center=  3.7D-13, -2.5D-14,  2.7D-13, r^2= 1.3D+01
   Bfn.  Coefficient  Atom+Function         Bfn.  Coefficient  Atom+Function  
  ----- ------------  ---------------      ----- ------------  ---------------
    16      3.670416  1 Si px                19     -3.109723  1 Si px         
    18      2.466692  1 Si pz                21     -2.089883  1 Si pz         
    23      1.812424  1 Si px                25      1.218036  1 Si pz         
    17     -1.202670  1 Si py                49     -1.133737  1 Si fxzz       
    44     -1.127163  1 Si fxxx              47     -1.114606  1 Si fxyy       

 Vector   23  Occ=0.000000D+00  E= 4.389599D-01
              MO Center=  1.3D-15, -5.4D-15, -4.6D-15, r^2= 2.3D+00
   Bfn.  Coefficient  Atom+Function         Bfn.  Coefficient  Atom+Function  
  ----- ------------  ---------------      ----- ------------  ---------------
    36      1.410881  1 Si dyz               42     -1.009311  1 Si dyz        
    33     -0.933683  1 Si dxy               39      0.667934  1 Si dxy        
    32     -0.219274  1 Si dxx               34      0.197279  1 Si dxz        
    37      0.197179  1 Si dzz               30      0.178161  1 Si dyz        
    38      0.156860  1 Si dxx        

 Vector   24  Occ=0.000000D+00  E= 4.389613D-01
              MO Center=  7.8D-16, -6.5D-15, -4.3D-15, r^2= 2.3D+00
   Bfn.  Coefficient  Atom+Function         Bfn.  Coefficient  Atom+Function  
  ----- ------------  ---------------      ----- ------------  ---------------
    34      0.862875  1 Si dxz               35      0.816248  1 Si dyy        
    40     -0.617282  1 Si dxz               37     -0.590880  1 Si dzz        
    41     -0.583923  1 Si dyy               43      0.422707  1 Si dzz        
    33      0.394041  1 Si dxy               39     -0.281890  1 Si dxy        
    32     -0.225365  1 Si dxx               36      0.209660  1 Si dyz        

 Vector   25  Occ=0.000000D+00  E= 4.711870D-01
              MO Center=  6.1D-15,  3.8D-14,  1.1D-15, r^2= 2.2D+00
   Bfn.  Coefficient  Atom+Function         Bfn.  Coefficient  Atom+Function  
  ----- ------------  ---------------      ----- ------------  ---------------
    36      0.916962  1 Si dyz               33      0.904193  1 Si dxy        
    32      0.692323  1 Si dxx               42     -0.634417  1 Si dyz        
    39     -0.625581  1 Si dxy               38     -0.478996  1 Si dxx        
    35     -0.370641  1 Si dyy               37     -0.321682  1 Si dzz        
    41      0.256433  1 Si dyy               43      0.222561  1 Si dzz        

 Vector   26  Occ=0.000000D+00  E= 4.711871D-01
              MO Center= -2.5D-15,  2.5D-14,  8.5D-17, r^2= 2.2D+00
   Bfn.  Coefficient  Atom+Function         Bfn.  Coefficient  Atom+Function  
  ----- ------------  ---------------      ----- ------------  ---------------
    33      0.914283  1 Si dxy               34      0.762934  1 Si dxz        
    37      0.730867  1 Si dzz               39     -0.632562  1 Si dxy        
    40     -0.527849  1 Si dxz               43     -0.505665  1 Si dzz        
    32     -0.483129  1 Si dxx               38      0.334260  1 Si dxx        
    35     -0.247739  1 Si dyy               41      0.171400  1 Si dyy        

 Vector   27  Occ=0.000000D+00  E= 4.823570D-01
              MO Center= -6.6D-15,  9.1D-14,  2.9D-14, r^2= 2.2D+00
   Bfn.  Coefficient  Atom+Function         Bfn.  Coefficient  Atom+Function  
  ----- ------------  ---------------      ----- ------------  ---------------
    34      1.314731  1 Si dxz               40     -0.893743  1 Si dxz        
    33     -0.641143  1 Si dxy                6      0.553753  1 Si s          
    38     -0.511144  1 Si dxx               35     -0.459417  1 Si dyy        
    39      0.435847  1 Si dxy               36     -0.430835  1 Si dyz        
    32      0.413754  1 Si dxx               42      0.292878  1 Si dyz        

 Vector   28  Occ=0.000000D+00  E= 5.209171D-01
              MO Center=  1.4D-13,  3.8D-14, -1.6D-13, r^2= 6.9D+00
   Bfn.  Coefficient  Atom+Function         Bfn.  Coefficient  Atom+Function  
  ----- ------------  ---------------      ----- ------------  ---------------
    16      8.057438  1 Si px                18     -8.088278  1 Si pz         
    17      8.001251  1 Si py                46      3.248914  1 Si fxxz       
    47     -3.240321  1 Si fxyy              49     -3.246891  1 Si fxzz       
    51      3.232488  1 Si fyyz              53      3.234192  1 Si fzzz       
    44     -3.211686  1 Si fxxx              45     -3.201449  1 Si fxxy       


   alpha - beta orbital overlaps 
   ----------------------------- 


   alpha      1      2      3      4      5      6      7      8      9     10
    beta      1      2      3      4      5      6      9      7      8     10
 overlap   1.000  1.000  1.000  1.000  1.000  0.997  0.997  0.997  0.997  1.000


   alpha     11     12     13     14     15     16     17     18     19     20
    beta     17     16     18     13     14     15     11     12     21     19
 overlap   0.992  0.992  0.996  0.999  0.999  0.997  0.999  0.999  1.000  0.954


   alpha     21     22     23     24     25     26     27     28     29     30
    beta     20     22     23     24     26     25     27     28     29     30
 overlap   0.954  0.997  0.999  0.999  0.784  0.784  0.998  0.999  0.999  0.998


   alpha     31     32     33     34     35     36     37     38     39     40
    beta     31     33     32     35     34     37     36     38     39     40
 overlap   1.000  1.000  1.000  1.000  1.000  0.999  0.999  0.998  0.999  0.999


   alpha     41     42     43     44     45     46     47     48     49     50
    beta     41     42     43     44     45     46     47     48     49     50
 overlap   1.000  1.000  0.999  0.999  0.998  0.998  1.000  1.000  0.993  0.993


   alpha     51     52     53
    beta     51     52     53
 overlap   1.000  1.000  1.000

     --------------------------
     Expectation value of S2:  
     --------------------------
      <S2> =      0.7564 (Exact =     0.7500)


 Parallel integral file used       4 records with       0 large values


 Task  times  cpu:        4.1s     wall:        4.4s


                                NWChem Input Module
                                -------------------


 Summary of allocated global arrays
-----------------------------------
  No active global arrays



                         GA Statistics for process    0
                         ------------------------------

       create   destroy   get      put      acc     scatter   gather  read&inc
calls:  179      179     2504     2503      425        0        0      176     
number of processes/call 1.00e+00 1.00e+00 1.00e+00 0.00e+00 0.00e+00
bytes total:             1.83e+07 4.23e+06 9.55e+06 0.00e+00 0.00e+00 1.41e+03
bytes remote:            0.00e+00 0.00e+00 0.00e+00 0.00e+00 0.00e+00 0.00e+00
Max memory consumed for GA by this process: 1460680 bytes

MA_summarize_allocated_blocks: starting scan ...
MA_summarize_allocated_blocks: scan completed: 0 heap blocks, 0 stack blocks
MA usage statistics:

	allocation statistics:
					      heap	     stack
					      ----	     -----
	current number of blocks	         0	         0
	maximum number of blocks	        23	        51
	current total bytes		         0	         0
	maximum total bytes		  19815328	  22513064
	maximum total K-bytes		     19816	     22514
	maximum total M-bytes		        20	        23


                                     CITATION
                                     --------
                Please cite the following reference when publishing
                           results obtained with NWChem:

                 M. Valiev, E.J. Bylaska, N. Govind, K. Kowalski,
              T.P. Straatsma, H.J.J. van Dam, D. Wang, J. Nieplocha,
                        E. Apra, T.L. Windus, W.A. de Jong
                 "NWChem: a comprehensive and scalable open-source
                  solution for large scale molecular simulations"
                      Comput. Phys. Commun. 181, 1477 (2010)
                           doi:10.1016/j.cpc.2010.04.018

                                      AUTHORS
                                      -------
          E. Apra, E. J. Bylaska, W. A. de Jong, N. Govind, K. Kowalski,
       T. P. Straatsma, M. Valiev, H. J. J. van Dam, D. Wang, T. L. Windus,
        J. Hammond, J. Autschbach, K. Bhaskaran-Nair, J. Brabec, K. Lopata,
       S. A. Fischer, S. Krishnamoorthy, W. Ma, M. Klemm, O. Villa, Y. Chen,
    V. Anisimov, F. Aquino, S. Hirata, M. T. Hackler, T. Risthaus, M. Malagoli,
       A. Marenich, A. Otero-de-la-Roza, J. Mullin, P. Nichols, R. Peverati,
     J. Pittner, Y. Zhao, P.-D. Fan, A. Fonari, M. Williamson, R. J. Harrison,
       J. R. Rehr, M. Dupuis, D. Silverstein, D. M. A. Smith, J. Nieplocha,
        V. Tipparaju, M. Krishnan, B. E. Van Kuiken, A. Vazquez-Mayagoitia,
        L. Jensen, M. Swart, Q. Wu, T. Van Voorhis, A. A. Auer, M. Nooijen,
      L. D. Crosby, E. Brown, G. Cisneros, G. I. Fann, H. Fruchtl, J. Garza,
        K. Hirao, R. A. Kendall, J. A. Nichols, K. Tsemekhman, K. Wolinski,
     J. Anchell, D. E. Bernholdt, P. Borowski, T. Clark, D. Clerc, H. Dachsel,
   M. J. O. Deegan, K. Dyall, D. Elwood, E. Glendening, M. Gutowski, A. C. Hess,
         J. Jaffe, B. G. Johnson, J. Ju, R. Kobayashi, R. Kutteh, Z. Lin,
   R. Littlefield, X. Long, B. Meng, T. Nakajima, S. Niu, L. Pollack, M. Rosing,
   K. Glaesemann, G. Sandrone, M. Stave, H. Taylor, G. Thomas, J. H. van Lenthe,
                               A. T. Wong, Z. Zhang.

 Total times  cpu:        4.1s     wall:        4.6s
