Si                                      
   5.46800000000000     
     0.000000    0.500000    0.500000
     0.500000    0.000000    0.500000
     0.500000    0.500000    0.000000
   Si
     2
Direct
  0.875000  0.875000  0.875000
  0.125000  0.125000  0.125000
 
   24   24   24
  22.959      22.771      22.150      20.807      18.643      16.451      15.509      16.451      18.643      20.807    
  22.150      22.771      22.959      22.771      22.150      20.807      18.643      16.451      15.509      16.451    
  18.643      20.807      22.150      22.771      22.771      22.993      22.166      19.764      16.395      13.862    
  13.862      16.395      19.764      22.166      22.993      22.771      22.067      21.072      19.849      18.375    
  16.788      15.693      15.693      16.788      18.375      19.849      21.072      22.067      22.150      22.166    
  20.141      16.131      11.891      10.045      11.891      16.131      20.141      22.166      22.150      21.072    
  19.635      18.122      16.661      15.322      14.306      13.914      14.306      15.322      16.661      18.122    
  19.635      21.072      20.807      19.764      16.131      11.020      7.2006      7.2006      11.020      16.131    
  19.764      20.807      19.849      18.122      16.270      14.599      13.214      12.168      11.583      11.583    
  12.168      13.214      14.599      16.270      18.122      19.849      18.643      16.395      11.891      7.2006    
  5.1812      7.2006      11.891      16.395      18.643      18.375      16.661      14.599      12.681      11.137    
  10.000      9.2820      9.0330      9.2820      10.000      11.137      12.681      14.599      16.661      18.375    
  16.451      13.862      10.045      7.2006      7.2006      10.045      13.862      16.451      16.788      15.322    
  13.214      11.137      9.4232      8.1603      7.3213      6.8969      6.8969      7.3213      8.1603      9.4232    
  11.137      13.214      15.322      16.788      15.509      13.862      11.891      11.020      11.891      13.862    
  15.509      15.693      14.306      12.168      10.000      8.1603      6.7820      5.8375      5.2823      5.0988    
  5.2823      5.8375      6.7820      8.1603      10.000      12.168      14.306      15.693      16.451      16.395    
  16.131      16.131      16.395      16.451      15.693      13.914      11.583      9.2820      7.3213      5.8375    
  4.8017      4.1463      3.8296      3.8296      4.1463      4.8017      5.8375      7.3213      9.2820      11.583    
  13.914      15.693      18.643      19.764      20.141      19.764      18.643      16.788      14.306      11.583    
  9.0330      6.8969      5.2823      4.1463      3.4002      2.9801      2.8457      2.9801      3.4002      4.1463    
  5.2823      6.8969      9.0330      11.583      14.306      16.788      20.807      22.166      22.166      20.807    
  18.375      15.322      12.168      9.2820      6.8969      5.0988      3.8296      2.9801      2.4643      2.2240    
  2.2240      2.4643      2.9801      3.8296      5.0988      6.8969      9.2820      12.168      15.322      18.375    
  22.150      22.993      22.150      19.849      16.661      13.214      10.000      7.3213      5.2823      3.8296    
  2.8457      2.2240      1.8861      1.7800      1.8861      2.2240      2.8457      3.8296      5.2823      7.3213    
  10.000      13.214      16.661      19.849      22.771      22.771      21.072      18.122      14.599      11.137    
  8.1603      5.8375      4.1463      2.9801      2.2240      1.7800      1.5765      1.5765      1.7800      2.2240    
  2.9801      4.1463      5.8375      8.1603      11.137      14.599      18.122      21.072      22.959      22.067    
  19.635      16.270      12.681      9.4232      6.7820      4.8017      3.4002      2.4643      1.8861      1.5765    
  1.4794      1.5765      1.8861      2.4643      3.4002      4.8017      6.7820      9.4232      12.681      16.270    
  19.635      22.067      22.771      21.072      18.122      14.599      11.137      8.1603      5.8375      4.1463    
  2.9801      2.2240      1.7800      1.5765      1.5765      1.7800      2.2240      2.9801      4.1463      5.8375    
  8.1603      11.137      14.599      18.122      21.072      22.771      22.150      19.849      16.661      13.214    
  10.000      7.3213      5.2823      3.8296      2.8457      2.2240      1.8861      1.7800      1.8861      2.2240    
  2.8457      3.8296      5.2823      7.3213      10.000      13.214      16.661      19.849      22.150      22.993    
  20.807      18.375      15.322      12.168      9.2820      6.8969      5.0988      3.8296      2.9801      2.4643    
  2.2240      2.2240      2.4643      2.9801      3.8296      5.0988      6.8969      9.2820      12.168      15.322    
  18.375      20.807      22.166      22.166      18.643      16.788      14.306      11.583      9.0330      6.8969    
  5.2823      4.1463      3.4002      2.9801      2.8457      2.9801      3.4002      4.1463      5.2823      6.8969    
  9.0330      11.583      14.306      16.788      18.643      19.764      20.141      19.764      16.451      15.693    
  13.914      11.583      9.2820      7.3213      5.8375      4.8017      4.1463      3.8296      3.8296      4.1463    
  4.8017      5.8375      7.3213      9.2820      11.583      13.914      15.693      16.451      16.395      16.131    
  16.131      16.395      15.509      15.693      14.306      12.168      10.000      8.1603      6.7820      5.8375    
  5.2823      5.0988      5.2823      5.8375      6.7820      8.1603      10.000      12.168      14.306      15.693    
  15.509      13.862      11.891      11.020      11.891      13.862      16.451      16.788      15.322      13.214    
  11.137      9.4232      8.1603      7.3213      6.8969      6.8969      7.3213      8.1603      9.4232      11.137    
  13.214      15.322      16.788      16.451      13.862      10.045      7.2006      7.2006      10.045      13.862    
  18.643      18.375      16.661      14.599      12.681      11.137      10.000      9.2820      9.0330      9.2820    
  10.000      11.137      12.681      14.599      16.661      18.375      18.643      16.395      11.891      7.2006    
  5.1812      7.2006      11.891      16.395      20.807      19.849      18.122      16.270      14.599      13.214    
  12.168      11.583      11.583      12.168      13.214      14.599      16.270      18.122      19.849      20.807    
  19.764      16.131      11.020      7.2006      7.2006      11.020      16.131      19.764      22.150      21.072    
  19.635      18.122      16.661      15.322      14.306      13.914      14.306      15.322      16.661      18.122    
  19.635      21.072      22.150      22.166      20.141      16.131      11.891      10.045      11.891      16.131    
  20.141      22.166      22.771      22.067      21.072      19.849      18.375      16.788      15.693      15.693    
  16.788      18.375      19.849      21.072      22.067      22.771      22.993      22.166      19.764      16.395    
  13.862      13.862      16.395      19.764      22.166      22.993      22.771      22.993      22.166      19.764    
  16.395      13.862      13.862      16.395      19.764      22.166      22.993      22.771      22.067      21.072    
  19.849      18.375      16.788      15.693      15.693      16.788      18.375      19.849      21.072      22.067    
  22.993      22.914      20.613      16.159      11.467      9.4266      11.467      16.159      20.613      22.914    
  22.993      21.895      20.407      18.823      17.282      15.866      14.781      14.360      14.781      15.866    
  17.282      18.823      20.407      21.895      22.166      20.613      16.005      9.6709      4.9611      4.9611    
  9.6709      16.005      20.613      22.166      21.322      19.508      17.523      15.703      14.182      13.026    
  12.376      12.376      13.026      14.182      15.703      17.523      19.508      21.322      19.764      16.159    
  9.6709      3.0788     0.26000      3.0788      9.6709      16.159      19.764      20.100      18.422      16.204    
  14.082      12.349      11.066      10.251      9.9667      10.251      11.066      12.349      14.082      16.204    
  18.422      20.100      16.395      11.467      4.9611     0.26000     0.26000      4.9611      11.467      16.395    
  18.134      17.141      14.955      12.665      10.719      9.2725      8.3099      7.8200      7.8200      8.3099    
  9.2725      10.719      12.665      14.955      17.141      18.134      13.862      9.4266      4.9611      3.0788    
  4.9611      9.4266      13.862      16.142      15.797      13.823      11.509      9.4316      7.8423      6.7505    
  6.1062      5.8917      6.1062      6.7505      7.8423      9.4316      11.509      13.823      15.797      16.142    
  13.862      11.467      9.6709      9.6709      11.467      13.862      15.286      14.878      12.979      10.645    
  8.4902      6.7958      5.6020      4.8441      4.4745      4.4745      4.8441      5.6020      6.7958      8.4902    
  10.645      12.979      14.878      15.286      16.395      16.159      16.005      16.159      16.395      16.142    
  14.878      12.660      10.169      7.9018      6.1031      4.8169      3.9681      3.4859      3.3302      3.4859    
  3.9681      4.8169      6.1031      7.9018      10.169      12.660      14.878      16.142      19.764      20.613    
  20.613      19.764      18.134      15.797      12.979      10.169      7.7002      5.7564      4.3592      3.4178    
  2.8412      2.5702      2.5702      2.8412      3.4178      4.3592      5.7564      7.7002      10.169      12.979    
  15.797      18.134      22.166      22.914      22.166      20.100      17.141      13.823      10.645      7.9018    
  5.7564      4.2095      3.1549      2.4819      2.1134      1.9974      2.1134      2.4819      3.1549      4.2095    
  5.7564      7.9018      10.645      13.823      17.141      20.100      22.993      22.993      21.322      18.422    
  14.955      11.509      8.4902      6.1031      4.3592      3.1549      2.3677      1.9015      1.6877      1.6877    
  1.9015      2.3677      3.1549      4.3592      6.1031      8.4902      11.509      14.955      18.422      21.322    
  22.771      21.895      19.508      16.204      12.665      9.4316      6.7958      4.8169      3.4178      2.4819    
  1.9015      1.5902      1.4927      1.5902      1.9015      2.4819      3.4178      4.8169      6.7958      9.4316    
  12.665      16.204      19.508      21.895      22.067      20.407      17.523      14.082      10.719      7.8423    
  5.6020      3.9681      2.8412      2.1134      1.6877      1.4927      1.4927      1.6877      2.1134      2.8412    
  3.9681      5.6020      7.8423      10.719      14.082      17.523      20.407      22.067      21.072      18.823    
  15.703      12.349      9.2725      6.7505      4.8441      3.4859      2.5702      1.9974      1.6877      1.5902    
  1.6877      1.9974      2.5702      3.4859      4.8441      6.7505      9.2725      12.349      15.703      18.823    
  21.072      21.895      19.849      17.282      14.182      11.066      8.3099      6.1062      4.4745      3.3302    
  2.5702      2.1134      1.9015      1.9015      2.1134      2.5702      3.3302      4.4745      6.1062      8.3099    
  11.066      14.182      17.282      19.849      21.322      21.322      18.375      15.866      13.026      10.251    
  7.8200      5.8917      4.4745      3.4859      2.8412      2.4819      2.3677      2.4819      2.8412      3.4859    
  4.4745      5.8917      7.8200      10.251      13.026      15.866      18.375      20.100      20.716      20.100    
  16.788      14.781      12.376      9.9667      7.8200      6.1062      4.8441      3.9681      3.4178      3.1549    
  3.1549      3.4178      3.9681      4.8441      6.1062      7.8200      9.9667      12.376      14.781      16.788    
  18.134      18.790      18.790      18.134      15.693      14.360      12.376      10.251      8.3099      6.7505    
  5.6020      4.8169      4.3592      4.2095      4.3592      4.8169      5.6020      6.7505      8.3099      10.251    
  12.376      14.360      15.693      16.142      16.041      15.925      16.041      16.142      15.693      14.781    
  13.026      11.066      9.2725      7.8423      6.7958      6.1031      5.7564      5.7564      6.1031      6.7958    
  7.8423      9.2725      11.066      13.026      14.781      15.693      15.286      13.968      12.834      12.834    
  13.968      15.286      16.788      15.866      14.182      12.349      10.719      9.4316      8.4902      7.9018    
  7.7002      7.9018      8.4902      9.4316      10.719      12.349      14.182      15.866      16.788      16.142    
  13.968      11.483      10.384      11.483      13.968      16.142      18.375      17.282      15.703      14.082    
  12.665      11.509      10.645      10.169      10.169      10.645      11.509      12.665      14.082      15.703    
  17.282      18.375      18.134      16.041      12.834      10.384      10.384      12.834      16.041      18.134    
  19.849      18.823      17.523      16.204      14.955      13.823      12.979      12.660      12.979      13.823    
  14.955      16.204      17.523      18.823      19.849      20.100      18.790      15.925      12.834      11.483    
  12.834      15.925      18.790      20.100      21.072      20.407      19.508      18.422      17.141      15.797    
  14.878      14.878      15.797      17.141      18.422      19.508      20.407      21.072      21.322      20.716    
  18.790      16.041      13.968      13.968      16.041      18.790      20.716      21.322      22.067      21.895    
  21.322      20.100      18.134      16.142      15.286      16.142      18.134      20.100      21.322      21.895    
  22.067      21.895      21.322      20.100      18.134      16.142      15.286      16.142      18.134      20.100    
  21.322      21.895      22.150      22.166      20.141      16.131      11.891      10.045      11.891      16.131    
  20.141      22.166      22.150      21.072      19.635      18.122      16.661      15.322      14.306      13.914    
  14.306      15.322      16.661      18.122      19.635      21.072      22.166      20.613      16.005      9.6709    
  4.9611      4.9611      9.6709      16.005      20.613      22.166      21.322      19.508      17.523      15.703    
  14.182      13.026      12.376      12.376      13.026      14.182      15.703      17.523      19.508      21.322    
  20.141      16.005      8.7346      1.3857     -1.7520      1.3857      8.7346      16.005      20.141      20.716    
  19.063      16.788      14.593      12.790      11.452      10.601      10.303      10.601      11.452      12.790    
  14.593      16.788      19.063      20.716      16.131      9.6709      1.3857     -4.5479     -4.5479      1.3857    
  9.6709      16.131      18.790      18.144      15.937      13.532      11.455      9.9017      8.8672      8.3395    
  8.3395      8.8672      9.9017      11.455      13.532      15.937      18.144      18.790      11.891      4.9611    
 -1.7520     -4.5479     -1.7520      4.9611      11.891      16.041      16.682      14.956      12.562      10.327    
  8.5881      7.3901      6.6822      6.4458      6.6822      7.3901      8.5881      10.327      12.562      14.956    
  16.682      16.041      10.045      4.9611      1.3857      1.3857      4.9611      10.045      13.968      15.200    
  13.979      11.703      9.4251      7.5666      6.2432      5.4014      4.9888      4.9888      5.4014      6.2432    
  7.5666      9.4251      11.703      13.979      15.200      13.968      11.891      9.6709      8.7346      9.6709    
  11.891      13.968      14.564      13.332      11.076      8.7658      6.8256      5.4075      4.4670      3.9294    
  3.7544      3.9294      4.4670      5.4075      6.8256      8.7658      11.076      13.332      14.564      13.968    
  16.131      16.005      16.005      16.131      16.041      15.200      13.332      10.843      8.4109      6.3704    
  4.8589      3.8319      3.1988      2.8985      2.8985      3.1988      3.8319      4.8589      6.3704      8.4109    
  10.843      13.332      15.200      16.041      20.141      20.613      20.141      18.790      16.682      13.979    
  11.076      8.4109      6.2168      4.5884      3.4661      2.7447      2.3462      2.2201      2.3462      2.7447    
  3.4661      4.5884      6.2168      8.4109      11.076      13.979      16.682      18.790      22.166      22.166    
  20.716      18.144      14.956      11.703      8.7658      6.3704      4.5884      3.3477      2.5298      2.0407    
  1.8158      1.8158      2.0407      2.5298      3.3477      4.5884      6.3704      8.7658      11.703      14.956    
  18.144      20.716      22.150      21.322      19.063      15.937      12.562      9.4251      6.8256      4.8589    
  3.4661      2.5298      1.9437      1.6282      1.5296      1.6282      1.9437      2.5298      3.4661      4.8589    
  6.8256      9.4251      12.562      15.937      19.063      21.322      21.072      19.508      16.788      13.532    
  10.327      7.5666      5.4075      3.8319      2.7447      2.0407      1.6282      1.4393      1.4393      1.6282    
  2.0407      2.7447      3.8319      5.4075      7.5666      10.327      13.532      16.788      19.508      21.072    
  19.635      17.523      14.593      11.455      8.5881      6.2432      4.4670      3.1988      2.3462      1.8158    
  1.5296      1.4393      1.5296      1.8158      2.3462      3.1988      4.4670      6.2432      8.5881      11.455    
  14.593      17.523      19.635      20.407      18.122      15.703      12.790      9.9017      7.3901      5.4014    
  3.9294      2.8985      2.2201      1.8158      1.6282      1.6282      1.8158      2.2201      2.8985      3.9294    
  5.4014      7.3901      9.9017      12.790      15.703      18.122      19.508      19.508      16.661      14.182    
  11.452      8.8672      6.6822      4.9888      3.7544      2.8985      2.3462      2.0407      1.9437      2.0407    
  2.3462      2.8985      3.7544      4.9888      6.6822      8.8672      11.452      14.182      16.661      18.422    
  19.063      18.422      15.322      13.026      10.601      8.3395      6.4458      4.9888      3.9294      3.1988    
  2.7447      2.5298      2.5298      2.7447      3.1988      3.9294      4.9888      6.4458      8.3395      10.601    
  13.026      15.322      17.141      18.144      18.144      17.141      14.306      12.376      10.303      8.3395    
  6.6822      5.4014      4.4670      3.8319      3.4661      3.3477      3.4661      3.8319      4.4670      5.4014    
  6.6822      8.3395      10.303      12.376      14.306      15.797      16.682      16.969      16.682      15.797    
  13.914      12.376      10.601      8.8672      7.3901      6.2432      5.4075      4.8589      4.5884      4.5884    
  4.8589      5.4075      6.2432      7.3901      8.8672      10.601      12.376      13.914      14.878      15.200    
  15.195      15.195      15.200      14.878      14.306      13.026      11.452      9.9017      8.5881      7.5666    
  6.8256      6.3704      6.2168      6.3704      6.8256      7.5666      8.5881      9.9017      11.452      13.026    
  14.306      14.878      14.564      13.836      13.468      13.836      14.564      14.878      15.322      14.182    
  12.790      11.455      10.327      9.4251      8.7658      8.4109      8.4109      8.7658      9.4251      10.327    
  11.455      12.790      14.182      15.322      15.797      15.200      13.836      12.698      12.698      13.836    
  15.200      15.797      16.661      15.703      14.593      13.532      12.562      11.703      11.076      10.843    
  11.076      11.703      12.562      13.532      14.593      15.703      16.661      17.141      16.682      15.195    
  13.468      12.698      13.468      15.195      16.682      17.141      18.122      17.523      16.788      15.937    
  14.956      13.979      13.332      13.332      13.979      14.956      15.937      16.788      17.523      18.122    
  18.422      18.144      16.969      15.195      13.836      13.836      15.195      16.969      18.144      18.422    
  19.635      19.508      19.063      18.144      16.682      15.200      14.564      15.200      16.682      18.144    
  19.063      19.508      19.635      19.508      19.063      18.144      16.682      15.200      14.564      15.200    
  16.682      18.144      19.063      19.508      21.072      21.322      20.716      18.790      16.041      13.968    
  13.968      16.041      18.790      20.716      21.322      21.072      20.407      19.508      18.422      17.141    
  15.797      14.878      14.878      15.797      17.141      18.422      19.508      20.407      20.807      19.764    
  16.131      11.020      7.2006      7.2006      11.020      16.131      19.764      20.807      19.849      18.122    
  16.270      14.599      13.214      12.168      11.583      11.583      12.168      13.214      14.599      16.270    
  18.122      19.849      19.764      16.159      9.6709      3.0788     0.26000      3.0788      9.6709      16.159    
  19.764      20.100      18.422      16.204      14.082      12.349      11.066      10.251      9.9667      10.251    
  11.066      12.349      14.082      16.204      18.422      20.100      16.131      9.6709      1.3857     -4.5479    
 -4.5479      1.3857      9.6709      16.131      18.790      18.144      15.937      13.532      11.455      9.9017    
  8.8672      8.3395      8.3395      8.8672      9.9017      11.455      13.532      15.937      18.144      18.790    
  11.020      3.0788     -4.5479     -7.7148     -4.5479      3.0788      11.020      15.925      16.969      15.359    
  12.941      10.651      8.8577      7.6208      6.8898      6.6454      6.8898      7.6208      8.8577      10.651    
  12.941      15.359      16.969      15.925      7.2006     0.26000     -4.5479     -4.5479     0.26000      7.2006    
  12.834      15.195      14.482      12.281      9.9474      7.9995      6.6023      5.7127      5.2759      5.2759    
  5.7127      6.6023      7.9995      9.9474      12.281      14.482      15.195      12.834      7.2006      3.0788    
  1.3857      3.0788      7.2006      11.483      13.836      13.599      11.650      9.3501      7.3257      5.8170    
  4.8118      4.2353      4.0468      4.2353      4.8118      5.8170      7.3257      9.3501      11.650      13.599    
  13.836      11.483      11.020      9.6709      9.6709      11.020      12.834      13.836      13.221      11.252    
  8.9314      6.8483      5.2539      4.1596      3.4818      3.1577      3.1577      3.4818      4.1596      5.2539    
  6.8483      8.9314      11.252      13.221      13.836      12.834      16.131      16.159      16.131      15.925    
  15.195      13.599      11.252      8.7795      6.5992      4.9152      3.7373      2.9755      2.5511      2.4158    
  2.5511      2.9755      3.7373      4.9152      6.5992      8.7795      11.252      13.599      15.195      15.925    
  19.764      19.764      18.790      16.969      14.482      11.650      8.9314      6.5992      4.8029      3.5320    
  2.6874      2.1782      1.9424      1.9424      2.1782      2.6874      3.5320      4.8029      6.5992      8.9314    
  11.650      14.482      16.969      18.790      20.807      20.100      18.144      15.359      12.281      9.3501    
  6.8483      4.9152      3.5320      2.5946      2.0020      1.6813      1.5811      1.6813      2.0020      2.5946    
  3.5320      4.9152      6.8483      9.3501      12.281      15.359      18.144      20.100      19.849      18.422    
  15.937      12.941      9.9474      7.3257      5.2539      3.7373      2.6874      2.0020      1.5979      1.4133    
  1.4133      1.5979      2.0020      2.6874      3.7373      5.2539      7.3257      9.9474      12.941      15.937    
  18.422      19.849      18.122      16.204      13.532      10.651      7.9995      5.8170      4.1596      2.9755    
  2.1782      1.6813      1.4133      1.3290      1.4133      1.6813      2.1782      2.9755      4.1596      5.8170    
  7.9995      10.651      13.532      16.204      18.122      18.823      16.270      14.082      11.455      8.8577    
  6.6023      4.8118      3.4818      2.5511      1.9424      1.5811      1.4133      1.4133      1.5811      1.9424    
  2.5511      3.4818      4.8118      6.6023      8.8577      11.455      14.082      16.270      17.523      17.523    
  14.599      12.349      9.9017      7.6208      5.7127      4.2353      3.1577      2.4158      1.9424      1.6813    
  1.5979      1.6813      1.9424      2.4158      3.1577      4.2353      5.7127      7.6208      9.9017      12.349    
  14.599      16.204      16.788      16.204      13.214      11.066      8.8672      6.8898      5.2759      4.0468    
  3.1577      2.5511      2.1782      2.0020      2.0020      2.1782      2.5511      3.1577      4.0468      5.2759    
  6.8898      8.8672      11.066      13.214      14.955      15.937      15.937      14.955      12.168      10.251    
  8.3395      6.6454      5.2759      4.2353      3.4818      2.9755      2.6874      2.5946      2.6874      2.9755    
  3.4818      4.2353      5.2759      6.6454      8.3395      10.251      12.168      13.823      14.956      15.359    
  14.956      13.823      11.583      9.9667      8.3395      6.8898      5.7127      4.8118      4.1596      3.7373    
  3.5320      3.5320      3.7373      4.1596      4.8118      5.7127      6.8898      8.3395      9.9667      11.583    
  12.979      13.979      14.482      14.482      13.979      12.979      11.583      10.251      8.8672      7.6208    
  6.6023      5.8170      5.2539      4.9152      4.8029      4.9152      5.2539      5.8170      6.6023      7.6208    
  8.8672      10.251      11.583      12.660      13.332      13.599      13.651      13.599      13.332      12.660    
  12.168      11.066      9.9017      8.8577      7.9995      7.3257      6.8483      6.5992      6.5992      6.8483    
  7.3257      7.9995      8.8577      9.9017      11.066      12.168      12.979      13.332      13.221      12.983    
  12.983      13.221      13.332      12.979      13.214      12.349      11.455      10.651      9.9474      9.3501    
  8.9314      8.7795      8.9314      9.3501      9.9474      10.651      11.455      12.349      13.214      13.823    
  13.979      13.599      12.983      12.684      12.983      13.599      13.979      13.823      14.599      14.082    
  13.532      12.941      12.281      11.650      11.252      11.252      11.650      12.281      12.941      13.532    
  14.082      14.599      14.955      14.956      14.482      13.651      12.983      12.983      13.651      14.482    
  14.956      14.955      16.270      16.204      15.937      15.359      14.482      13.599      13.221      13.599    
  14.482      15.359      15.937      16.204      16.270      16.204      15.937      15.359      14.482      13.599    
  13.221      13.599      14.482      15.359      15.937      16.204      18.122      18.422      18.144      16.969    
  15.195      13.836      13.836      15.195      16.969      18.144      18.422      18.122      17.523      16.788    
  15.937      14.956      13.979      13.332      13.332      13.979      14.956      15.937      16.788      17.523    
  19.849      20.100      18.790      15.925      12.834      11.483      12.834      15.925      18.790      20.100    
  19.849      18.823      17.523      16.204      14.955      13.823      12.979      12.660      12.979      13.823    
  14.955      16.204      17.523      18.823      18.643      16.395      11.891      7.2006      5.1812      7.2006    
  11.891      16.395      18.643      18.375      16.661      14.599      12.681      11.137      10.000      9.2820    
  9.0330      9.2820      10.000      11.137      12.681      14.599      16.661      18.375      16.395      11.467    
  4.9611     0.25999     0.26000      4.9611      11.467      16.395      18.134      17.141      14.955      12.665    
  10.719      9.2725      8.3099      7.8200      7.8200      8.3099      9.2725      10.719      12.665      14.955    
  17.141      18.134      11.891      4.9611     -1.7520     -4.5479     -1.7520      4.9611      11.891      16.041    
  16.682      14.956      12.562      10.327      8.5881      7.3901      6.6822      6.4458      6.6822      7.3901    
  8.5881      10.327      12.562      14.956      16.682      16.041      7.2006     0.25999     -4.5479     -4.5479    
 0.26000      7.2006      12.834      15.195      14.482      12.281      9.9474      7.9995      6.6023      5.7127    
  5.2759      5.2759      5.7127      6.6023      7.9995      9.9474      12.281      14.482      15.195      12.834    
  5.1812     0.26000     -1.7520     0.26000      5.1812      10.384      13.468      13.651      11.845      9.5566    
  7.5050      5.9640      4.9352      4.3447      4.1513      4.3447      4.9352      5.9640      7.5050      9.5566    
  11.845      13.651      13.468      10.384      7.2006      4.9611      4.9611      7.2006      10.384      12.698    
  12.983      11.426      9.2023      7.1101      5.4733      4.3417      3.6387      3.3012      3.3012      3.6387    
  4.3417      5.4733      7.1101      9.2023      11.426      12.983      12.698      10.384      11.891      11.467    