Si                                      
   5.46800000000000     
     0.000000    0.500000    0.500000
     0.500000    0.000000    0.500000
     0.500000    0.500000    0.000000
   Si
     2
Direct
  0.875000  0.875000  0.875000
  0.125000  0.125000  0.125000
 
   24   24   24
 0.22958575609E+02 0.22770797505E+02 0.22150429523E+02 0.20806719529E+02 0.18642937093E+02
 0.16451048749E+02 0.15508936012E+02 0.16451048802E+02 0.18642940569E+02 0.20806719495E+02
 0.22150427345E+02 0.22770797526E+02 0.22958577019E+02 0.22770797526E+02 0.22150427345E+02
 0.20806719495E+02 0.18642940569E+02 0.16451048802E+02 0.15508936012E+02 0.16451048749E+02
 0.18642937093E+02 0.20806719529E+02 0.22150429523E+02 0.22770797505E+02 0.22770797505E+02
 0.22993438017E+02 0.22166026220E+02 0.19764268158E+02 0.16394838238E+02 0.13862058060E+02
 0.13862054716E+02 0.16394838769E+02 0.19764274249E+02 0.22166026134E+02 0.22993434887E+02
 0.22770797489E+02 0.22067160790E+02 0.21071853155E+02 0.19849088044E+02 0.18374961122E+02
 0.16788188559E+02 0.15693176723E+02 0.15693176761E+02 0.16788187923E+02 0.18374961209E+02
 0.19849088816E+02 0.21071853241E+02 0.22067159881E+02 0.22150429523E+02 0.22166026220E+02
 0.20140749389E+02 0.16130565898E+02 0.11890649016E+02 0.10045482862E+02 0.11890642792E+02
 0.16130565777E+02 0.20140756341E+02 0.22166026143E+02 0.22150427082E+02 0.21071853159E+02
 0.19634729602E+02 0.18122338740E+02 0.16660759400E+02 0.15322128005E+02 0.14305753737E+02
 0.13914191129E+02 0.14305753771E+02 0.15322127972E+02 0.16660759265E+02 0.18122338820E+02
 0.19634729424E+02 0.21071853241E+02 0.20806719529E+02 0.19764268158E+02 0.16130565898E+02
 0.11019611728E+02 0.72005641610E+01 0.72005626041E+01 0.11019604599E+02 0.16130564864E+02
 0.19764274289E+02 0.20806719395E+02 0.19849088017E+02 0.18122338736E+02 0.16269859252E+02
 0.14598765868E+02 0.13214460098E+02 0.12167691160E+02 0.11583069025E+02 0.11583069054E+02
 0.12167690984E+02 0.13214459988E+02 0.14598765789E+02 0.16269859440E+02 0.18122338820E+02
 0.19849088816E+02 0.18642937093E+02 0.16394838238E+02 0.11890649016E+02 0.72005641610E+01
 0.51811675584E+01 0.72005641052E+01 0.11890642031E+02 0.16394838275E+02 0.18642940347E+02
 0.18374961238E+02 0.16660759548E+02 0.14598765849E+02 0.12680645786E+02 0.11136985607E+02
 0.10000223718E+02 0.92820021777E+01 0.90329796811E+01 0.92820021566E+01 0.10000223752E+02
 0.11136985496E+02 0.12680645852E+02 0.14598765789E+02 0.16660759265E+02 0.18374961209E+02
 0.16451048749E+02 0.13862058060E+02 0.10045482862E+02 0.72005626041E+01 0.72005641052E+01
 0.10045481850E+02 0.13862054755E+02 0.16451049139E+02 0.16788188559E+02 0.15322128101E+02
 0.13214460167E+02 0.11136985619E+02 0.94231890606E+01 0.81603143987E+01 0.73213124347E+01
 0.68968575911E+01 0.68968575292E+01 0.73213124809E+01 0.81603143123E+01 0.94231891037E+01
 0.11136985496E+02 0.13214459988E+02 0.15322127972E+02 0.16788187923E+02 0.15508936012E+02
 0.13862054716E+02 0.11890642792E+02 0.11019604599E+02 0.11890642031E+02 0.13862054755E+02
 0.15508935736E+02 0.15693176755E+02 0.14305753868E+02 0.12167691038E+02 0.10000223730E+02
 0.81603144006E+01 0.67820392846E+01 0.58375371014E+01 0.52822880537E+01 0.50987555451E+01
 0.52822880542E+01 0.58375370782E+01 0.67820393294E+01 0.81603143123E+01 0.10000223752E+02
 0.12167690984E+02 0.14305753771E+02 0.15693176761E+02 0.16451048802E+02 0.16394838769E+02
 0.16130565777E+02 0.16130564864E+02 0.16394838275E+02 0.16451049139E+02 0.15693176755E+02
 0.13914191259E+02 0.11583069061E+02 0.92820022409E+01 0.73213124379E+01 0.58375370959E+01
 0.48016563351E+01 0.41462981079E+01 0.38295664190E+01 0.38295664212E+01 0.41462980982E+01
 0.48016563461E+01 0.58375370782E+01 0.73213124809E+01 0.92820021566E+01 0.11583069054E+02
 0.13914191129E+02 0.15693176723E+02 0.18642940569E+02 0.19764274249E+02 0.20140756341E+02
 0.19764274289E+02 0.18642940347E+02 0.16788188559E+02 0.14305753868E+02 0.11583069061E+02
 0.90329797214E+01 0.68968575735E+01 0.52822880419E+01 0.41462981173E+01 0.34001590518E+01
 0.29801355132E+01 0.28457167606E+01 0.29801355081E+01 0.34001590490E+01 0.41462980982E+01
 0.52822880542E+01 0.68968575292E+01 0.90329796811E+01 0.11583069025E+02 0.14305753737E+02
 0.16788188559E+02 0.20806719495E+02 0.22166026134E+02 0.22166026143E+02 0.20806719395E+02
 0.18374961238E+02 0.15322128101E+02 0.12167691038E+02 0.92820022409E+01 0.68968575735E+01
 0.50987555344E+01 0.38295664282E+01 0.29801354836E+01 0.24642724168E+01 0.22239707752E+01
 0.22239708086E+01 0.24642723879E+01 0.29801355081E+01 0.38295664212E+01 0.50987555451E+01
 0.68968575911E+01 0.92820021777E+01 0.12167691160E+02 0.15322128005E+02 0.18374961122E+02
 0.22150427345E+02 0.22993434887E+02 0.22150427082E+02 0.19849088017E+02 0.16660759548E+02
 0.13214460167E+02 0.10000223730E+02 0.73213124379E+01 0.52822880419E+01 0.38295664282E+01
 0.28457167602E+01 0.22239708113E+01 0.18861054850E+01 0.17799548962E+01 0.18861054839E+01
 0.22239708086E+01 0.28457167606E+01 0.38295664190E+01 0.52822880537E+01 0.73213124347E+01
 0.10000223718E+02 0.13214460098E+02 0.16660759400E+02 0.19849088044E+02 0.22770797526E+02
 0.22770797489E+02 0.21071853159E+02 0.18122338736E+02 0.14598765849E+02 0.11136985619E+02
 0.81603144006E+01 0.58375370959E+01 0.41462981173E+01 0.29801354836E+01 0.22239708113E+01
 0.17799548540E+01 0.15765287529E+01 0.15765287079E+01 0.17799548962E+01 0.22239707752E+01
 0.29801355132E+01 0.41462981079E+01 0.58375371014E+01 0.81603143987E+01 0.11136985607E+02
 0.14598765868E+02 0.18122338740E+02 0.21071853155E+02 0.22958577019E+02 0.22067160790E+02
 0.19634729602E+02 0.16269859252E+02 0.12680645786E+02 0.94231890606E+01 0.67820392846E+01
 0.48016563351E+01 0.34001590518E+01 0.24642724168E+01 0.18861054850E+01 0.15765287529E+01
 0.14793936622E+01 0.15765287529E+01 0.18861054850E+01 0.24642724168E+01 0.34001590518E+01
 0.48016563351E+01 0.67820392846E+01 0.94231890606E+01 0.12680645786E+02 0.16269859252E+02
 0.19634729602E+02 0.22067160790E+02 0.22770797526E+02 0.21071853155E+02 0.18122338740E+02
 0.14598765868E+02 0.11136985607E+02 0.81603143987E+01 0.58375371014E+01 0.41462981079E+01
 0.29801355132E+01 0.22239707752E+01 0.17799548962E+01 0.15765287079E+01 0.15765287529E+01
 0.17799548540E+01 0.22239708113E+01 0.29801354836E+01 0.41462981173E+01 0.58375370959E+01
 0.81603144006E+01 0.11136985619E+02 0.14598765849E+02 0.18122338736E+02 0.21071853159E+02
 0.22770797489E+02 0.22150427345E+02 0.19849088044E+02 0.16660759400E+02 0.13214460098E+02
 0.10000223718E+02 0.73213124347E+01 0.52822880537E+01 0.38295664190E+01 0.28457167606E+01
 0.22239708086E+01 0.18861054839E+01 0.17799548962E+01 0.18861054850E+01 0.22239708113E+01
 0.28457167602E+01 0.38295664282E+01 0.52822880419E+01 0.73213124379E+01 0.10000223730E+02
 0.13214460167E+02 0.16660759548E+02 0.19849088017E+02 0.22150427082E+02 0.22993434887E+02
 0.20806719495E+02 0.18374961122E+02 0.15322128005E+02 0.12167691160E+02 0.92820021777E+01
 0.68968575911E+01 0.50987555451E+01 0.38295664212E+01 0.29801355081E+01 0.24642723879E+01
 0.22239708086E+01 0.22239707752E+01 0.24642724168E+01 0.29801354836E+01 0.38295664282E+01
 0.50987555344E+01 0.68968575735E+01 0.92820022409E+01 0.12167691038E+02 0.15322128101E+02
 0.18374961238E+02 0.20806719395E+02 0.22166026143E+02 0.22166026134E+02 0.18642940569E+02
 0.16788188559E+02 0.14305753737E+02 0.11583069025E+02 0.90329796811E+01 0.68968575292E+01
 0.52822880542E+01 0.41462980982E+01 0.34001590490E+01 0.29801355081E+01 0.28457167606E+01
 0.29801355132E+01 0.34001590518E+01 0.41462981173E+01 0.52822880419E+01 0.68968575735E+01
 0.90329797214E+01 0.11583069061E+02 0.14305753868E+02 0.16788188559E+02 0.18642940347E+02
 0.19764274289E+02 0.20140756341E+02 0.19764274249E+02 0.16451048802E+02 0.15693176723E+02
 0.13914191129E+02 0.11583069054E+02 0.92820021566E+01 0.73213124809E+01 0.58375370782E+01
 0.48016563461E+01 0.41462980982E+01 0.38295664212E+01 0.38295664190E+01 0.41462981079E+01
 0.48016563351E+01 0.58375370959E+01 0.73213124379E+01 0.92820022409E+01 0.11583069061E+02
 0.13914191259E+02 0.15693176755E+02 0.16451049139E+02 0.16394838275E+02 0.16130564864E+02
 0.16130565777E+02 0.16394838769E+02 0.15508936012E+02 0.15693176761E+02 0.14305753771E+02
 0.12167690984E+02 0.10000223752E+02 0.81603143123E+01 0.67820393294E+01 0.58375370782E+01
 0.52822880542E+01 0.50987555451E+01 0.52822880537E+01 0.58375371014E+01 0.67820392846E+01
 0.81603144006E+01 0.10000223730E+02 0.12167691038E+02 0.14305753868E+02 0.15693176755E+02
 0.15508935736E+02 0.13862054755E+02 0.11890642031E+02 0.11019604599E+02 0.11890642792E+02
 0.13862054716E+02 0.16451048749E+02 0.16788187923E+02 0.15322127972E+02 0.13214459988E+02
 0.11136985496E+02 0.94231891037E+01 0.81603143123E+01 0.73213124809E+01 0.68968575292E+01
 0.68968575911E+01 0.73213124347E+01 0.81603143987E+01 0.94231890606E+01 0.11136985619E+02
 0.13214460167E+02 0.15322128101E+02 0.16788188559E+02 0.16451049139E+02 0.13862054755E+02
 0.10045481850E+02 0.72005641052E+01 0.72005626041E+01 0.10045482862E+02 0.13862058060E+02
 0.18642937093E+02 0.18374961209E+02 0.16660759265E+02 0.14598765789E+02 0.12680645852E+02
 0.11136985496E+02 0.10000223752E+02 0.92820021566E+01 0.90329796811E+01 0.92820021777E+01
 0.10000223718E+02 0.11136985607E+02 0.12680645786E+02 0.14598765849E+02 0.16660759548E+02
 0.18374961238E+02 0.18642940347E+02 0.16394838275E+02 0.11890642031E+02 0.72005641052E+01
 0.51811675584E+01 0.72005641610E+01 0.11890649016E+02 0.16394838238E+02 0.20806719529E+02
 0.19849088816E+02 0.18122338820E+02 0.16269859440E+02 0.14598765789E+02 0.13214459988E+02
 0.12167690984E+02 0.11583069054E+02 0.11583069025E+02 0.12167691160E+02 0.13214460098E+02
 0.14598765868E+02 0.16269859252E+02 0.18122338736E+02 0.19849088017E+02 0.20806719395E+02
 0.19764274289E+02 0.16130564864E+02 0.11019604599E+02 0.72005626041E+01 0.72005641610E+01
 0.11019611728E+02 0.16130565898E+02 0.19764268158E+02 0.22150429523E+02 0.21071853241E+02
 0.19634729424E+02 0.18122338820E+02 0.16660759265E+02 0.15322127972E+02 0.14305753771E+02
 0.13914191129E+02 0.14305753737E+02 0.15322128005E+02 0.16660759400E+02 0.18122338740E+02
 0.19634729602E+02 0.21071853159E+02 0.22150427082E+02 0.22166026143E+02 0.20140756341E+02
 0.16130565777E+02 0.11890642792E+02 0.10045482862E+02 0.11890649016E+02 0.16130565898E+02
 0.20140749389E+02 0.22166026220E+02 0.22770797505E+02 0.22067159881E+02 0.21071853241E+02
 0.19849088816E+02 0.18374961209E+02 0.16788187923E+02 0.15693176761E+02 0.15693176723E+02
 0.16788188559E+02 0.18374961122E+02 0.19849088044E+02 0.21071853155E+02 0.22067160790E+02
 0.22770797489E+02 0.22993434887E+02 0.22166026134E+02 0.19764274249E+02 0.16394838769E+02
 0.13862054716E+02 0.13862058060E+02 0.16394838238E+02 0.19764268158E+02 0.22166026220E+02
 0.22993438017E+02 0.22770798783E+02 0.22993434899E+02 0.22166023817E+02 0.19764274203E+02
 0.16394841366E+02 0.13862054906E+02 0.13862054014E+02 0.16394838294E+02 0.19764273934E+02
 0.22166026185E+02 0.22993434733E+02 0.22770797520E+02 0.22067160692E+02 0.21071853164E+02
 0.19849087890E+02 0.18374961208E+02 0.16788188244E+02 0.15693176805E+02 0.15693176059E+02
 0.16788188628E+02 0.18374964337E+02 0.19849087955E+02 0.21071850838E+02 0.22067160769E+02
 0.22993434899E+02 0.22913763443E+02 0.20613281423E+02 0.16158928504E+02 0.11467350486E+02
 0.94265964118E+01 0.11467350561E+02 0.16158921768E+02 0.20613281557E+02 0.22913766503E+02
 0.22993434931E+02 0.21895279972E+02 0.20407356180E+02 0.18823277940E+02 0.17282329443E+02
 0.15866031173E+02 0.14781021395E+02 0.14360415658E+02 0.14781021423E+02 0.15866031747E+02
 0.17282329435E+02 0.18823277242E+02 0.20407356053E+02 0.21895280965E+02 0.22166023817E+02
 0.20613281423E+02 0.16005446666E+02 0.96709292258E+01 0.49610526962E+01 0.49610587008E+01
 0.96709296529E+01 0.16005439220E+02 0.20613282021E+02 0.22166026179E+02 0.21322016249E+02
 0.19508102984E+02 0.17522965070E+02 0.15702664623E+02 0.14181968395E+02 0.13025803254E+02
 0.12376237312E+02 0.12376237318E+02 0.13025803193E+02 0.14181968321E+02 0.15702664828E+02
 0.17522964880E+02 0.19508103208E+02 0.21322016003E+02 0.19764274203E+02 0.16158928504E+02
 0.96709292258E+01 0.30787935151E+01 0.25999895757E+00 0.30788020153E+01 0.96709293673E+01
 0.16158923250E+02 0.19764274235E+02 0.20099798976E+02 0.18421791760E+02 0.16203811855E+02
 0.14082443147E+02 0.12349248415E+02 0.11066224542E+02 0.10251087365E+02 0.99667005935E+01
 0.10251087510E+02 0.11066224550E+02 0.12349248624E+02 0.14082443149E+02 0.16203811779E+02
 0.18421791639E+02 0.20099798177E+02 0.16394841366E+02 0.11467350486E+02 0.49610526962E+01
 0.25999895757E+00 0.26000110019E+00 0.49610586915E+01 0.11467351482E+02 0.16394838248E+02
 0.18133586475E+02 0.17141122339E+02 0.14954900463E+02 0.12664867717E+02 0.10718812170E+02
 0.92725098639E+01 0.83098511506E+01 0.78199746938E+01 0.78199746825E+01 0.83098512138E+01
 0.92725097986E+01 0.10718812327E+02 0.12664867611E+02 0.14954900551E+02 0.17141122540E+02
 0.18133586566E+02 0.13862054906E+02 0.94265964118E+01 0.49610587008E+01 0.30788020153E+01
 0.49610586915E+01 0.94266006302E+01 0.13862054882E+02 0.16141835132E+02 0.15796570480E+02
 0.13823419763E+02 0.11508627194E+02 0.94315554973E+01 0.78423117222E+01 0.67504626387E+01
 0.61061573153E+01 0.58916898399E+01 0.61061573248E+01 0.67504626523E+01 0.78423117625E+01
 0.94315554992E+01 0.11508627285E+02 0.13823420155E+02 0.15796570458E+02 0.16141836167E+02
 0.13862054014E+02 0.11467350561E+02 0.96709296529E+01 0.96709293673E+01 0.11467351482E+02
 0.13862054882E+02 0.15286175822E+02 0.14878328899E+02 0.12979199759E+02 0.10645094668E+02
 0.84901683460E+01 0.67957549343E+01 0.56020255447E+01 0.48440941967E+01 0.44744857776E+01
 0.44744858391E+01 0.48440941444E+01 0.56020256135E+01 0.67957548341E+01 0.84901685125E+01
 0.10645094547E+02 0.12979199988E+02 0.14878328733E+02 0.15286176324E+02 0.16394838294E+02
 0.16158921768E+02 0.16005439220E+02 0.16158923250E+02 0.16394838248E+02 0.16141835132E+02
 0.14878328899E+02 0.12660185368E+02 0.10169343606E+02 0.79018278957E+01 0.61031108780E+01
 0.48169463339E+01 0.39681198831E+01 0.34859366418E+01 0.33301628565E+01 0.34859366542E+01
 0.39681198631E+01 0.48169463664E+01 0.61031108515E+01 0.79018279107E+01 0.10169343627E+02
 0.12660185640E+02 0.14878328804E+02 0.16141835613E+02 0.19764273934E+02 0.20613281557E+02
 0.20613282021E+02 0.19764274235E+02 0.18133586475E+02 0.15796570480E+02 0.12979199759E+02
 0.10169343606E+02 0.77001824376E+01 0.57564398182E+01 0.43591900042E+01 0.34177549801E+01
 0.28411774975E+01 0.25702407417E+01 0.25702406951E+01 0.28411775548E+01 0.34177549375E+01
 0.43591900572E+01 0.57564397515E+01 0.77001825717E+01 0.10169343549E+02 0.12979199975E+02
 0.15796570366E+02 0.18133586570E+02 0.22166026185E+02 0.22913766503E+02 0.22166026179E+02
 0.20099798976E+02 0.17141122339E+02 0.13823419763E+02 0.10645094668E+02 0.79018278957E+01
 0.57564398182E+01 0.42094616592E+01 0.31548509242E+01 0.24818922054E+01 0.21133704080E+01
 0.19974331446E+01 0.21133703956E+01 0.24818922243E+01 0.31548508925E+01 0.42094616974E+01
 0.57564397814E+01 0.79018279108E+01 0.10645094671E+02 0.13823419886E+02 0.17141122335E+02
 0.20099798938E+02 0.22993434733E+02 0.22993434931E+02 0.21322016249E+02 0.18421791760E+02
 0.14954900463E+02 0.11508627194E+02 0.84901683460E+01 0.61031108780E+01 0.43591900042E+01
 0.31548509242E+01 0.23676929409E+01 0.19014792069E+01 0.16877495107E+01 0.16877495641E+01
 0.19014791574E+01 0.23676929927E+01 0.31548508730E+01 0.43591900515E+01 0.61031108125E+01
 0.84901684656E+01 0.11508627108E+02 0.14954900544E+02 0.18421791870E+02 0.21322016118E+02
 0.22770797520E+02 0.21895279972E+02 0.19508102984E+02 0.16203811855E+02 0.12664867717E+02
 0.94315554973E+01 0.67957549343E+01 0.48169463339E+01 0.34177549801E+01 0.24818922054E+01
 0.19014792069E+01 0.15902270477E+01 0.14927090185E+01 0.15902270599E+01 0.19014791829E+01
 0.24818922410E+01 0.34177549416E+01 0.48169463782E+01 0.67957548813E+01 0.94315555188E+01
 0.12664867754E+02 0.16203811830E+02 0.19508102949E+02 0.21895279987E+02 0.22067160692E+02
 0.20407356180E+02 0.17522965070E+02 0.14082443147E+02 0.10718812170E+02 0.78423117222E+01
 0.56020255447E+01 0.39681198831E+01 0.28411774975E+01 0.21133704080E+01 0.16877495107E+01
 0.14927090185E+01 0.14927089739E+01 0.16877495519E+01 0.21133703652E+01 0.28411775356E+01
 0.39681198454E+01 0.56020255910E+01 0.78423116885E+01 0.10718812208E+02 0.14082443117E+02
 0.17522965011E+02 0.20407356253E+02 0.22067160775E+02 0.21071853164E+02 0.18823277940E+02
 0.15702664623E+02 0.12349248415E+02 0.92725098639E+01 0.67504626387E+01 0.48440941967E+01
 0.34859366418E+01 0.25702407417E+01 0.19974331446E+01 0.16877495641E+01 0.15902270599E+01
 0.16877495519E+01 0.19974331726E+01 0.25702407108E+01 0.34859366910E+01 0.48440941453E+01
 0.67504626868E+01 0.92725098243E+01 0.12349248385E+02 0.15702664608E+02 0.18823277981E+02
 0.21071853149E+02 0.21895280009E+02 0.19849087890E+02 0.17282329443E+02 0.14181968395E+02
 0.11066224542E+02 0.83098511506E+01 0.61061573153E+01 0.44744857776E+01 0.33301628565E+01
 0.25702406951E+01 0.21133703956E+01 0.19014791574E+01 0.19014791829E+01 0.21133703652E+01
 0.25702407108E+01 0.33301628379E+01 0.44744858015E+01 0.61061573093E+01 0.83098511446E+01
 0.11066224548E+02 0.14181968308E+02 0.17282329406E+02 0.19849087987E+02 0.21322016299E+02
 0.21322016118E+02 0.18374961208E+02 0.15866031173E+02 0.13025803254E+02 0.10251087365E+02
 0.78199746938E+01 0.58916898399E+01 0.44744858391E+01 0.34859366542E+01 0.28411775548E+01
 0.24818922243E+01 0.23676929927E+01 0.24818922410E+01 0.28411775356E+01 0.34859366910E+01
 0.44744858015E+01 0.58916898900E+01 0.78199746293E+01 0.10251087430E+02 0.13025803233E+02
 0.15866030947E+02 0.18374961180E+02 0.20099798999E+02 0.20715875713E+02 0.20099798903E+02
 0.16788188244E+02 0.14781021395E+02 0.12376237312E+02 0.99667005935E+01 0.78199746825E+01
 0.61061573248E+01 0.48440941444E+01 0.39681198631E+01 0.34177549375E+01 0.31548508925E+01
 0.31548508730E+01 0.34177549416E+01 0.39681198454E+01 0.48440941453E+01 0.61061573093E+01
 0.78199746293E+01 0.99667006171E+01 0.12376237329E+02 0.14781021328E+02 0.16788188523E+02
 0.18133586517E+02 0.18790116298E+02 0.18790116941E+02 0.18133586570E+02 0.15693176805E+02
 0.14360415658E+02 0.12376237318E+02 0.10251087510E+02 0.83098512138E+01 0.67504626523E+01
 0.56020256135E+01 0.48169463664E+01 0.43591900572E+01 0.42094616974E+01 0.43591900515E+01
 0.48169463782E+01 0.56020255910E+01 0.67504626868E+01 0.83098511446E+01 0.10251087430E+02
 0.12376237329E+02 0.14360415410E+02 0.15693176783E+02 0.16141835215E+02 0.16041088288E+02
 0.15924829990E+02 0.16041088292E+02 0.16141835057E+02 0.15693176059E+02 0.14781021423E+02
 0.13025803193E+02 0.11066224550E+02 0.92725097986E+01 0.78423117625E+01 0.67957548341E+01
 0.61031108515E+01 0.57564397515E+01 0.57564397814E+01 0.61031108125E+01 0.67957548813E+01
 0.78423116885E+01 0.92725098243E+01 0.11066224548E+02 0.13025803233E+02 0.14781021328E+02
 0.15693176783E+02 0.15286175918E+02 0.13967782439E+02 0.12833907358E+02 0.12833906236E+02
 0.13967782747E+02 0.15286176324E+02 0.16788188628E+02 0.15866031747E+02 0.14181968321E+02
 0.12349248624E+02 0.10718812327E+02 0.94315554992E+01 0.84901685125E+01 0.79018279107E+01
 0.77001825717E+01 0.79018279108E+01 0.84901684656E+01 0.94315555188E+01 0.10718812208E+02
 0.12349248385E+02 0.14181968308E+02 0.15866030947E+02 0.16788188523E+02 0.16141835215E+02
 0.13967782439E+02 0.11482821956E+02 0.10384448847E+02 0.11482822470E+02 0.13967782412E+02
 0.16141832307E+02 0.18374964337E+02 0.17282329435E+02 0.15702664828E+02 0.14082443149E+02
 0.12664867611E+02 0.11508627285E+02 0.10645094547E+02 0.10169343627E+02 0.10169343549E+02
 0.10645094671E+02 0.11508627108E+02 0.12664867754E+02 0.14082443117E+02 0.15702664608E+02
 0.17282329406E+02 0.18374961180E+02 0.18133586517E+02 0.16041088288E+02 0.12833907358E+02
 0.10384448847E+02 0.10384450914E+02 0.12833906178E+02 0.16041082371E+02 0.18133586566E+02
 0.19849087955E+02 0.18823277242E+02 0.17522964880E+02 0.16203811779E+02 0.14954900551E+02
 0.13823420155E+02 0.12979199988E+02 0.12660185640E+02 0.12979199975E+02 0.13823419886E+02
 0.14954900544E+02 0.16203811830E+02 0.17522965011E+02 0.18823277981E+02 0.19849087987E+02
 0.20099798999E+02 0.18790116298E+02 0.15924829990E+02 0.12833906236E+02 0.11482822470E+02
 0.12833906178E+02 0.15924821990E+02 0.18790116193E+02 0.20099805082E+02 0.21071850838E+02
 0.20407356053E+02 0.19508103208E+02 0.18421791639E+02 0.17141122540E+02 0.15796570458E+02
 0.14878328733E+02 0.14878328804E+02 0.15796570366E+02 0.17141122335E+02 0.18421791870E+02
 0.19508102949E+02 0.20407356253E+02 0.21071853149E+02 0.21322016299E+02 0.20715875713E+02
 0.18790116941E+02 0.16041088292E+02 0.13967782747E+02 0.13967782412E+02 0.16041082371E+02
 0.18790116193E+02 0.20715883231E+02 0.21322016003E+02 0.22067160769E+02 0.21895280965E+02
 0.21322016003E+02 0.20099798177E+02 0.18133586566E+02 0.16141836167E+02 0.15286176324E+02
 0.16141835613E+02 0.18133586570E+02 0.20099798938E+02 0.21322016118E+02 0.21895279987E+02
 0.22067160775E+02 0.21895280009E+02 0.21322016118E+02 0.20099798903E+02 0.18133586570E+02
 0.16141835057E+02 0.15286176324E+02 0.16141832307E+02 0.18133586566E+02 0.20099805082E+02
 0.21322016003E+02 0.21895276958E+02 0.22150425795E+02 0.22166026236E+02 0.20140759077E+02
 0.16130565913E+02 0.11890639806E+02 0.10045482877E+02 0.11890643751E+02 0.16130565793E+02
 0.20140757159E+02 0.22166026158E+02 0.22150427355E+02 0.21071853174E+02 0.19634729749E+02
 0.18122338755E+02 0.16660759609E+02 0.15322128020E+02 0.14305753958E+02 0.13914191144E+02
 0.14305754365E+02 0.15322127987E+02 0.16660756280E+02 0.18122338836E+02 0.19634731887E+02
 0.21071853257E+02 0.22166026236E+02 0.20613284557E+02 0.16005439351E+02 0.96709231967E+01
 0.49610587470E+01 0.49610618701E+01 0.96709293655E+01 0.16005439710E+02 0.20613281488E+02
 0.22166026144E+02 0.21322016099E+02 0.19508102969E+02 0.17522964991E+02 0.15702664629E+02
 0.14181968309E+02 0.13025803183E+02 0.12376237376E+02 0.12376237252E+02 0.13025803270E+02
 0.14181967631E+02 0.15702664655E+02 0.17522965756E+02 0.19508103118E+02 0.21322015130E+02
 0.20140759077E+02 0.16005439351E+02 0.87346380833E+01 0.13857341589E+01 -.17520013115E+01
 0.13857340137E+01 0.87346453290E+01 0.16005439227E+02 0.20140756319E+02 0.20715875743E+02
 0.19063100880E+02 0.16788190411E+02 0.14593077514E+02 0.12789652282E+02 0.11452016295E+02
 0.10600775266E+02 0.10303232275E+02 0.10600775302E+02 0.11452016423E+02 0.12789652320E+02
 0.14593077314E+02 0.16788190541E+02 0.19063100693E+02 0.20715875917E+02 0.16130565913E+02
 0.96709231967E+01 0.13857341589E+01 -.45478505890E+01 -.45478574187E+01 0.13857324033E+01
 0.96709294407E+01 0.16130564838E+02 0.18790116407E+02 0.18144467418E+02 0.15936942131E+02
 0.13532041035E+02 0.11454554984E+02 0.99017034215E+01 0.88671882006E+01 0.83395063507E+01
 0.83395062561E+01 0.88671881621E+01 0.99017033877E+01 0.11454554790E+02 0.13532041040E+02
 0.15936942253E+02 0.18144467681E+02 0.18790117070E+02 0.11890639806E+02 0.49610587470E+01
 -.17520013115E+01 -.45478574187E+01 -.17520093280E+01 0.49610587723E+01 0.11890641987E+02
 0.16041088379E+02 0.16682086150E+02 0.14955649153E+02 0.12561578292E+02 0.10327244650E+02
 0.85880978022E+01 0.73900619533E+01 0.66822485692E+01 0.64458315626E+01 0.66822485081E+01
 0.73900619542E+01 0.85880977694E+01 0.10327244590E+02 0.12561578253E+02 0.14955649122E+02
 0.16682085776E+02 0.16041088422E+02 0.10045482877E+02 0.49610618701E+01 0.13857340137E+01
 0.13857324033E+01 0.49610587723E+01 0.10045481792E+02 0.13967782431E+02 0.15200043515E+02
 0.13979458844E+02 0.11702648581E+02 0.94250931284E+01 0.75666317077E+01 0.62432123241E+01
 0.54013672269E+01 0.49888297056E+01 0.49888297558E+01 0.54013671708E+01 0.62432123537E+01
 0.75666316342E+01 0.94250931358E+01 0.11702648371E+02 0.13979458646E+02 0.15200043245E+02
 0.13967781722E+02 0.11890643751E+02 0.96709293655E+01 0.87346453290E+01 0.96709294407E+01
 0.11890641987E+02 0.13967782431E+02 0.14563708356E+02 0.13331959367E+02 0.11075992054E+02
 0.87657509781E+01 0.68255944121E+01 0.54075181790E+01 0.44670156761E+01 0.39294308641E+01
 0.37543923645E+01 0.39294308722E+01 0.44670156428E+01 0.54075182022E+01 0.68255943896E+01
 0.87657509601E+01 0.11075991889E+02 0.13331959362E+02 0.14563707948E+02 0.13967782460E+02
 0.16130565793E+02 0.16005439710E+02 0.16005439227E+02 0.16130564838E+02 0.16041088379E+02
 0.15200043515E+02 0.13331959367E+02 0.10843178874E+02 0.84109202673E+01 0.63703502369E+01
 0.48589062674E+01 0.38318882989E+01 0.31988383555E+01 0.28984511189E+01 0.28984509977E+01
 0.31988384744E+01 0.38318881884E+01 0.48589063703E+01 0.63703501300E+01 0.84109203703E+01
 0.10843178612E+02 0.13331959412E+02 0.15200043228E+02 0.16041088225E+02 0.20140757159E+02
 0.20613281488E+02 0.20140756319E+02 0.18790116407E+02 0.16682086150E+02 0.13979458844E+02
 0.11075992054E+02 0.84109202673E+01 0.62168448059E+01 0.45883778354E+01 0.34661049554E+01
 0.27446947864E+01 0.23461534692E+01 0.22200534765E+01 0.23461534510E+01 0.27446947991E+01
 0.34661049247E+01 0.45883778603E+01 0.62168447587E+01 0.84109202685E+01 0.11075991849E+02
 0.13979458789E+02 0.16682086115E+02 0.18790116408E+02 0.22166026158E+02 0.22166026144E+02
 0.20715875743E+02 0.18144467418E+02 0.14955649153E+02 0.11702648581E+02 0.87657509781E+01
 0.63703502369E+01 0.45883778354E+01 0.33477224519E+01 0.25297796727E+01 0.20407440675E+01
 0.18157746319E+01 0.18157747720E+01 0.20407439355E+01 0.25297798036E+01 0.33477223359E+01
 0.45883779461E+01 0.63703501250E+01 0.87657510822E+01 0.11702648367E+02 0.14955649251E+02
 0.18144467536E+02 0.20715875642E+02 0.22150427355E+02 0.21322016099E+02 0.19063100880E+02
 0.15936942131E+02 0.12561578292E+02 0.94250931284E+01 0.68255944121E+01 0.48589062674E+01
 0.34661049554E+01 0.25297796727E+01 0.19437071481E+01 0.16281920238E+01 0.15296119372E+01
 0.16281920264E+01 0.19437071363E+01 0.25297796845E+01 0.34661049387E+01 0.48589062862E+01
 0.68255943860E+01 0.94250931023E+01 0.12561578283E+02 0.15936942056E+02 0.19063100946E+02
 0.21322016148E+02 0.21071853174E+02 0.19508102969E+02 0.16788190411E+02 0.13532041035E+02
 0.10327244650E+02 0.75666317077E+01 0.54075181790E+01 0.38318882989E+01 0.27446947864E+01
 0.20407440675E+01 0.16281920238E+01 0.14393233332E+01 0.14393231808E+01 0.16281921734E+01
 0.20407439299E+01 0.27446949139E+01 0.38318881765E+01 0.54075182883E+01 0.75666316215E+01
 0.10327244682E+02 0.13532041000E+02 0.16788190478E+02 0.19508102943E+02 0.21071853155E+02
 0.19634729749E+02 0.17522964991E+02 0.14593077514E+02 0.11454554984E+02 0.85880978022E+01
 0.62432123241E+01 0.44670156761E+01 0.31988383555E+01 0.23461534692E+01 0.18157746319E+01
 0.15296119372E+01 0.14393231808E+01 0.15296119388E+01 0.18157746304E+01 0.23461534653E+01
 0.31988383600E+01 0.44670156668E+01 0.62432123084E+01 0.85880978542E+01 0.11454554961E+02
 0.14593077634E+02 0.17522964962E+02 0.19634729616E+02 0.20407356174E+02 0.18122338755E+02
 0.15702664629E+02 0.12789652282E+02 0.99017034215E+01 0.73900619533E+01 0.54013672269E+01
 0.39294308641E+01 0.28984511189E+01 0.22200534765E+01 0.18157747720E+01 0.16281920264E+01
 0.16281921734E+01 0.18157746304E+01 0.22200536105E+01 0.28984509873E+01 0.39294309741E+01
 0.54013671404E+01 0.73900619883E+01 0.99017033774E+01 0.12789652334E+02 0.15702664576E+02
 0.18122338759E+02 0.19508102943E+02 0.19508102933E+02 0.16660759609E+02 0.14181968309E+02
 0.11452016295E+02 0.88671882006E+01 0.66822485692E+01 0.49888297056E+01 0.37543923645E+01
 0.28984509977E+01 0.23461534510E+01 0.20407439355E+01 0.19437071363E+01 0.20407439299E+01
 0.23461534653E+01 0.28984509873E+01 0.37543923655E+01 0.49888296805E+01 0.66822486414E+01
 0.88671881801E+01 0.11452016433E+02 0.14181968301E+02 0.16660759588E+02 0.18421791754E+02
 0.19063100881E+02 0.18421791784E+02 0.15322128020E+02 0.13025803183E+02 0.10600775266E+02
 0.83395063507E+01 0.64458315626E+01 0.49888297558E+01 0.39294308722E+01 0.31988384744E+01
 0.27446947991E+01 0.25297798036E+01 0.25297796845E+01 0.27446949139E+01 0.31988383600E+01
 0.39294309741E+01 0.49888296805E+01 0.64458315933E+01 0.83395062345E+01 0.10600775303E+02
 0.13025803229E+02 0.15322128125E+02 0.17141122341E+02 0.18144467449E+02 0.18144467536E+02
 0.17141122299E+02 0.14305753958E+02 0.12376237376E+02 0.10303232275E+02 0.83395062561E+01
 0.66822485081E+01 0.54013671708E+01 0.44670156428E+01 0.38318881884E+01 0.34661049247E+01
 0.33477223359E+01 0.34661049387E+01 0.38318881765E+01 0.44670156668E+01 0.54013671404E+01
 0.66822486414E+01 0.83395062345E+01 0.10303232284E+02 0.12376237329E+02 0.14305753868E+02
 0.15796570424E+02 0.16682086172E+02 0.16968974806E+02 0.16682085518E+02 0.15796570430E+02
 0.13914191144E+02 0.12376237252E+02 0.10600775302E+02 0.88671881621E+01 0.73900619542E+01
 0.62432123537E+01 0.54075182022E+01 0.48589063703E+01 0.45883778603E+01 0.45883779461E+01
 0.48589062862E+01 0.54075182883E+01 0.62432123084E+01 0.73900619883E+01 0.88671881801E+01
 0.10600775303E+02 0.12376237329E+02 0.13914191258E+02 0.14878328794E+02 0.15200043514E+02
 0.15195074679E+02 0.15195073728E+02 0.15200043228E+02 0.14878329294E+02 0.14305754365E+02
 0.13025803270E+02 0.11452016423E+02 0.99017033877E+01 0.85880977694E+01 0.75666316342E+01
 0.68255943896E+01 0.63703501300E+01 0.62168447587E+01 0.63703501250E+01 0.68255943860E+01
 0.75666316215E+01 0.85880978542E+01 0.99017033774E+01 0.11452016433E+02 0.13025803229E+02
 0.14305753868E+02 0.14878328794E+02 0.14563708340E+02 0.13836414917E+02 0.13468357624E+02
 0.13836414947E+02 0.14563707584E+02 0.14878328811E+02 0.15322127987E+02 0.14181967631E+02
 0.12789652320E+02 0.11454554790E+02 0.10327244590E+02 0.94250931358E+01 0.87657509601E+01
 0.84109203703E+01 0.84109202685E+01 0.87657510822E+01 0.94250931023E+01 0.10327244682E+02
 0.11454554961E+02 0.12789652334E+02 0.14181968301E+02 0.15322128125E+02 0.15796570424E+02
 0.15200043514E+02 0.13836414917E+02 0.12698032990E+02 0.12698034053E+02 0.13836413437E+02