   2   2   1   0
  0.2043598E+02  0.3866460E-09  0.3866460E-09  0.3866460E-09  0.5000000E-15
  1.000000000000000E-004
  CAR 
 Si                                      
     30.33534946     -8.18496257  301      5.65806378      1.00000000
     -8.185  0.0000E+00  0.0000E+00
     -8.057  0.0000E+00  0.0000E+00
     -7.928  0.0000E+00  0.0000E+00
     -7.800 -0.1025E-29 -0.1316E-30
     -7.671 -0.2077E-25 -0.2667E-26
     -7.543 -0.1852E-21 -0.2378E-22
     -7.415 -0.7269E-18 -0.9335E-19
     -7.286 -0.1218E-14 -0.1565E-15
     -7.158 -0.9206E-12 -0.1184E-12
     -7.029 -0.3064E-09 -0.3946E-10
     -6.901 -0.4480E-07 -0.5792E-08
     -6.773 -0.2865E-05 -0.3736E-06
     -6.644 -0.7905E-04 -0.1052E-04
     -6.516 -0.9025E-03 -0.1264E-03
     -6.387 -0.3573E-02 -0.5851E-03
     -6.259  0.1990E-02 -0.3296E-03
     -6.131  0.4392E-01  0.5310E-02
     -6.002  0.1172E+00  0.2035E-01
     -5.874  0.1805E+00  0.4352E-01
     -5.745  0.2247E+00  0.7237E-01
     -5.617  0.2609E+00  0.1059E+00
     -5.489  0.2941E+00  0.1436E+00
     -5.360  0.3251E+00  0.1854E+00
     -5.232  0.3552E+00  0.2310E+00
     -5.103  0.3840E+00  0.2803E+00
     -4.975  0.4127E+00  0.3333E+00
     -4.847  0.4431E+00  0.3902E+00
     -4.718  0.4691E+00  0.4504E+00
     -4.590  0.5061E+00  0.5154E+00
     -4.461  0.5324E+00  0.5838E+00
     -4.333  0.5717E+00  0.6572E+00
     -4.205  0.6190E+00  0.7366E+00
     -4.076  0.6664E+00  0.8222E+00
     -3.948  0.7755E+00  0.9218E+00
     -3.819  0.8663E+00  0.1033E+01
     -3.691  0.8586E+00  0.1143E+01
     -3.563  0.8342E+00  0.1250E+01
     -3.434  0.7870E+00  0.1351E+01
     -3.306  0.7148E+00  0.1443E+01
     -3.177  0.6835E+00  0.1531E+01
     -3.049  0.6682E+00  0.1617E+01
     -2.921  0.5676E+00  0.1690E+01
     -2.792  0.5223E+00  0.1757E+01
     -2.664  0.5444E+00  0.1827E+01
     -2.535  0.4157E+00  0.1880E+01
     -2.407  0.3316E+00  0.1923E+01
     -2.279  0.3465E+00  0.1967E+01
     -2.150  0.2109E+00  0.1994E+01
     -2.022  0.4906E-01  0.2000E+01
     -1.893  0.1130E+00  0.2015E+01
     -1.765  0.2724E+00  0.2050E+01
     -1.637  0.2563E+00  0.2083E+01
     -1.508  0.2870E+00  0.2120E+01
     -1.380  0.5182E+00  0.2186E+01
     -1.251  0.6905E+00  0.2275E+01
     -1.123  0.1041E+01  0.2409E+01
     -0.995  0.1393E+01  0.2587E+01
     -0.866  0.1199E+01  0.2741E+01
     -0.738  0.8288E+00  0.2848E+01
     -0.609  0.6745E+00  0.2934E+01
     -0.481  0.6569E+00  0.3019E+01
     -0.352  0.6119E+00  0.3097E+01
     -0.224  0.5155E+00  0.3163E+01
     -0.096  0.4574E+00  0.3222E+01
      0.033  0.4642E+00  0.3282E+01
      0.161  0.4273E+00  0.3337E+01
      0.290  0.3918E+00  0.3387E+01
      0.418  0.3269E+00  0.3429E+01
      0.546  0.3453E+00  0.3473E+01
      0.675  0.3272E+00  0.3515E+01
      0.803  0.2801E+00  0.3551E+01
      0.932  0.2730E+00  0.3586E+01
      1.060  0.2253E+00  0.3615E+01
      1.188  0.2391E+00  0.3646E+01
      1.317  0.3087E+00  0.3686E+01
      1.445  0.5581E+00  0.3757E+01
      1.574  0.9669E+00  0.3881E+01
      1.702  0.1187E+01  0.4034E+01
      1.830  0.1164E+01  0.4183E+01
      1.959  0.1082E+01  0.4322E+01
      2.087  0.1032E+01  0.4455E+01
      2.216  0.1037E+01  0.4588E+01
      2.344  0.1088E+01  0.4728E+01
      2.472  0.1102E+01  0.4869E+01
      2.601  0.1158E+01  0.5018E+01
      2.729  0.1282E+01  0.5182E+01
      2.858  0.1431E+01  0.5366E+01
      2.986  0.1522E+01  0.5562E+01
      3.114  0.1516E+01  0.5756E+01
      3.243  0.1477E+01  0.5946E+01
      3.371  0.1425E+01  0.6129E+01
      3.500  0.1406E+01  0.6309E+01
      3.628  0.1353E+01  0.6483E+01
      3.756  0.1323E+01  0.6653E+01
      3.885  0.1293E+01  0.6819E+01
      4.013  0.1256E+01  0.6980E+01
      4.142  0.1225E+01  0.7137E+01
      4.270  0.1201E+01  0.7292E+01
      4.398  0.1143E+01  0.7439E+01
      4.527  0.9927E+00  0.7566E+01
      4.655  0.7935E+00  0.7668E+01
      4.784  0.6165E+00  0.7747E+01
      4.912  0.5227E+00  0.7814E+01
      5.040  0.4303E+00  0.7869E+01
      5.169  0.3485E+00  0.7914E+01
      5.297  0.2848E+00  0.7951E+01
      5.426  0.2112E+00  0.7978E+01
      5.554  0.1298E+00  0.7994E+01
      5.682  0.4664E-01  0.8000E+01
      5.811  0.1137E-02  0.8001E+01
      5.939 -0.5412E-02  0.8000E+01
      6.068 -0.5835E-02  0.7999E+01
      6.196  0.3983E-02  0.8000E+01
      6.324  0.6298E-01  0.8008E+01
      6.453  0.1808E+00  0.8031E+01
      6.581  0.2876E+00  0.8068E+01
      6.710  0.3762E+00  0.8116E+01
      6.838  0.4700E+00  0.8177E+01
      6.966  0.5126E+00  0.8242E+01
      7.095  0.5907E+00  0.8318E+01
      7.223  0.7337E+00  0.8412E+01
      7.352  0.8352E+00  0.8520E+01
      7.480  0.9230E+00  0.8638E+01
      7.608  0.1111E+01  0.8781E+01
      7.737  0.1331E+01  0.8952E+01
      7.865  0.1537E+01  0.9149E+01
      7.994  0.1603E+01  0.9355E+01
      8.122  0.1545E+01  0.9553E+01
      8.250  0.1421E+01  0.9736E+01
      8.379  0.1228E+01  0.9893E+01
      8.507  0.1098E+01  0.1003E+02
      8.636  0.1054E+01  0.1017E+02
      8.764  0.1190E+01  0.1032E+02
      8.892  0.1686E+01  0.1054E+02
      9.021  0.2112E+01  0.1081E+02
      9.149  0.1975E+01  0.1106E+02
      9.278  0.1702E+01  0.1128E+02
      9.406  0.1658E+01  0.1150E+02
      9.534  0.1604E+01  0.1170E+02
      9.663  0.1313E+01  0.1187E+02
      9.791  0.1168E+01  0.1202E+02
      9.920  0.1304E+01  0.1219E+02
     10.048  0.1302E+01  0.1235E+02
     10.176  0.1189E+01  0.1251E+02
     10.305  0.1297E+01  0.1267E+02
     10.433  0.1450E+01  0.1286E+02
     10.562  0.1294E+01  0.1303E+02
     10.690  0.1114E+01  0.1317E+02
     10.818  0.1180E+01  0.1332E+02
     10.947  0.1252E+01  0.1348E+02
     11.075  0.1202E+01  0.1364E+02
     11.204  0.1133E+01  0.1378E+02
     11.332  0.1067E+01  0.1392E+02
     11.460  0.1111E+01  0.1406E+02
     11.589  0.1148E+01  0.1421E+02
     11.717  0.9754E+00  0.1433E+02
     11.846  0.8840E+00  0.1445E+02
     11.974  0.1080E+01  0.1459E+02
     12.102  0.1287E+01  0.1475E+02
     12.231  0.1271E+01  0.1491E+02
     12.359  0.1125E+01  0.1506E+02
     12.488  0.1067E+01  0.1520E+02
     12.616  0.1247E+01  0.1536E+02
     12.744  0.1358E+01  0.1553E+02
     12.873  0.1101E+01  0.1567E+02
     13.001  0.9478E+00  0.1579E+02
     13.130  0.1095E+01  0.1593E+02
     13.258  0.1394E+01  0.1611E+02
     13.386  0.1507E+01  0.1631E+02
     13.515  0.1297E+01  0.1647E+02
     13.643  0.1125E+01  0.1662E+02
     13.772  0.1208E+01  0.1677E+02
     13.900  0.1296E+01  0.1694E+02
     14.028  0.1197E+01  0.1709E+02
     14.157  0.1045E+01  0.1723E+02
     14.285  0.1068E+01  0.1736E+02
     14.414  0.1358E+01  0.1754E+02
     14.542  0.1502E+01  0.1773E+02
     14.670  0.1343E+01  0.1790E+02
     14.799  0.1216E+01  0.1806E+02
     14.927  0.1339E+01  0.1823E+02
     15.056  0.1526E+01  0.1843E+02
     15.184  0.1485E+01  0.1862E+02
     15.312  0.1313E+01  0.1879E+02
     15.441  0.1229E+01  0.1894E+02
     15.569  0.1278E+01  0.1911E+02
     15.698  0.1433E+01  0.1929E+02
     15.826  0.1363E+01  0.1947E+02
     15.954  0.1170E+01  0.1962E+02
     16.083  0.1082E+01  0.1976E+02
     16.211  0.1138E+01  0.1990E+02
     16.340  0.1338E+01  0.2007E+02
     16.468  0.1354E+01  0.2025E+02
     16.596  0.1212E+01  0.2040E+02
     16.725  0.1245E+01  0.2056E+02
     16.853  0.1323E+01  0.2073E+02
     16.982  0.1332E+01  0.2090E+02
     17.110  0.1250E+01  0.2106E+02
     17.238  0.1206E+01  0.2122E+02
     17.367  0.1213E+01  0.2138E+02
     17.495  0.1289E+01  0.2154E+02
     17.624  0.1541E+01  0.2174E+02
     17.752  0.1777E+01  0.2197E+02
     17.880  0.1695E+01  0.2218E+02
     18.009  0.1468E+01  0.2237E+02
     18.137  0.1544E+01  0.2257E+02
     18.266  0.1727E+01  0.2279E+02
     18.394  0.1711E+01  0.2301E+02
     18.522  0.1486E+01  0.2320E+02
     18.651  0.1314E+01  0.2337E+02
     18.779  0.1429E+01  0.2356E+02
     18.908  0.1526E+01  0.2375E+02
     19.036  0.1471E+01  0.2394E+02
     19.164  0.1552E+01  0.2414E+02
     19.293  0.1747E+01  0.2436E+02
     19.421  0.1930E+01  0.2461E+02
     19.550  0.1933E+01  0.2486E+02
     19.678  0.1768E+01  0.2509E+02
     19.806  0.1631E+01  0.2530E+02
     19.935  0.1504E+01  0.2549E+02
     20.063  0.1329E+01  0.2566E+02
     20.192  0.1251E+01  0.2582E+02
     20.320  0.1270E+01  0.2598E+02
     20.448  0.1328E+01  0.2615E+02
     20.577  0.1509E+01  0.2635E+02
     20.705  0.1638E+01  0.2656E+02
     20.834  0.1668E+01  0.2677E+02
     20.962  0.1781E+01  0.2700E+02
     21.090  0.1652E+01  0.2721E+02
     21.219  0.1314E+01  0.2738E+02
     21.347  0.1228E+01  0.2754E+02
     21.476  0.1289E+01  0.2771E+02
     21.604  0.1399E+01  0.2789E+02
     21.732  0.1443E+01  0.2807E+02
     21.861  0.1295E+01  0.2824E+02
     21.989  0.1225E+01  0.2839E+02
     22.118  0.1364E+01  0.2857E+02
     22.246  0.1622E+01  0.2878E+02
     22.374  0.1742E+01  0.2900E+02
     22.503  0.1653E+01  0.2921E+02
     22.631  0.1475E+01  0.2940E+02
     22.760  0.1374E+01  0.2958E+02
     22.888  0.1531E+01  0.2978E+02
     23.016  0.1641E+01  0.2999E+02
     23.145  0.1567E+01  0.3019E+02
     23.273  0.1561E+01  0.3039E+02
     23.402  0.1627E+01  0.3060E+02
     23.530  0.1642E+01  0.3081E+02
     23.658  0.1510E+01  0.3100E+02
     23.787  0.1459E+01  0.3119E+02
     23.915  0.1472E+01  0.3138E+02
     24.044  0.1243E+01  0.3154E+02
     24.172  0.8149E+00  0.3164E+02
     24.301  0.4935E+00  0.3171E+02
     24.429  0.3310E+00  0.3175E+02
     24.557  0.2414E+00  0.3178E+02
     24.686  0.2338E+00  0.3181E+02
     24.814  0.2768E+00  0.3184E+02
     24.943  0.2514E+00  0.3188E+02
     25.071  0.1486E+00  0.3190E+02
     25.199  0.1169E+00  0.3191E+02
     25.328  0.1201E+00  0.3193E+02
     25.456  0.1177E+00  0.3194E+02
     25.585  0.1139E+00  0.3196E+02
     25.713  0.8749E-01  0.3197E+02
     25.841  0.4491E-01  0.3197E+02
     25.970  0.2202E-01  0.3198E+02
     26.098  0.8987E-02  0.3198E+02
     26.227  0.5845E-02  0.3198E+02
     26.355  0.1642E-01  0.3198E+02
     26.483  0.3163E-01  0.3198E+02
     26.612  0.3110E-01  0.3199E+02
     26.740  0.1135E-01  0.3199E+02
     26.869 -0.9532E-03  0.3199E+02
     26.997  0.7751E-03  0.3199E+02
     27.125  0.9184E-02  0.3199E+02
     27.254  0.1508E-01  0.3199E+02
     27.382  0.1704E-01  0.3199E+02
     27.511  0.1017E-01  0.3200E+02
     27.639  0.1071E-02  0.3200E+02
     27.767  0.4658E-02  0.3200E+02
     27.896  0.1147E-01  0.3200E+02
     28.024  0.6468E-02  0.3200E+02
     28.153  0.3316E-03  0.3200E+02
     28.281  0.1747E-02  0.3200E+02
     28.409  0.3806E-02  0.3200E+02
     28.538  0.1788E-02  0.3200E+02
     28.666 -0.4366E-04  0.3200E+02
     28.795 -0.1358E-03  0.3200E+02
     28.923 -0.1987E-04  0.3200E+02
     29.051 -0.9814E-06  0.3200E+02
     29.180 -0.1914E-07  0.3200E+02
     29.308 -0.1548E-09  0.3200E+02
     29.437 -0.5308E-12  0.3200E+02
     29.565 -0.7802E-15  0.3200E+02
     29.693  0.0000E+00  0.3200E+02
     29.822  0.0000E+00  0.3200E+02
     29.950  0.0000E+00  0.3200E+02
     30.079  0.0000E+00  0.3200E+02
     30.207  0.0000E+00  0.3200E+02
     30.335  0.0000E+00  0.3200E+02
     30.33534946     -8.18496257  301      5.65806378      1.00000000
     -8.185  0.0000E+00  0.0000E+00  0.0000E+00  0.0000E+00  0.0000E+00  0.0000E+00  0.0000E+00  0.0000E+00  0.0000E+00
     -8.057  0.0000E+00  0.0000E+00  0.0000E+00  0.0000E+00  0.0000E+00  0.0000E+00  0.0000E+00  0.0000E+00  0.0000E+00
     -7.928  0.0000E+00  0.0000E+00  0.0000E+00  0.0000E+00  0.0000E+00  0.0000E+00  0.0000E+00  0.0000E+00  0.0000E+00
     -7.800 -0.2171E-30 -0.5043E-34 -0.5110E-34 -0.1075E-33  0.0000E+00  0.0000E+00  0.0000E+00  0.0000E+00  0.0000E+00
     -7.671 -0.4400E-26 -0.1061E-29 -0.1085E-29 -0.2417E-29  0.0000E+00  0.0000E+00  0.0000E+00  0.0000E+00  0.0000E+00
     -7.543 -0.3923E-22 -0.9961E-26 -0.1034E-25 -0.2391E-25  0.0000E+00  0.0000E+00  0.0000E+00  0.0000E+00  0.0000E+00
     -7.415 -0.1540E-18 -0.4192E-22 -0.4458E-22 -0.1041E-21  0.0000E+00  0.0000E+00  0.0000E+00  0.0000E+00  0.0000E+00
     -7.286 -0.2580E-15 -0.7726E-19 -0.8528E-19 -0.1933E-18  0.0000E+00  0.0000E+00  0.0000E+00  0.0000E+00  0.0000E+00
     -7.158 -0.1950E-12 -0.6556E-16 -0.7564E-16 -0.1612E-15  0.0000E+00  0.0000E+00  0.0000E+00  0.0000E+00  0.0000E+00
     -7.029 -0.6488E-10 -0.2524E-13 -0.3085E-13 -0.5911E-13  0.0000E+00  0.0000E+00  0.0000E+00  0.0000E+00  0.0000E+00
     -6.901 -0.9486E-08 -0.4394E-11 -0.5738E-11 -0.9550E-11  0.0000E+00  0.0000E+00  0.0000E+00  0.0000E+00  0.0000E+00
     -6.773 -0.6065E-06 -0.3451E-09 -0.4833E-09 -0.6841E-09  0.0000E+00  0.0000E+00  0.0000E+00  0.0000E+00  0.0000E+00
     -6.644 -0.1673E-04 -0.1216E-07 -0.1832E-07 -0.2184E-07  0.0000E+00  0.0000E+00  0.0000E+00  0.0000E+00  0.0000E+00
     -6.516 -0.1909E-03 -0.1897E-06 -0.3106E-06 -0.3071E-06  0.0000E+00  0.0000E+00  0.0000E+00  0.0000E+00  0.0000E+00
     -6.387 -0.7548E-03 -0.1243E-05 -0.2303E-05 -0.1739E-05  0.0000E+00  0.0000E+00  0.0000E+00  0.0000E+00  0.0000E+00
     -6.259  0.4265E-03 -0.2466E-05 -0.6059E-05 -0.2063E-05  0.0000E+00  0.0000E+00  0.0000E+00  0.0000E+00  0.0000E+00
     -6.131  0.9295E-02  0.7030E-05  0.9170E-05  0.1313E-04  0.0000E+00  0.0000E+00  0.0000E+00  0.0000E+00  0.0000E+00
     -6.002  0.2474E-01  0.4587E-04  0.8960E-04  0.5930E-04  0.0000E+00  0.0000E+00  0.0000E+00  0.0000E+00  0.0000E+00
     -5.874  0.3802E-01  0.1178E-03  0.2511E-03  0.1369E-03  0.0000E+00  0.0000E+00  0.0000E+00  0.0000E+00  0.0000E+00
     -5.745  0.4722E-01  0.2134E-03  0.4697E-03  0.2407E-03  0.0000E+00  0.0000E+00  0.0000E+00  0.0000E+00  0.0000E+00
     -5.617  0.5471E-01  0.3247E-03  0.7000E-03  0.3945E-03  0.0000E+00  0.0000E+00  0.0000E+00  0.0000E+00  0.0000E+00
     -5.489  0.6154E-01  0.4497E-03  0.1036E-02  0.4978E-03  0.0000E+00  0.0000E+00  0.0000E+00  0.0000E+00  0.0000E+00
     -5.360  0.6789E-01  0.5849E-03  0.1367E-02  0.6520E-03  0.0000E+00  0.0000E+00  0.0000E+00  0.0000E+00  0.0000E+00
     -5.232  0.7404E-01  0.7307E-03  0.1696E-02  0.8640E-03  0.0000E+00  0.0000E+00  0.0000E+00  0.0000E+00  0.0000E+00
     -5.103  0.7994E-01  0.8867E-03  0.2239E-02  0.8929E-03  0.0000E+00  0.0000E+00  0.0000E+00  0.0000E+00  0.0000E+00
     -4.975  0.8580E-01  0.1044E-02  0.2548E-02  0.1224E-02  0.0000E+00  0.0000E+00  0.0000E+00  0.0000E+00  0.0000E+00
     -4.847  0.9206E-01  0.1217E-02  0.2884E-02  0.1570E-02  0.0000E+00  0.0000E+00  0.0000E+00  0.0000E+00  0.0000E+00
     -4.718  0.9743E-01  0.1395E-02  0.3632E-02  0.1501E-02  0.0000E+00  0.0000E+00  0.0000E+00  0.0000E+00  0.0000E+00
     -4.590  0.1051E+00  0.1571E-02  0.4216E-02  0.1808E-02  0.0000E+00  0.0000E+00  0.0000E+00  0.0000E+00  0.0000E+00
     -4.461  0.1107E+00  0.1763E-02  0.4317E-02  0.2415E-02  0.0000E+00  0.0000E+00  0.0000E+00  0.0000E+00  0.0000E+00
     -4.333  0.1190E+00  0.1970E-02  0.5339E-02  0.2398E-02  0.0000E+00  0.0000E+00  0.0000E+00  0.0000E+00  0.0000E+00
     -4.205  0.1291E+00  0.2182E-02  0.6422E-02  0.2416E-02  0.0000E+00  0.0000E+00  0.0000E+00  0.0000E+00  0.0000E+00
     -4.076  0.1397E+00  0.2459E-02  0.6396E-02  0.3426E-02  0.0000E+00  0.0000E+00  0.0000E+00  0.0000E+00  0.0000E+00
     -3.948  0.1636E+00  0.2881E-02  0.7621E-02  0.4200E-02  0.0000E+00  0.0000E+00  0.0000E+00  0.0000E+00  0.0000E+00
     -3.819  0.1838E+00  0.3232E-02  0.9300E-02  0.4245E-02  0.0000E+00  0.0000E+00  0.0000E+00  0.0000E+00  0.0000E+00
     -3.691  0.1826E+00  0.3169E-02  0.9383E-02  0.4858E-02  0.0000E+00  0.0000E+00  0.0000E+00  0.0000E+00  0.0000E+00
     -3.563  0.1767E+00  0.2874E-02  0.9965E-02  0.5405E-02  0.0000E+00  0.0000E+00  0.0000E+00  0.0000E+00  0.0000E+00
     -3.434  0.1663E+00  0.2569E-02  0.1070E-01  0.5045E-02  0.0000E+00  0.0000E+00  0.0000E+00  0.0000E+00  0.0000E+00
     -3.306  0.1510E+00  0.2253E-02  0.1038E-01  0.4867E-02  0.0000E+00  0.0000E+00  0.0000E+00  0.0000E+00  0.0000E+00
     -3.177  0.1437E+00  0.1928E-02  0.1100E-01  0.5015E-02  0.0000E+00  0.0000E+00  0.0000E+00  0.0000E+00  0.0000E+00
     -3.049  0.1400E+00  0.1682E-02  0.1183E-01  0.5017E-02  0.0000E+00  0.0000E+00  0.0000E+00  0.0000E+00  0.0000E+00
     -2.921  0.1191E+00  0.1373E-02  0.1016E-01  0.4708E-02  0.0000E+00  0.0000E+00  0.0000E+00  0.0000E+00  0.0000E+00
     -2.792  0.1089E+00  0.1068E-02  0.1072E-01  0.4253E-02  0.0000E+00  0.0000E+00  0.0000E+00  0.0000E+00  0.0000E+00
     -2.664  0.1127E+00  0.8687E-03  0.1293E-01  0.3873E-02  0.0000E+00  0.0000E+00  0.0000E+00  0.0000E+00  0.0000E+00
     -2.535  0.8625E-01  0.5846E-03  0.9828E-02  0.3373E-02  0.0000E+00  0.0000E+00  0.0000E+00  0.0000E+00  0.0000E+00
     -2.407  0.6840E-01  0.3565E-03  0.8591E-02  0.2793E-02  0.0000E+00  0.0000E+00  0.0000E+00  0.0000E+00  0.0000E+00
     -2.279  0.7039E-01  0.2127E-03  0.1070E-01  0.2204E-02  0.0000E+00  0.0000E+00  0.0000E+00  0.0000E+00  0.0000E+00
     -2.150  0.4271E-01  0.6545E-04  0.6650E-02  0.1410E-02  0.0000E+00  0.0000E+00  0.0000E+00  0.0000E+00  0.0000E+00
     -2.022  0.9970E-02 -0.9585E-05  0.1477E-02  0.4520E-03  0.0000E+00  0.0000E+00  0.0000E+00  0.0000E+00  0.0000E+00
     -1.893  0.2197E-01  0.3264E-04  0.4731E-02  0.4776E-03  0.0000E+00  0.0000E+00  0.0000E+00  0.0000E+00  0.0000E+00
     -1.765  0.5310E-01  0.1679E-03  0.1078E-01  0.1637E-02  0.0000E+00  0.0000E+00  0.0000E+00  0.0000E+00  0.0000E+00
     -1.637  0.4989E-01  0.2585E-03  0.9439E-02  0.2316E-02  0.0000E+00  0.0000E+00  0.0000E+00  0.0000E+00  0.0000E+00
     -1.508  0.5581E-01  0.2981E-03  0.1018E-01  0.3592E-02  0.0000E+00  0.0000E+00  0.0000E+00  0.0000E+00  0.0000E+00
     -1.380  0.9971E-01  0.8249E-03  0.1950E-01  0.6095E-02  0.0000E+00  0.0000E+00  0.0000E+00  0.0000E+00  0.0000E+00
     -1.251  0.1217E+00  0.4851E-02  0.2429E-01  0.1154E-01  0.0000E+00  0.0000E+00  0.0000E+00  0.0000E+00  0.0000E+00
     -1.123  0.1597E+00  0.1536E-01  0.3185E-01  0.2585E-01  0.0000E+00  0.0000E+00  0.0000E+00  0.0000E+00  0.0000E+00
     -0.995  0.2087E+00  0.2233E-01  0.4335E-01  0.3539E-01  0.0000E+00  0.0000E+00  0.0000E+00  0.0000E+00  0.0000E+00
     -0.866  0.1821E+00  0.1846E-01  0.3987E-01  0.2851E-01  0.0000E+00  0.0000E+00  0.0000E+00  0.0000E+00  0.0000E+00
     -0.738  0.1252E+00  0.1331E-01  0.2716E-01  0.2085E-01  0.0000E+00  0.0000E+00  0.0000E+00  0.0000E+00  0.0000E+00
     -0.609  0.1013E+00  0.1133E-01  0.2146E-01  0.1832E-01  0.0000E+00  0.0000E+00  0.0000E+00  0.0000E+00  0.0000E+00
     -0.481  0.1003E+00  0.1035E-01  0.2312E-01  0.1629E-01  0.0000E+00  0.0000E+00  0.0000E+00  0.0000E+00  0.0000E+00
     -0.352  0.9358E-01  0.9538E-02  0.2287E-01  0.1449E-01  0.0000E+00  0.0000E+00  0.0000E+00  0.0000E+00  0.0000E+00
     -0.224  0.7693E-01  0.8911E-02  0.1843E-01  0.1350E-01  0.0000E+00  0.0000E+00  0.0000E+00  0.0000E+00  0.0000E+00
     -0.096  0.6735E-01  0.8393E-02  0.1599E-01  0.1285E-01  0.0000E+00  0.0000E+00  0.0000E+00  0.0000E+00  0.0000E+00
      0.033  0.6877E-01  0.8233E-02  0.1761E-01  0.1225E-01  0.0000E+00  0.0000E+00  0.0000E+00  0.0000E+00  0.0000E+00
      0.161  0.6369E-01  0.7336E-02  0.1754E-01  0.1050E-01  0.0000E+00  0.0000E+00  0.0000E+00  0.0000E+00  0.0000E+00
      0.290  0.5640E-01  0.7635E-02  0.1556E-01  0.1046E-01  0.0000E+00  0.0000E+00  0.0000E+00  0.0000E+00  0.0000E+00
      0.418  0.4667E-01  0.6611E-02  0.1283E-01  0.9209E-02  0.0000E+00  0.0000E+00  0.0000E+00  0.0000E+00  0.0000E+00
      0.546  0.4898E-01  0.7008E-02  0.1414E-01  0.9680E-02  0.0000E+00  0.0000E+00  0.0000E+00  0.0000E+00  0.0000E+00
      0.675  0.4659E-01  0.6429E-02  0.1402E-01  0.8938E-02  0.0000E+00  0.0000E+00  0.0000E+00  0.0000E+00  0.0000E+00
      0.803  0.3933E-01  0.5808E-02  0.1225E-01  0.7718E-02  0.0000E+00  0.0000E+00  0.0000E+00  0.0000E+00  0.0000E+00
      0.932  0.3682E-01  0.6405E-02  0.1162E-01  0.7976E-02  0.0000E+00  0.0000E+00  0.0000E+00  0.0000E+00  0.0000E+00
      1.060  0.3214E-01  0.4714E-02  0.9921E-02  0.6379E-02  0.0000E+00  0.0000E+00  0.0000E+00  0.0000E+00  0.0000E+00
      1.188  0.3426E-01  0.4902E-02  0.1083E-01  0.6778E-02  0.0000E+00  0.0000E+00  0.0000E+00  0.0000E+00  0.0000E+00
      1.317  0.3069E-01  0.9289E-02  0.1465E-01  0.1079E-01  0.0000E+00  0.0000E+00  0.0000E+00  0.0000E+00  0.0000E+00
      1.445  0.2573E-01  0.2384E-01  0.2708E-01  0.2463E-01  0.0000E+00  0.0000E+00  0.0000E+00  0.0000E+00  0.0000E+00
      1.574  0.3057E-01  0.4569E-01  0.4670E-01  0.4530E-01  0.0000E+00  0.0000E+00  0.0000E+00  0.0000E+00  0.0000E+00
      1.702  0.3214E-01  0.5782E-01  0.5732E-01  0.5754E-01  0.0000E+00  0.0000E+00  0.0000E+00  0.0000E+00  0.0000E+00
      1.830  0.3250E-01  0.5656E-01  0.5493E-01  0.5933E-01  0.0000E+00  0.0000E+00  0.0000E+00  0.0000E+00  0.0000E+00
      1.959  0.3257E-01  0.5219E-01  0.4893E-01  0.5869E-01  0.0000E+00  0.0000E+00  0.0000E+00  0.0000E+00  0.0000E+00
      2.087  0.2991E-01  0.5030E-01  0.4588E-01  0.5852E-01  0.0000E+00  0.0000E+00  0.0000E+00  0.0000E+00  0.0000E+00
      2.216  0.3090E-01  0.5144E-01  0.4661E-01  0.5916E-01  0.0000E+00  0.0000E+00  0.0000E+00  0.0000E+00  0.0000E+00
      2.344  0.3156E-01  0.5578E-01  0.4699E-01  0.6466E-01  0.0000E+00  0.0000E+00  0.0000E+00  0.0000E+00  0.0000E+00
      2.472  0.2804E-01  0.5969E-01  0.4593E-01  0.6815E-01  0.0000E+00  0.0000E+00  0.0000E+00  0.0000E+00  0.0000E+00
      2.601  0.2706E-01  0.6666E-01  0.4812E-01  0.7184E-01  0.0000E+00  0.0000E+00  0.0000E+00  0.0000E+00  0.0000E+00
      2.729  0.2697E-01  0.7908E-01  0.4729E-01  0.8573E-01  0.0000E+00  0.0000E+00  0.0000E+00  0.0000E+00  0.0000E+00
      2.858  0.2529E-01  0.9598E-01  0.4560E-01  0.1028E+00  0.0000E+00  0.0000E+00  0.0000E+00  0.0000E+00  0.0000E+00
      2.986  0.2400E-01  0.1080E+00  0.4903E-01  0.1086E+00  0.0000E+00  0.0000E+00  0.0000E+00  0.0000E+00  0.0000E+00
      3.114  0.2176E-01  0.1107E+00  0.5072E-01  0.1070E+00  0.0000E+00  0.0000E+00  0.0000E+00  0.0000E+00  0.0000E+00
      3.243  0.2031E-01  0.1095E+00  0.5024E-01  0.1047E+00  0.0000E+00  0.0000E+00  0.0000E+00  0.0000E+00  0.0000E+00
      3.371  0.1954E-01  0.1082E+00  0.5274E-01  0.9668E-01  0.0000E+00  0.0000E+00  0.0000E+00  0.0000E+00  0.0000E+00
      3.500  0.1802E-01  0.1084E+00  0.5877E-01  0.9019E-01  0.0000E+00  0.0000E+00  0.0000E+00  0.0000E+00  0.0000E+00
      3.628  0.1559E-01  0.1073E+00  0.5757E-01  0.8625E-01  0.0000E+00  0.0000E+00  0.0000E+00  0.0000E+00  0.0000E+00
      3.756  0.1477E-01  0.1080E+00  0.5553E-01  0.8516E-01  0.0000E+00  0.0000E+00  0.0000E+00  0.0000E+00  0.0000E+00
      3.885  0.1360E-01  0.1071E+00  0.5803E-01  0.8075E-01  0.0000E+00  0.0000E+00  0.0000E+00  0.0000E+00  0.0000E+00
      4.013  0.1153E-01  0.1078E+00  0.5957E-01  0.7522E-01  0.0000E+00  0.0000E+00  0.0000E+00  0.0000E+00  0.0000E+00
      4.142  0.1066E-01  0.1079E+00  0.5996E-01  0.7170E-01  0.0000E+00  0.0000E+00  0.0000E+00  0.0000E+00  0.0000E+00
      4.270  0.8984E-02  0.1097E+00  0.5970E-01  0.6956E-01  0.0000E+00  0.0000E+00  0.0000E+00  0.0000E+00  0.0000E+00
      4.398  0.7293E-02  0.1066E+00  0.5670E-01  0.6730E-01  0.0000E+00  0.0000E+00  0.0000E+00  0.0000E+00  0.0000E+00
      4.527  0.6608E-02  0.9315E-01  0.5116E-01  0.5729E-01  0.0000E+00  0.0000E+00  0.0000E+00  0.0000E+00  0.0000E+00
      4.655  0.5179E-02  0.7373E-01  0.4296E-01  0.4497E-01  0.0000E+00  0.0000E+00  0.0000E+00  0.0000E+00  0.0000E+00
      4.784  0.3764E-02  0.5721E-01  0.3513E-01  0.3392E-01  0.0000E+00  0.0000E+00  0.0000E+00  0.0000E+00  0.0000E+00
      4.912  0.3420E-02  0.4817E-01  0.2959E-01  0.2961E-01  0.0000E+00  0.0000E+00  0.0000E+00  0.0000E+00  0.0000E+00
      5.040  0.2520E-02  0.3996E-01  0.2445E-01  0.2456E-01  0.0000E+00  0.0000E+00  0.0000E+00  0.0000E+00  0.0000E+00
      5.169  0.1602E-02  0.3255E-01  0.2093E-01  0.1924E-01  0.0000E+00  0.0000E+00  0.0000E+00  0.0000E+00  0.0000E+00
      5.297  0.1194E-02  0.2650E-01  0.1612E-01  0.1708E-01  0.0000E+00  0.0000E+00  0.0000E+00  0.0000E+00  0.0000E+00
      5.426  0.6388E-03  0.1989E-01  0.1074E-01  0.1397E-01  0.0000E+00  0.0000E+00  0.0000E+00  0.0000E+00  0.0000E+00
      5.554  0.2237E-03  0.1222E-01  0.7602E-02  0.7760E-02  0.0000E+00  0.0000E+00  0.0000E+00  0.0000E+00  0.0000E+00
      5.682  0.4128E-04  0.4297E-02  0.3567E-02  0.2088E-02  0.0000E+00  0.0000E+00  0.0000E+00  0.0000E+00  0.0000E+00
      5.811 -0.2008E-04  0.5752E-04  0.3308E-03 -0.1082E-03  0.0000E+00  0.0000E+00  0.0000E+00  0.0000E+00  0.0000E+00
      5.939 -0.8233E-04 -0.3730E-03 -0.3276E-03 -0.2052E-03  0.0000E+00  0.0000E+00  0.0000E+00  0.0000E+00  0.0000E+00
      6.068 -0.2464E-03 -0.9718E-04 -0.2838E-03 -0.5386E-04  0.0000E+00  0.0000E+00  0.0000E+00  0.0000E+00  0.0000E+00
      6.196  0.2312E-03 -0.2782E-04  0.1923E-03 -0.1796E-04  0.0000E+00  0.0000E+00  0.0000E+00  0.0000E+00  0.0000E+00
      6.324  0.3228E-02  0.8409E-04  0.2733E-02  0.8291E-04  0.0000E+00  0.0000E+00  0.0000E+00  0.0000E+00  0.0000E+00
      6.453  0.9067E-02  0.4654E-03  0.7688E-02  0.4053E-03  0.0000E+00  0.0000E+00  0.0000E+00  0.0000E+00  0.0000E+00
      6.581  0.1417E-01  0.9898E-03  0.1224E-01  0.8033E-03  0.0000E+00  0.0000E+00  0.0000E+00  0.0000E+00  0.0000E+00
      6.710  0.1806E-01  0.1885E-02  0.1598E-01  0.1420E-02  0.0000E+00  0.0000E+00  0.0000E+00  0.0000E+00  0.0000E+00
      6.838  0.2195E-01  0.3030E-02  0.2016E-01  0.2196E-02  0.0000E+00  0.0000E+00  0.0000E+00  0.0000E+00  0.0000E+00
      6.966  0.2344E-01  0.3702E-02  0.2264E-01  0.2656E-02  0.0000E+00  0.0000E+00  0.0000E+00  0.0000E+00  0.0000E+00
      7.095  0.2816E-01  0.5035E-02  0.2546E-01  0.3979E-02  0.0000E+00  0.0000E+00  0.0000E+00  0.0000E+00  0.0000E+00
      7.223  0.3901E-01  0.7215E-02  0.2940E-01  0.6949E-02  0.0000E+00  0.0000E+00  0.0000E+00  0.0000E+00  0.0000E+00
      7.352  0.4910E-01  0.8509E-02  0.3189E-01  0.1033E-01  0.0000E+00  0.0000E+00  0.0000E+00  0.0000E+00  0.0000E+00
      7.480  0.5761E-01  0.9707E-02  0.3492E-01  0.1345E-01  0.0000E+00  0.0000E+00  0.0000E+00  0.0000E+00  0.0000E+00
      7.608  0.7074E-01  0.1235E-01  0.4093E-01  0.1934E-01  0.0000E+00  0.0000E+00  0.0000E+00  0.0000E+00  0.0000E+00
      7.737  0.8845E-01  0.1481E-01  0.4906E-01  0.2695E-01  0.0000E+00  0.0000E+00  0.0000E+00  0.0000E+00  0.0000E+00
      7.865  0.1054E+00  0.1638E-01  0.5981E-01  0.3347E-01  0.0000E+00  0.0000E+00  0.0000E+00  0.0000E+00  0.0000E+00
      7.994  0.1088E+00  0.1766E-01  0.6282E-01  0.4049E-01  0.0000E+00  0.0000E+00  0.0000E+00  0.0000E+00  0.0000E+00
      8.122  0.9814E-01  0.1967E-01  0.5651E-01  0.4697E-01  0.0000E+00  0.0000E+00  0.0000E+00  0.0000E+00  0.0000E+00
      8.250  0.8359E-01  0.2186E-01  0.4807E-01  0.4709E-01  0.0000E+00  0.0000E+00  0.0000E+00  0.0000E+00  0.0000E+00
      8.379  0.6803E-01  0.2352E-01  0.4168E-01  0.3966E-01  0.0000E+00  0.0000E+00  0.0000E+00  0.0000E+00  0.0000E+00
      8.507  0.5818E-01  0.2511E-01  0.3850E-01  0.3362E-01  0.0000E+00  0.0000E+00  0.0000E+00  0.0000E+00  0.0000E+00
      8.636  0.5155E-01  0.2890E-01  0.3643E-01  0.3164E-01  0.0000E+00  0.0000E+00  0.0000E+00  0.0000E+00  0.0000E+00
      8.764  0.4580E-01  0.3637E-01  0.3863E-01  0.3840E-01  0.0000E+00  0.0000E+00  0.0000E+00  0.0000E+00  0.0000E+00
      8.892  0.4737E-01  0.5035E-01  0.5398E-01  0.6047E-01  0.0000E+00  0.0000E+00  0.0000E+00  0.0000E+00  0.0000E+00
      9.021  0.5365E-01  0.6566E-01  0.6929E-01  0.7600E-01  0.0000E+00  0.0000E+00  0.0000E+00  0.0000E+00  0.0000E+00
      9.149  0.5610E-01  0.6683E-01  0.6630E-01  0.6528E-01  0.0000E+00  0.0000E+00  0.0000E+00  0.0000E+00  0.0000E+00
      9.278  0.5371E-01  0.6314E-01  0.5603E-01  0.5135E-01  0.0000E+00  0.0000E+00  0.0000E+00  0.0000E+00  0.0000E+00
      9.406  0.5650E-01  0.6668E-01  0.4953E-01  0.5149E-01  0.0000E+00  0.0000E+00  0.0000E+00  0.0000E+00  0.0000E+00
      9.534  0.5638E-01  0.6808E-01  0.4512E-01  0.5144E-01  0.0000E+00  0.0000E+00  0.0000E+00  0.0000E+00  0.0000E+00
      9.663  0.4083E-01  0.6046E-01  0.3493E-01  0.4122E-01  0.0000E+00  0.0000E+00  0.0000E+00  0.0000E+00  0.0000E+00
      9.791  0.3324E-01  0.5751E-01  0.2868E-01  0.3596E-01  0.0000E+00  0.0000E+00  0.0000E+00  0.0000E+00  0.0000E+00
      9.920  0.3497E-01  0.6544E-01  0.3030E-01  0.4008E-01  0.0000E+00  0.0000E+00  0.0000E+00  0.0000E+00  0.0000E+00
     10.048  0.3397E-01  0.6519E-01  0.2977E-01  0.4054E-01  0.0000E+00  0.0000E+00  0.0000E+00  0.0000E+00  0.0000E+00
     10.176  0.3303E-01  0.5921E-01  0.2812E-01  0.3609E-01  0.0000E+00  0.0000E+00  0.0000E+00  0.0000E+00  0.0000E+00
     10.305  0.3786E-01  0.6281E-01  0.3048E-01  0.4136E-01  0.0000E+00  0.0000E+00  0.0000E+00  0.0000E+00  0.0000E+00
     10.433  0.4313E-01  0.6831E-01  0.3415E-01  0.4898E-01  0.0000E+00  0.0000E+00  0.0000E+00  0.0000E+00  0.0000E+00
     10.562  0.3979E-01  0.6042E-01  0.3205E-01  0.4454E-01  0.0000E+00  0.0000E+00  0.0000E+00  0.0000E+00  0.0000E+00
     10.690  0.3661E-01  0.4994E-01  0.2970E-01  0.3987E-01  0.0000E+00  0.0000E+00  0.0000E+00  0.0000E+00  0.0000E+00
     10.818  0.3920E-01  0.5079E-01  0.3195E-01  0.4303E-01  0.0000E+00  0.0000E+00  0.0000E+00  0.0000E+00  0.0000E+00
     10.947  0.3878E-01  0.5570E-01  0.3252E-01  0.4608E-01  0.0000E+00  0.0000E+00  0.0000E+00  0.0000E+00  0.0000E+00
     11.075  0.3645E-01  0.5440E-01  0.3101E-01  0.4503E-01  0.0000E+00  0.0000E+00  0.0000E+00  0.0000E+00  0.0000E+00
     11.204  0.3477E-01  0.4939E-01  0.3042E-01  0.4261E-01  0.0000E+00  0.0000E+00  0.0000E+00  0.0000E+00  0.0000E+00
     11.332  0.3203E-01  0.4450E-01  0.2895E-01  0.4256E-01  0.0000E+00  0.0000E+00  0.0000E+00  0.0000E+00  0.0000E+00
     11.460  0.3260E-01  0.4696E-01  0.3001E-01  0.4756E-01  0.0000E+00  0.0000E+00  0.0000E+00  0.0000E+00  0.0000E+00
     11.589  0.3082E-01  0.4982E-01  0.2845E-01  0.5161E-01  0.0000E+00  0.0000E+00  0.0000E+00  0.0000E+00  0.0000E+00
     11.717  0.2366E-01  0.4209E-01  0.2494E-01  0.4153E-01  0.0000E+00  0.0000E+00  0.0000E+00  0.0000E+00  0.0000E+00
     11.846  0.2139E-01  0.3619E-01  0.2875E-01  0.3009E-01  0.0000E+00  0.0000E+00  0.0000E+00  0.0000E+00  0.0000E+00