    2    2    1    1
  0.2043598E+02  0.3866460E-09  0.3866460E-09  0.3866460E-09  0.5000000E-15
  1.000000000000000E-004
  CAR 
 Si                                      
      8    408     16
 
  0.3125000E-01  0.3125000E-01  0.3125000E-01  0.4882812E-03
    1       -6.184963   1.000000
    2        5.469546   1.018097
    3        5.598090   0.741562
    4        5.598090   0.741556
    5        8.208041  -0.000000
    6        8.208558  -0.000000
    7        8.208558  -0.000000
    8        8.854959  -0.000000
    9       13.284901   0.000000
   10       13.284901   0.000000
   11       13.555310   0.000000
   12       16.750709   0.000000
   13       16.888910   0.000000
   14       16.888910   0.000000
   15       20.987497   0.000000
   16       28.335349   0.000000
 
  0.9375000E-01  0.3125000E-01  0.3125000E-01  0.1464844E-02
    1       -6.117878   1.000000
    2        4.891994   1.000000
    3        5.350993   1.026053
    4        5.568639   0.839688
    5        8.266101  -0.000000
    6        8.275507  -0.000000
    7        8.405060  -0.000000
    8        9.376270  -0.000000
    9       12.961416   0.000000
   10       13.217947   0.000000
   11       13.840483   0.000000
   12       16.619319   0.000000
   13       17.055359   0.000000
   14       17.442787   0.000000
   15       21.436930   0.000000
   16       27.360369   0.000000
 
  0.1562500E+00  0.3125000E-01  0.3125000E-01  0.1464844E-02
    1       -5.951315   1.000000
    2        3.824768   1.000000
    3        5.092370   1.000236
    4        5.400630   1.034907
    5        8.106883  -0.000000
    6        8.534452  -0.000000
    7        8.754549  -0.000000
    8       10.372180  -0.000000
    9       12.596899   0.000000
   10       13.002321   0.000000
   11       14.423100   0.000000
   12       16.278159   0.000000
   13       17.851731   0.000000
   14       18.381002   0.000000
   15       22.353134   0.000000
   16       25.694025   0.000000
 
  0.2187500E+00  0.3125000E-01  0.3125000E-01  0.1464844E-02
    1       -5.688648   1.000000
    2        2.672782   1.000000
    3        4.841673   1.000000
    4        5.172028   1.001573
    5        7.868479  -0.000000
    6        8.835862  -0.000000
    7        9.080286  -0.000000
    8       11.418601   0.000000
    9       12.419646   0.000000
   10       12.965770   0.000000
   11       14.766764   0.000000
   12       16.489576   0.000000
   13       18.923349   0.000000
   14       19.512075   0.000000
   15       23.357243   0.000000
   16       24.073388   0.000000
 
  0.2812500E+00  0.3125000E-01  0.3125000E-01  0.1464844E-02
    1       -5.337127   1.000000
    2        1.551488   1.000000
    3        4.628595   1.000000
    4        4.941596   1.000002
    5        7.633464  -0.000000
    6        9.028905  -0.000000
    7        9.239225  -0.000000
    8       12.330032   0.000000
    9       12.589468   0.000000
   10       13.369913   0.000000
   11       14.585389   0.000000
   12       17.559013   0.000000
   13       19.973489   0.000000
   14       20.591456   0.000000
   15       22.622267   0.000000
   16       23.389674   0.000000
 
  0.3437500E+00  0.3125000E-01  0.3125000E-01  0.1464844E-02
    1       -4.912052   1.000000
    2        0.514609   1.000000
    3        4.468217   1.000000
    4        4.739592   1.000000
    5        7.435950  -0.000000
    6        9.069927  -0.000000
    7        9.217280  -0.000000
    8       13.064600   0.000000
    9       13.146603   0.000000
   10       14.024449   0.000000
   11       14.608316   0.000000
   12       18.830032   0.000000
   13       19.931125   0.000000
   14       20.587340   0.000000
   15       22.296787   0.000000
   16       22.713661   0.000000
 
  0.4062500E+00  0.3125000E-01  0.3125000E-01  0.1464844E-02
    1       -4.449846   1.000000
    2       -0.383918   1.000000
    3        4.366515   1.000000
    4        4.580288   1.000000
    5        7.291704  -0.000000
    6        9.033089  -0.000000
    7        9.108955  -0.000000
    8       13.418752   0.000000
    9       14.009864   0.000000
   10       14.543437   0.000000
   11       15.499672   0.000000
   12       18.543681   0.000000
   13       19.355900   0.000000
   14       19.623476   0.000000
   15       22.181525   0.000000
   16       23.930836   0.000000
 
  0.4687500E+00  0.3125000E-01  0.3125000E-01  0.1464844E-02
    1       -4.046720   1.000000
    2       -1.038984   1.000000
    3        4.324742   1.000000
    4        4.470736   1.000000
    5        7.207862  -0.000000
    6        9.001839  -0.000000
    7        9.003101  -0.000000
    8       13.395983   0.000000
    9       15.077058   0.000000
   10       15.464045   0.000000
   11       16.563824   0.000000
   12       17.265594   0.000000
   13       17.982863   0.000000
   14       18.930131   0.000000
   15       23.494321   0.000000
   16       25.533767   0.000000
 
 -0.4687500E+00  0.3125000E-01  0.3125000E-01  0.1464844E-02
    1       -3.912718   1.000000
    2       -1.236237   1.000000
    3        4.341808   1.000000
    4        4.414991   1.000000
    5        7.187283  -0.000000
    6        8.945811  -0.000000
    7        9.019815  -0.000000
    8       13.371719   0.000000
    9       15.637230   0.000000
   10       16.107110   0.000000
   11       16.832002   0.000000
   12       16.866946   0.000000
   13       17.216227   0.000000
   14       18.496474   0.000000
   15       24.617250   0.000000
   16       25.484940   0.000000
 
 -0.4062500E+00  0.3125000E-01  0.3125000E-01  0.1464844E-02
    1       -4.163835   1.000000
    2       -0.858777   1.000000
    3        4.415493   1.000000
    4        4.415900   1.000000
    5        7.230491  -0.000000
    6        8.948693  -0.000000
    7        9.095591  -0.000000
    8       13.395333   0.000000
    9       14.615729   0.000000
   10       15.342361   0.000000
   11       16.123979   0.000000
   12       17.777766   0.000000
   13       18.253988   0.000000
   14       19.297565   0.000000
   15       22.969062   0.000000
   16       25.001597   0.000000
 
 -0.3437500E+00  0.3125000E-01  0.3125000E-01  0.1464844E-02
    1       -4.603997   1.000000
    2       -0.104607   1.000000
    3        4.475400   1.000000
    4        4.542777   1.000000
    5        7.336084  -0.000000
    6        8.992325  -0.000000
    7        9.207186  -0.000000
    8       13.206031   0.000000
    9       13.912213   0.000000
   10       14.326856   0.000000
   11       15.087719   0.000000
   12       19.141814   0.000000
   13       19.268468   0.000000
   14       19.956408   0.000000
   15       22.074720   0.000000
   16       23.467973   0.000000
 
 -0.2812500E+00  0.3125000E-01  0.3125000E-01  0.1464844E-02
    1       -5.060280   1.000000
    2        0.847832   1.000000
    3        4.593866   1.000000
    4        4.719093   1.000000
    5        7.499794  -0.000000
    6        9.018209  -0.000000
    7        9.295799  -0.000000
    8       12.554080   0.000000
    9       13.518289   0.000000
   10       13.525034   0.000000
   11       14.506528   0.000000
   12       18.438651   0.000000
   13       20.174145   0.000000
   14       20.748287   0.000000
   15       22.469456   0.000000
   16       22.603467   0.000000
 
 -0.2187500E+00  0.3125000E-01  0.3125000E-01  0.1464844E-02
    1       -5.463436   1.000000
    2        1.918183   1.000000
    3        4.768534   1.000000
    4        4.935870   1.000002
    5        7.711728  -0.000000
    6        8.932444  -0.000000
    7        9.266208  -0.000000
    8       11.921379   0.000000
    9       12.752207   0.000000
   10       13.043855   0.000000
   11       14.660156   0.000000
   12       17.150302   0.000000
   13       19.698929   0.000000
   14       20.222683   0.000000
   15       23.188976   0.000000
   16       23.390588   0.000000
 
 -0.1562500E+00  0.3125000E-01  0.3125000E-01  0.1464844E-02
    1       -5.786512   1.000000
    2        3.057678   1.000000
    3        4.990369   1.000012
    4        5.174845   1.001671
    5        7.949551  -0.000000
    6        8.689718  -0.000000
    7        9.051670  -0.000000
    8       11.056322  -0.000000
    9       12.466532   0.000000
   10       12.938419   0.000000
   11       14.726639   0.000000
   12       16.304288   0.000000
   13       18.595664   0.000000
   14       19.067567   0.000000
   15       23.063831   0.000000
   16       24.761579   0.000000
 
 -0.9375000E-01  0.3125000E-01  0.3125000E-01  0.1464844E-02
    1       -6.017709   1.000000
    2        4.204456   1.000000
    3        5.237890   1.005694
    4        5.396795   1.034542
    5        8.151048  -0.000000
    6        8.405163  -0.000000
    7        8.709690  -0.000000
    8       10.004353  -0.000000
    9       12.671336   0.000000
   10       13.112333   0.000000
   11       14.216501   0.000000
   12       16.371869   0.000000
   13       17.596956   0.000000
   14       17.975818   0.000000
   15       22.021582   0.000000
   16       26.580273   0.000000
 
 -0.3125000E-01  0.3125000E-01  0.3125000E-01  0.1464844E-02
    1       -6.151384   1.000000
    2        5.204020   1.003037
    3        5.465919   1.020555
    4        5.529096   0.939118
    5        8.129496  -0.000000
    6        8.335077  -0.000000
    7        8.381391  -0.000000
    8        9.095445  -0.000000
    9       13.038229   0.000000
   10       13.323894   0.000000
   11       13.701270   0.000000
   12       16.737623   0.000000
   13       16.946584   0.000000
   14       17.136920   0.000000
   15       21.223971   0.000000
   16       27.840767   0.000000
 
  0.9375000E-01  0.9375000E-01  0.3125000E-01  0.1464844E-02
    1       -6.084282   1.000000
    2        4.832474   1.000000
    3        5.243435   1.006267
    4        5.320022   1.018977
    5        7.983351  -0.000000
    6        8.598997  -0.000000
    7        8.684884  -0.000000
    8        9.461999  -0.000000
    9       12.647869   0.000000
   10       13.401861   0.000000
   11       13.979030   0.000000
   12       16.820017   0.000000
   13       17.061650   0.000000
   14       17.450577   0.000000
   15       21.682800   0.000000
   16       27.127042   0.000000
 
  0.1562500E+00  0.9375000E-01  0.3125000E-01  0.2929688E-02
    1       -5.950760   1.000000
    2        4.084292   1.000000
    3        4.857852   1.000000
    4        5.230321   1.004979
    5        7.965174  -0.000000
    6        8.739042  -0.000000
    7        9.024112  -0.000000
    8       10.142201  -0.000000
    9       12.290147   0.000000
   10       13.385526   0.000000
   11       14.473904   0.000000
   12       16.729821   0.000000
   13       17.353406   0.000000
   14       18.243526   0.000000
   15       22.465118   0.000000
   16       25.641891   0.000000
 
  0.2187500E+00  0.9375000E-01  0.3125000E-01  0.2929688E-02
    1       -5.719813   1.000000
    2        3.017243   1.000000
    3        4.560834   1.000000
    4        5.050236   1.000075
    5        8.088749  -0.000000
    6        8.694684  -0.000000
    7        9.403824  -0.000000
    8       10.812433  -0.000000
    9       12.324810   0.000000
   10       13.362698   0.000000
   11       15.035009   0.000000
   12       16.578363   0.000000
   13       18.238622   0.000000
   14       19.373868   0.000000
   15       23.454452   0.000000
   16       24.011346   0.000000
 
  0.2812500E+00  0.9375000E-01  0.3125000E-01  0.2929688E-02
    1       -5.397091   1.000000
    2        1.913537   1.000000
    3        4.323043   1.000000
    4        4.812677   1.000000
    5        8.043603  -0.000000
    6        8.807690  -0.000000
    7        9.627382  -0.000000
    8       11.157429   0.000000
    9       12.883292   0.000000
   10       13.711951   0.000000
   11       15.048637   0.000000
   12       17.270981   0.000000
   13       19.289022   0.000000
   14       20.551917   0.000000
   15       22.466894   0.000000
   16       23.436244   0.000000
 
  0.3437500E+00  0.9375000E-01  0.3125000E-01  0.2929688E-02
    1       -4.994265   1.000000
    2        0.862364   1.000000
    3        4.140933   1.000000
    4        4.582973   1.000000
    5        7.890024  -0.000000
    6        8.901987  -0.000000
    7        9.640754  -0.000000
    8       11.630768   0.000000
    9       13.568788   0.000000
   10       14.499652   0.000000
   11       14.846112   0.000000
   12       18.434849   0.000000
   13       19.700011   0.000000
   14       21.002364   0.000000
   15       21.884748   0.000000
   16       22.831949   0.000000
 
  0.4062500E+00  0.9375000E-01  0.3125000E-01  0.2929688E-02
    1       -4.538058   1.000000
    2       -0.079354   1.000000
    3        4.008062   1.000000
    4        4.402169   1.000000
    5        7.747185  -0.000000
    6        8.895466  -0.000000
    7        9.527843  -0.000000
    8       12.368106   0.000000
    9       14.170576   0.000000
   10       14.764543   0.000000
   11       15.682610   0.000000
   12       18.407854   0.000000
   13       19.280933   0.000000
   14       20.552793   0.000000
   15       22.277877   0.000000
   16       23.053610   0.000000
 
  0.4687500E+00  0.9375000E-01  0.3125000E-01  0.2929688E-02
    1       -4.097364   1.000000
    2       -0.828299   1.000000
    3        3.910611   1.000000
    4        4.300228   1.000000
    5        7.650869  -0.000000
    6        8.866781  -0.000000
    7        9.393015  -0.000000
    8       13.175313   0.000000
    9       14.309763   0.000000
   10       15.595866   0.000000
   11       16.790686   0.000000
   12       17.181501   0.000000
   13       18.285018   0.000000
   14       20.073039   0.000000
   15       22.933838   0.000000
   16       24.577693   0.000000
 
 -0.4687500E+00  0.9375000E-01  0.3125000E-01  0.2929688E-02
    1       -3.845509   1.000000
    2       -1.204215   1.000000
    3        3.841334   1.000000
    4        4.291452   1.000000
    5        7.612452  -0.000000
    6        8.869788  -0.000000
    7        9.301808  -0.000000
    8       13.575237   0.000000
    9       14.802859   0.000000
   10       15.686825   0.000000
   11       16.875581   0.000000
   12       17.109942   0.000000
   13       18.060269   0.000000
   14       19.056490   0.000000
   15       24.541015   0.000000
   16       25.277361   0.000000
 
 -0.4062500E+00  0.9375000E-01  0.3125000E-01  0.2929688E-02
    1       -3.980398   1.000000
    2       -1.006821   1.000000
    3        3.810531   1.000000
    4        4.367733   1.000000
    5        7.635070  -0.000000
    6        8.913031  -0.000000
    7        9.287136  -0.000000
    8       13.530072   0.000000
    9       14.491871   0.000000
   10       15.317910   0.000000
   11       16.686544   0.000000
   12       17.457852   0.000000
   13       18.346983   0.000000
   14       19.481069   0.000000
   15       23.372687   0.000000
   16       25.108069   0.000000
 
 -0.3437500E+00  0.9375000E-01  0.3125000E-01  0.2929688E-02
    1       -4.384461   1.000000
    2       -0.354909   1.000000
    3        3.833163   1.000000
    4        4.512771   1.000000
    5        7.717751  -0.000000
    6        8.973507  -0.000000
    7        9.352115  -0.000000
    8       12.965104   0.000000
    9       13.881116   0.000000
   10       14.750335   0.000000
   11       16.327524   0.000000
   12       17.766686   0.000000
   13       19.533330   0.000000
   14       20.294476   0.000000
   15       22.159951   0.000000
   16       23.494423   0.000000
 
 -0.2812500E+00  0.9375000E-01  0.3125000E-01  0.2929688E-02
    1       -4.846712   1.000000
    2        0.534907   1.000000
    3        3.919527   1.000000
    4        4.710904   1.000000
    5        7.855788  -0.000000
    6        9.003828  -0.000000
    7        9.451165  -0.000000
    8       12.185519   0.000000
    9       13.174188   0.000000
   10       14.734954   0.000000
   11       15.212280   0.000000
   12       18.556640   0.000000
   13       19.598716   0.000000
   14       21.036301   0.000000
   15       21.873482   0.000000
   16       22.825168   0.000000
 
 -0.2187500E+00  0.9375000E-01  0.3125000E-01  0.2929688E-02
    1       -5.271396   1.000000
    2        1.554501   1.000000
    3        4.075726   1.000000
    4        4.944255   1.000003
    5        8.037451  -0.000000
    6        8.926514  -0.000000
    7        9.474756  -0.000000
    8       11.584872   0.000000
    9       12.544320   0.000000
   10       14.200711   0.000000
   11       14.998136   0.000000
   12       17.602458   0.000000
   13       19.509053   0.000000
   14       21.062070   0.000000
   15       21.809509   0.000000
   16       23.512676   0.000000
 
 -0.1562500E+00  0.9375000E-01  0.3125000E-01  0.2929688E-02
    1       -5.622449   1.000000
    2        2.640433   1.000000
    3        4.306998   1.000000
    4        5.184907   1.002065
    5        8.228369  -0.000000
    6        8.707045  -0.000000
    7        9.290798  -0.000000
    8       11.149842   0.000000
    9       12.214863   0.000000
   10       13.486544   0.000000
   11       15.128560   0.000000
   12       16.687169   0.000000
   13       18.480087   0.000000
   14       19.983568   0.000000
   15       23.165902   0.000000
   16       23.705843   0.000000
 
 -0.9375000E-01  0.9375000E-01  0.3125000E-01  0.2929688E-02
    1       -5.884689   1.000000
    2        3.703365   1.000000
    3        4.632121   1.000000
    4        5.382479   1.032549
    5        8.262240  -0.000000
    6        8.564615  -0.000000
    7        8.915699  -0.000000
    8       10.532000  -0.000000
    9       12.281967   0.000000
   10       13.246388   0.000000
   11       14.676273   0.000000
   12       16.606697   0.000000
   13       17.501770   0.000000
   14       18.826921   0.000000
   15       22.735046   0.000000
   16       24.830908   0.000000
 
 -0.3125000E-01  0.9375000E-01  0.3125000E-01  0.2929688E-02
    1       -6.050945   1.000000
    2        4.506504   1.000000
    3        5.128318   1.000581
    4        5.464451   1.021487
    5        8.147692  -0.000000
    6        8.454417  -0.000000
    7        8.644734  -0.000000
    8        9.770076  -0.000000
    9       12.644403   0.000000
   10       13.258473   0.000000
   11       14.105189   0.000000
   12       16.622440   0.000000
   13       17.178208   0.000000
   14       17.841756   0.000000
   15       21.857399   0.000000
   16       26.477749   0.000000
 
  0.1562500E+00  0.1562500E+00  0.3125000E-01  0.1464844E-02
    1       -5.850252   1.000000
    2        3.913167   1.000000
    3        4.692544   1.000000
    4        4.731329   1.000000
    5        7.572567  -0.000000
    6        9.383583  -0.000000
    7        9.516057  -0.000000
    8       10.038237  -0.000000
    9       12.061088   0.000000
   10       13.674487   0.000000
   11       14.841507   0.000000
   12       17.201230   0.000000
   13       17.459987   0.000000
   14       18.126348   0.000000
   15       23.129179   0.000000
   16       25.415454   0.000000
 
  0.2187500E+00  0.1562500E+00  0.3125000E-01  0.2929688E-02
    1       -5.651565   1.000000
    2        3.172981   1.000000
    3        4.283696   1.000000
    4        4.604655   1.000000
    5        7.531647  -0.000000
    6        9.468768  -0.000000
    7        9.943422  -0.000000
    8       10.210979  -0.000000
    9       12.373461   0.000000
   10       13.793692   0.000000
   11       15.433369   0.000000
   12       17.186664   0.000000
   13       17.867201   0.000000
   14       19.007902   0.000000
   15       23.949215   0.000000
   16       24.053220   0.000000
 
  0.2812500E+00  0.1562500E+00  0.3125000E-01  0.2929688E-02
    1       -5.359024   1.000000
    2        2.197065   1.000000
    3        3.974881   1.000000
    4        4.401112   1.000000
    5        7.713864  -0.000000
    6        9.396844  -0.000000
    7       10.190729  -0.000000
    8       10.272720  -0.000000
    9       13.183709   0.000000
   10       14.064907   0.000000
   11       15.799118   0.000000
   12       17.343090   0.000000
   13       18.744293   0.000000
   14       20.209252   0.000000
   15       22.406539   0.000000
   16       23.411513   0.000000
 
  0.3437500E+00  0.1562500E+00  0.3125000E-01  0.2929688E-02
    1       -4.981535   1.000000
    2        1.190998   1.000000
    3        3.718893   1.000000
    4        4.182816   1.000000
    5        7.841316  -0.000000
    6        9.421281  -0.000000
    7       10.274261  -0.000000
    8       10.395433  -0.000000
    9       13.999049   0.000000
   10       14.827820   0.000000
   11       15.615820   0.000000
   12       18.228748   0.000000
   13       19.377644   0.000000
   14       20.912531   0.000000
   15       21.482307   0.000000
   16       22.738191   0.000000
 
  0.4062500E+00  0.1562500E+00  0.3125000E-01  0.2929688E-02
    1       -4.538760   1.000000
    2        0.245755   1.000000
    3        3.487184   1.000000
    4        4.031122   1.000000
    5        7.844386  -0.000000
    6        9.357809  -0.000000
    7       10.256230  -0.000000
    8       10.906916  -0.000000
    9       14.798212   0.000000
   10       15.339317   0.000000
   11       15.944188   0.000000
   12       18.315847   0.000000
   13       19.134277   0.000000
   14       20.693679   0.000000
   15       22.206135   0.000000
   16       23.318433   0.000000
 
  0.4687500E+00  0.1562500E+00  0.3125000E-01  0.2929688E-02
    1       -4.079650   1.000000
    2       -0.559004   1.000000
    3        3.279044   1.000000
    4        3.976001   1.000000
    5        7.823624  -0.000000
    6        9.247444  -0.000000
    7       10.104709  -0.000000
    8       11.812343   0.000000
    9       14.899750   0.000000
   10       15.901948   0.000000
   11       17.085391   0.000000
   12       17.145440   0.000000
   13       18.300448   0.000000
   14       21.366489   0.000000
   15       22.738256   0.000000
   16       23.701473   0.000000
 
 -0.4687500E+00  0.1562500E+00  0.3125000E-01  0.2929688E-02
    1       -3.736145   1.000000
    2       -1.076971   1.000000
    3        3.112364   1.000000
    4        4.013333   1.000000
    5        7.844620  -0.000000
    6        9.166970  -0.000000
    7        9.963137  -0.000000
    8       12.866095   0.000000
    9       14.549215   0.000000
   10       15.696754   0.000000
   11       17.013063   0.000000
   12       17.379788   0.000000
   13       18.456416   0.000000
   14       20.587799   0.000000
   15       23.921567   0.000000
   16       25.130813   0.000000
 
 -0.4062500E+00  0.1562500E+00  0.3125000E-01  0.2929688E-02
    1       -3.739233   1.000000
    2       -1.071425   1.000000
    3        3.005115   1.000000
    4        4.130912   1.000000
    5        7.926467  -0.000000
    6        9.138938  -0.000000
    7        9.870965  -0.000000
    8       13.725308   0.000000
    9       14.010434   0.000000
   10       14.792556   0.000000
   11       16.510486   0.000000
   12       18.538268   0.000000
   13       19.256656   0.000000
   14       19.748296   0.000000
   15       23.426368   0.000000
   16       25.337639   0.000000
 
 -0.3437500E+00  0.1562500E+00  0.3125000E-01  0.2929688E-02
    1       -4.085804   1.000000
    2       -0.546307   1.000000
    3        2.971004   1.000000
    4        4.315708   1.000000
    5        8.065500  -0.000000
    6        9.159325  -0.000000
    7        9.835007  -0.000000
    8       12.826172   0.000000
    9       13.805081   0.000000
   10       14.833825   0.000000
   11       16.783954   0.000000
   12       18.041983   0.000000
   13       19.830458   0.000000
   14       20.640347   0.000000
   15       22.050435   0.000000
   16       23.784781   0.000000
 
 -0.2812500E+00  0.1562500E+00  0.3125000E-01  0.2929688E-02
    1       -4.544931   1.000000
    2        0.258642   1.000000
    3        3.022764   1.000000
    4        4.551966   1.000000
    5        8.246834  -0.000000
    6        9.184420  -0.000000
    7        9.832032  -0.000000
    8       11.928994   0.000000
    9       12.928268   0.000000
   10       15.330520   0.000000
   11       16.820193   0.000000
   12       17.636731   0.000000
   13       19.773098   0.000000
   14       21.253077   0.000000
   15       21.752233   0.000000
   16       22.973889   0.000000
 
 -0.2187500E+00  0.1562500E+00  0.3125000E-01  0.2929688E-02
    1       -4.986745   1.000000
    2        1.188960   1.000000
    3        3.179821   1.000000
    4        4.816711   1.000000
    5        8.447958  -0.000000
    6        9.100375  -0.000000
    7        9.789124  -0.000000
    8       11.275161   0.000000
    9       12.278533   0.000000
   10       15.551094   0.000000
   11       15.771042   0.000000
   12       17.731979   0.000000
   13       19.419218   0.000000
   14       20.699842   0.000000
   15       21.913319   0.000000
   16       23.643677   0.000000
 
 -0.1562500E+00  0.1562500E+00  0.3125000E-01  0.2929688E-02
    1       -5.363050   1.000000
    2        2.128040   1.000000
    3        3.491789   1.000000
    4        5.071866   1.000137
    5        8.625871  -0.000000
    6        8.821294  -0.000000
    7        9.554491  -0.000000
    8       11.001552  -0.000000
    9       12.019533   0.000000
   10       14.490273   0.000000
   11       15.814292   0.000000
   12       17.018574   0.000000
   13       18.677403   0.000000
   14       21.090831   0.000000
   15       21.560978   0.000000
   16       24.136271   0.000000
 
 -0.9375000E-01  0.1562500E+00  0.3125000E-01  0.2929688E-02
    1       -5.654397   1.000000
    2        2.898334   1.000000
    3        4.068781   1.000000
    4        5.254252   1.007514
    5        8.453264  -0.000000
    6        8.670325  -0.000000
    7        9.214241  -0.000000
    8       10.961656  -0.000000
    9       12.085958   0.000000
   10       13.596587   0.000000
   11       15.288320   0.000000
   12       16.741074   0.000000
   13       17.990982   0.000000
   14       19.946099   0.000000
   15       23.146319   0.000000
   16       23.661528   0.000000
 
 -0.3125000E-01  0.1562500E+00  0.3125000E-01  0.2929688E-02
    1       -5.851930   1.000000
    2        3.424129   1.000000
    3        4.841419   1.000000
    4        5.291680   1.013235
    5        8.142805  -0.000000
    6        8.539081  -0.000000
    7        9.026918  -0.000000
    8       10.721374  -0.000000
    9       12.356249   0.000000
   10       13.124623   0.000000
   11       14.702999   0.000000
   12       16.355804   0.000000
   13       18.032562   0.000000
   14       18.889757   0.000000
   15       22.845932   0.000000
   16       24.850512   0.000000
 
  0.2187500E+00  0.2187500E+00  0.3125000E-01  0.1464844E-02
    1       -5.484993   1.000000
    2        2.877060   1.000000
    3        4.141269   1.000000
    4        4.142939   1.000000
    5        7.124923  -0.000000
    6        9.446164  -0.000000
    7       10.457290  -0.000000
    8       10.497458  -0.000000
    9       12.672639   0.000000
   10       14.101945   0.000000
   11       15.972396   0.000000
   12       17.818045   0.000000
   13       18.059366   0.000000
   14       18.848745   0.000000
   15       23.770596   0.000000
   16       23.873276   0.000000
 
  0.2812500E+00  0.2187500E+00  0.3125000E-01  0.2929688E-02
    1       -5.223278   1.000000
    2        2.195844   1.000000
    3        3.749044   1.000000
    4        3.992261   1.000000
    5        7.108414  -0.000000
    6        9.112636  -0.000000
    7       10.688740  -0.000000
    8       10.972881  -0.000000
    9       13.430854   0.000000
   10       14.393192   0.000000
   11       16.550698   0.000000
   12       17.899656   0.000000
   13       18.554965   0.000000
   14       19.752928   0.000000
   15       22.418644   0.000000
   16       23.171719   0.000000
 
  0.3437500E+00  0.2187500E+00  0.3125000E-01  0.2929688E-02
    1       -4.873228   1.000000
    2        1.355712   1.000000
    3        3.383104   1.000000
    4        3.800582   1.000000
    5        7.313701  -0.000000
    6        9.084692  -0.000000
    7       10.609892  -0.000000
    8       11.208437   0.000000
    9       14.344412   0.000000
   10       15.048199   0.000000
   11       16.631425   0.000000
   12       18.325756   0.000000
   13       19.152067   0.000000
   14       20.618810   0.000000
   15       21.309812   0.000000
   16       22.500870   0.000000
 
  0.4062500E+00  0.2187500E+00  0.3125000E-01  0.2929688E-02
    1       -4.449298   1.000000
    2        0.489110   1.000000
    3        3.022524   1.000000
    4        3.670327   1.000000
    5        7.444255  -0.000000
    6        9.530058  -0.000000
    7       10.435837  -0.000000
    8       11.193172   0.000000
    9       15.224395   0.000000
   10       16.113840   0.000000
   11       16.320062   0.000000
   12       18.326158   0.000000
   13       19.171237   0.000000
   14       20.485715   0.000000
   15       21.700112   0.000000
   16       23.289414   0.000000
 
  0.4687500E+00  0.2187500E+00  0.3125000E-01  0.2929688E-02
    1       -3.986192   1.000000
    2       -0.309133   1.000000
    3        2.696029   1.000000
    4        3.632238   1.000000
    5        7.485987  -0.000000
    6       10.234054  -0.000000
    7       10.384916  -0.000000
    8       11.052363  -0.000000
    9       15.731174   0.000000
   10       16.226314   0.000000
   11       17.212165   0.000000
   12       17.369107   0.000000
   13       18.480438   0.000000
   14       21.448644   0.000000
   15       22.928999   0.000000
   16       23.855050   0.000000
 
 -0.4687500E+00  0.2187500E+00  0.3125000E-01  0.2929688E-02
    1       -3.579419   1.000000
    2       -0.912143   1.000000
    3        2.432320   1.000000
    4        3.682972   1.000000
    5        7.547569  -0.000000