       N       E                     dE             d eps       ncg     rms          ort
DAV:   1    -0.462502800531E+00   -0.46250E+00   -0.47763E+03  6528   0.539E+02
DAV:   2    -0.109461847292E+02   -0.10484E+02   -0.10299E+02  6528   0.384E+01
DAV:   3    -0.110179004188E+02   -0.71716E-01   -0.71714E-01  6528   0.401E+00
DAV:   4    -0.110180803046E+02   -0.17989E-03   -0.17989E-03  6528   0.219E-01
DAV:   5    -0.110180803181E+02   -0.13563E-07   -0.13415E-07  6528   0.155E-03
SDA:   6    -0.107976989092E+02    0.22038E+00   -0.13415E-07  6528   0.932E-01 0.000E+00
CGA:   7    -0.108405485560E+02   -0.42850E-01   -0.42809E-01  6528   0.117E-01 0.159E-03
CGA:   8    -0.108487891163E+02   -0.82406E-02   -0.82409E-02  6528   0.200E-02-0.129E-04
CGA:   9    -0.108498117469E+02   -0.10226E-02   -0.10231E-02  6528   0.925E-04-0.176E-05
CGA:  10    -0.108498547923E+02   -0.43045E-04   -0.43055E-04  6528   0.518E-05-0.409E-07
CGA:  11    -0.108498577557E+02   -0.29634E-05   -0.30297E-05  6528   0.594E-06-0.206E-06
CGA:  12    -0.108498580603E+02   -0.30459E-06   -0.29786E-06  6528   0.614E-07 0.236E-07
CGA:  13    -0.108498580772E+02   -0.16935E-07   -0.78920E-07  6528   0.103E-06-0.686E-07
CGA:  14    -0.108498581223E+02   -0.45087E-07   -0.44632E-07  6528   0.570E-08 0.461E-08
CGA:  15    -0.108498581232E+02   -0.82991E-09   -0.12807E-08  6528   0.238E-08 0.372E-08
   1 F= -.10849858E+02 E0= -.10849994E+02  d E =0.407193E-03
