 vasp.5.4.4.18Apr17-6-g9f103f2a35 (build Jul 29 2018 09:17:02) complex          
  
 executed on             LinuxIFC date 2018.08.05  18:49:43
 running on   16 total cores
 distrk:  each k-point on   16 cores,    1 groups
 distr:  one band on NCORES_PER_BAND=   1 cores,   16 groups


--------------------------------------------------------------------------------------------------------


 INCAR:
 POTCAR:    PAW_PBE Si 05Jan2001                  

 ----------------------------------------------------------------------------- 
|                                                                             |
|           W    W    AA    RRRRR   N    N  II  N    N   GGGG   !!!           |
|           W    W   A  A   R    R  NN   N  II  NN   N  G    G  !!!           |
|           W    W  A    A  R    R  N N  N  II  N N  N  G       !!!           |
|           W WW W  AAAAAA  RRRRR   N  N N  II  N  N N  G  GGG   !            |
|           WW  WW  A    A  R   R   N   NN  II  N   NN  G    G                |
|           W    W  A    A  R    R  N    N  II  N    N   GGGG   !!!           |
|                                                                             |
|      For optimal performance we recommend to set                            |
|        NCORE= 4 - approx SQRT( number of cores)                             |
|      NCORE specifies how many cores store one orbital (NPAR=cpu/NCORE).     |
|      This setting can  greatly improve the performance of VASP for DFT.     |
|      The default,   NCORE=1            might be grossly inefficient         |
|      on modern multi-core architectures or massively parallel machines.     |
|      Do your own testing !!!!                                               |
|      Unfortunately you need to use the default for GW and RPA calculations. |
|      (for HF NCORE is supported but not extensively tested yet)             |
|                                                                             |
 ----------------------------------------------------------------------------- 

 POTCAR:    PAW_PBE Si 05Jan2001                  
   VRHFIN =Si: s2p2                                                             
   LEXCH  = PE                                                                  
   EATOM  =   103.0669 eV,    7.5752 Ry                                         
                                                                                
   TITEL  = PAW_PBE Si 05Jan2001                                                
   LULTRA =        F    use ultrasoft PP ?                                      
   IUNSCR =        1    unscreen: 0-lin 1-nonlin 2-no                           
   RPACOR =    1.500    partial core radius                                     
   POMASS =   28.085; ZVAL   =    4.000    mass and valenz                      
   RCORE  =    1.900    outmost cutoff radius                                   
   RWIGS  =    2.480; RWIGS  =    1.312    wigner-seitz radius (au A)           
   ENMAX  =  245.345; ENMIN  =  184.009 eV                                      
   ICORE  =        2    local potential                                         
   LCOR   =        T    correct aug charges                                     
   LPAW   =        T    paw PP                                                  
   EAUG   =  322.069                                                            
   DEXC   =    0.000                                                            
   RMAX   =    1.950    core radius for proj-oper                               
   RAUG   =    1.300    factor for augmentation sphere                          
   RDEP   =    1.993    radius for radial grids                                 
   RDEPT  =    1.837    core radius for aug-charge                              
                                                                                
   Atomic configuration                                                         
    6 entries                                                                   
     n  l   j            E        occ.                                          
     1  0  0.50     -1785.8828   2.0000                                         
     2  0  0.50      -139.4969   2.0000                                         
     2  1  1.50       -95.5546   6.0000                                         
     3  0  0.50       -10.8127   2.0000                                         
     3  1  0.50        -4.0811   2.0000                                         
     3  2  1.50        -4.0817   0.0000                                         
   Description                                                                  
     l       E           TYP  RCUT    TYP  RCUT                                 
     0    -10.8127223     23  1.900                                             
     0     -7.6451159     23  1.900                                             
     1     -4.0811372     23  1.900                                             
     1      2.4879257     23  1.900                                             
     2     -4.0817478      7  1.900                                             
  local pseudopotential read in
  partial core-charges read in
  partial kinetic energy density read in
  atomic valenz-charges read in
  non local Contribution for L=           0  read in
    real space projection operators read in
  non local Contribution for L=           0  read in
    real space projection operators read in
  non local Contribution for L=           1  read in
    real space projection operators read in
  non local Contribution for L=           1  read in
    real space projection operators read in
    PAW grid and wavefunctions read in
 
   number of l-projection  operators is LMAX  =           4
   number of lm-projection operators is LMMAX =           8
 
  PAW_PBE Si 05Jan2001                  :
 energy of atom  1       EATOM= -103.0669
 kinetic energy error for atom=    0.0003 (will be added to EATOM!!)
 
 
 POSCAR: Si                                      
  positions in direct lattice
  No initial velocities read in
 exchange correlation table for  LEXCH =        8
   RHO(1)=    0.500       N(1)  =     2000
   RHO(2)=  100.500       N(2)  =     4000
 


--------------------------------------------------------------------------------------------------------


 ion  position               nearest neighbor table
   1  0.875  0.875  0.875-   2 2.37   2 2.37   2 2.37   2 2.37
   2  0.125  0.125  0.125-   1 2.37   1 2.37   1 2.37   1 2.37
 
  LATTYP: Found a face centered cubic cell.
 ALAT       =     5.4680000000
  
  Lattice vectors:
  
 A1 = (   0.0000000000,   2.7340000000,   2.7340000000)
 A2 = (   2.7340000000,   0.0000000000,   2.7340000000)
 A3 = (   2.7340000000,   2.7340000000,   0.0000000000)


Analysis of symmetry for initial positions (statically):
=====================================================================
 Subroutine PRICEL returns:
 Original cell was already a primitive cell.
 

 Routine SETGRP: Setting up the symmetry group for a 
 face centered cubic supercell.


 Subroutine GETGRP returns: Found 48 space group operations
 (whereof 12 operations were pure point group operations)
 out of a pool of 48 trial point group operations.


The static configuration has the point symmetry D_3d.
 The point group associated with its full space group is O_h .


Analysis of symmetry for dynamics (positions and initial velocities):
=====================================================================
 Subroutine PRICEL returns:
 Original cell was already a primitive cell.
 

 Routine SETGRP: Setting up the symmetry group for a 
 face centered cubic supercell.


 Subroutine GETGRP returns: Found 48 space group operations
 (whereof 12 operations were pure point group operations)
 out of a pool of 48 trial point group operations.


The dynamic configuration has the point symmetry D_3d.
 The point group associated with its full space group is O_h .


 Subroutine INISYM returns: Found 48 space group operations
 (whereof 12 operations are pure point group operations),
 and found     1 'primitive' translations

 
 
 KPOINTS: K-Points                                

Automatic generation of k-mesh.
Space group operators:
 irot       det(A)        alpha          n_x          n_y          n_z        tau_x        tau_y        tau_z
    1     1.000000     0.000001     1.000000     0.000000     0.000000     0.000000     0.000000     0.000000
    2    -1.000000     0.000001     1.000000     0.000000     0.000000     0.000000     0.000000     0.000000
    3     1.000000   120.000000    -0.577350    -0.577350    -0.577350     0.000000     0.000000     0.000000
    4    -1.000000   120.000000    -0.577350    -0.577350    -0.577350     0.000000     0.000000     0.000000
    5     1.000000   120.000000     0.577350     0.577350     0.577350     0.000000     0.000000     0.000000
    6    -1.000000   120.000000     0.577350     0.577350     0.577350     0.000000     0.000000     0.000000
    7     1.000000   180.000000     0.000000    -0.707107     0.707107     0.000000     0.000000     0.000000
    8    -1.000000   180.000000     0.000000    -0.707107     0.707107     0.000000     0.000000     0.000000
    9     1.000000   180.000000     0.707107    -0.707107     0.000000     0.000000     0.000000     0.000000
   10    -1.000000   180.000000     0.707107    -0.707107     0.000000     0.000000     0.000000     0.000000
   11     1.000000   180.000000     0.707107     0.000000    -0.707107     0.000000     0.000000     0.000000
   12    -1.000000   180.000000     0.707107     0.000000    -0.707107     0.000000     0.000000     0.000000
   13     1.000000    90.000000     0.000000     0.000000    -1.000000     0.500000     0.000000     0.000000
   14    -1.000000    90.000000     0.000000     0.000000    -1.000000     0.500000     0.000000     0.000000
   15     1.000000   180.000000     0.000000     0.707107     0.707107     0.500000     0.000000     0.000000
   16    -1.000000   180.000000     0.000000     0.707107     0.707107     0.500000     0.000000     0.000000
   17     1.000000    90.000000     0.000000     1.000000     0.000000     0.500000     0.000000     0.000000
   18    -1.000000    90.000000     0.000000     1.000000     0.000000     0.500000     0.000000     0.000000
   19     1.000000   180.000000     0.000000     0.000000     1.000000     0.000000     0.000000     0.500000
   20    -1.000000   180.000000     0.000000     0.000000     1.000000     0.000000     0.000000     0.500000
   21     1.000000   120.000000    -0.577350     0.577350     0.577350     0.000000     0.000000     0.500000
   22    -1.000000   120.000000    -0.577350     0.577350     0.577350     0.000000     0.000000     0.500000
   23     1.000000   120.000000    -0.577350     0.577350    -0.577350     0.000000     0.000000     0.500000
   24    -1.000000   120.000000    -0.577350     0.577350    -0.577350     0.000000     0.000000     0.500000
   25     1.000000    90.000000     0.000000     0.000000     1.000000     0.000000     0.500000     0.000000
   26    -1.000000    90.000000     0.000000     0.000000     1.000000     0.000000     0.500000     0.000000
   27     1.000000    90.000000    -1.000000     0.000000     0.000000     0.000000     0.500000     0.000000
   28    -1.000000    90.000000    -1.000000     0.000000     0.000000     0.000000     0.500000     0.000000
   29     1.000000   180.000000     0.707107     0.000000     0.707107     0.000000     0.500000     0.000000
   30    -1.000000   180.000000     0.707107     0.000000     0.707107     0.000000     0.500000     0.000000
   31     1.000000   120.000000     0.577350    -0.577350     0.577350     0.500000     0.000000     0.000000
   32    -1.000000   120.000000     0.577350    -0.577350     0.577350     0.500000     0.000000     0.000000
   33     1.000000   120.000000    -0.577350    -0.577350     0.577350     0.500000     0.000000     0.000000
   34    -1.000000   120.000000    -0.577350    -0.577350     0.577350     0.500000     0.000000     0.000000
   35     1.000000   180.000000     1.000000     0.000000     0.000000     0.500000     0.000000     0.000000
   36    -1.000000   180.000000     1.000000     0.000000     0.000000     0.500000     0.000000     0.000000
   37     1.000000    90.000000     0.000000    -1.000000     0.000000     0.000000     0.000000     0.500000
   38    -1.000000    90.000000     0.000000    -1.000000     0.000000     0.000000     0.000000     0.500000
   39     1.000000   180.000000     0.707107     0.707107     0.000000     0.000000     0.000000     0.500000
   40    -1.000000   180.000000     0.707107     0.707107     0.000000     0.000000     0.000000     0.500000
   41     1.000000    90.000000     1.000000     0.000000     0.000000     0.000000     0.000000     0.500000
   42    -1.000000    90.000000     1.000000     0.000000     0.000000     0.000000     0.000000     0.500000
   43     1.000000   120.000000     0.577350    -0.577350    -0.577350     0.000000     0.500000     0.000000
   44    -1.000000   120.000000     0.577350    -0.577350    -0.577350     0.000000     0.500000     0.000000
   45     1.000000   180.000000     0.000000     1.000000     0.000000     0.000000     0.500000     0.000000
   46    -1.000000   180.000000     0.000000     1.000000     0.000000     0.000000     0.500000     0.000000
   47     1.000000   120.000000     0.577350     0.577350    -0.577350     0.000000     0.500000     0.000000
   48    -1.000000   120.000000     0.577350     0.577350    -0.577350     0.000000     0.500000     0.000000
 
 Subroutine IBZKPT returns following result:
 ===========================================
 
 Found    408 irreducible k-points:
 
 Following reciprocal coordinates:
            Coordinates               Weight
  0.031250  0.031250  0.031250     96.000000
  0.093750  0.031250  0.031250    288.000000
  0.156250  0.031250  0.031250    288.000000
  0.218750  0.031250  0.031250    288.000000
  0.281250  0.031250  0.031250    288.000000
  0.343750  0.031250  0.031250    288.000000
  0.406250  0.031250  0.031250    288.000000
  0.468750  0.031250  0.031250    288.000000
 -0.468750  0.031250  0.031250    288.000000
 -0.406250  0.031250  0.031250    288.000000
 -0.343750  0.031250  0.031250    288.000000
 -0.281250  0.031250  0.031250    288.000000
 -0.218750  0.031250  0.031250    288.000000
 -0.156250  0.031250  0.031250    288.000000
 -0.093750  0.031250  0.031250    288.000000
 -0.031250  0.031250  0.031250    288.000000
  0.093750  0.093750  0.031250    288.000000
  0.156250  0.093750  0.031250    576.000000
  0.218750  0.093750  0.031250    576.000000
  0.281250  0.093750  0.031250    576.000000
  0.343750  0.093750  0.031250    576.000000
  0.406250  0.093750  0.031250    576.000000
  0.468750  0.093750  0.031250    576.000000
 -0.468750  0.093750  0.031250    576.000000
 -0.406250  0.093750  0.031250    576.000000
 -0.343750  0.093750  0.031250    576.000000
 -0.281250  0.093750  0.031250    576.000000
 -0.218750  0.093750  0.031250    576.000000
 -0.156250  0.093750  0.031250    576.000000
 -0.093750  0.093750  0.031250    576.000000
 -0.031250  0.093750  0.031250    576.000000
  0.156250  0.156250  0.031250    288.000000
  0.218750  0.156250  0.031250    576.000000
  0.281250  0.156250  0.031250    576.000000
  0.343750  0.156250  0.031250    576.000000
  0.406250  0.156250  0.031250    576.000000
  0.468750  0.156250  0.031250    576.000000
 -0.468750  0.156250  0.031250    576.000000
 -0.406250  0.156250  0.031250    576.000000
 -0.343750  0.156250  0.031250    576.000000
 -0.281250  0.156250  0.031250    576.000000
 -0.218750  0.156250  0.031250    576.000000
 -0.156250  0.156250  0.031250    576.000000
 -0.093750  0.156250  0.031250    576.000000
 -0.031250  0.156250  0.031250    576.000000
  0.218750  0.218750  0.031250    288.000000
  0.281250  0.218750  0.031250    576.000000
  0.343750  0.218750  0.031250    576.000000
  0.406250  0.218750  0.031250    576.000000
  0.468750  0.218750  0.031250    576.000000
 -0.468750  0.218750  0.031250    576.000000
 -0.406250  0.218750  0.031250    576.000000
 -0.343750  0.218750  0.031250    576.000000
 -0.281250  0.218750  0.031250    576.000000
 -0.218750  0.218750  0.031250    576.000000
 -0.156250  0.218750  0.031250    576.000000
 -0.093750  0.218750  0.031250    576.000000
 -0.031250  0.218750  0.031250    576.000000
  0.281250  0.281250  0.031250    288.000000
  0.343750  0.281250  0.031250    576.000000
  0.406250  0.281250  0.031250    576.000000
  0.468750  0.281250  0.031250    576.000000
 -0.468750  0.281250  0.031250    576.000000
 -0.406250  0.281250  0.031250    576.000000
 -0.343750  0.281250  0.031250    576.000000
 -0.281250  0.281250  0.031250    576.000000
 -0.218750  0.281250  0.031250    576.000000
 -0.156250  0.281250  0.031250    576.000000
 -0.093750  0.281250  0.031250    576.000000
 -0.031250  0.281250  0.031250    576.000000
  0.343750  0.343750  0.031250    288.000000
  0.406250  0.343750  0.031250    576.000000
  0.468750  0.343750  0.031250    576.000000
 -0.468750  0.343750  0.031250    576.000000
 -0.406250  0.343750  0.031250    576.000000
 -0.343750  0.343750  0.031250    576.000000
 -0.281250  0.343750  0.031250    576.000000
 -0.218750  0.343750  0.031250    576.000000
 -0.156250  0.343750  0.031250    576.000000
 -0.093750  0.343750  0.031250    576.000000
 -0.031250  0.343750  0.031250    576.000000
  0.406250  0.406250  0.031250    288.000000
  0.468750  0.406250  0.031250    576.000000
 -0.468750  0.406250  0.031250    576.000000
 -0.406250  0.406250  0.031250    576.000000
 -0.343750  0.406250  0.031250    576.000000
 -0.281250  0.406250  0.031250    576.000000
 -0.218750  0.406250  0.031250    576.000000
 -0.156250  0.406250  0.031250    576.000000
 -0.093750  0.406250  0.031250    576.000000
 -0.031250  0.406250  0.031250    576.000000
  0.468750  0.468750  0.031250    288.000000
 -0.468750  0.468750  0.031250    576.000000
 -0.406250  0.468750  0.031250    576.000000
 -0.343750  0.468750  0.031250    576.000000
 -0.281250  0.468750  0.031250    576.000000
 -0.218750  0.468750  0.031250    576.000000
 -0.156250  0.468750  0.031250    576.000000
 -0.093750  0.468750  0.031250    576.000000
 -0.031250  0.468750  0.031250    576.000000
 -0.468750 -0.468750  0.031250    288.000000
 -0.406250 -0.468750  0.031250    576.000000
 -0.343750 -0.468750  0.031250    576.000000
 -0.281250 -0.468750  0.031250    576.000000
 -0.218750 -0.468750  0.031250    576.000000
 -0.156250 -0.468750  0.031250    576.000000
 -0.093750 -0.468750  0.031250    576.000000
 -0.406250 -0.406250  0.031250    288.000000
 -0.343750 -0.406250  0.031250    576.000000
 -0.281250 -0.406250  0.031250    576.000000
 -0.218750 -0.406250  0.031250    576.000000
 -0.156250 -0.406250  0.031250    576.000000
 -0.093750 -0.406250  0.031250    576.000000
 -0.343750 -0.343750  0.031250    288.000000
 -0.281250 -0.343750  0.031250    576.000000
 -0.218750 -0.343750  0.031250    576.000000
 -0.156250 -0.343750  0.031250    576.000000
 -0.093750 -0.343750  0.031250    576.000000
 -0.281250 -0.281250  0.031250    288.000000
 -0.218750 -0.281250  0.031250    576.000000
 -0.156250 -0.281250  0.031250    576.000000
 -0.093750 -0.281250  0.031250    576.000000
 -0.218750 -0.218750  0.031250    288.000000
 -0.156250 -0.218750  0.031250    576.000000
 -0.093750 -0.218750  0.031250    576.000000
 -0.156250 -0.156250  0.031250    288.000000
 -0.093750 -0.156250  0.031250    576.000000
 -0.093750 -0.093750  0.031250    288.000000
  0.093750  0.093750  0.093750     96.000000
  0.156250  0.093750  0.093750    288.000000
  0.218750  0.093750  0.093750    288.000000
  0.281250  0.093750  0.093750    288.000000
  0.343750  0.093750  0.093750    288.000000
  0.406250  0.093750  0.093750    288.000000
  0.468750  0.093750  0.093750    288.000000
 -0.468750  0.093750  0.093750    288.000000
 -0.406250  0.093750  0.093750    288.000000
 -0.343750  0.093750  0.093750    288.000000
 -0.281250  0.093750  0.093750    288.000000
 -0.218750  0.093750  0.093750    288.000000
 -0.156250  0.093750  0.093750    288.000000
 -0.093750  0.093750  0.093750    288.000000
  0.156250  0.156250  0.093750    288.000000
  0.218750  0.156250  0.093750    576.000000
  0.281250  0.156250  0.093750    576.000000
  0.343750  0.156250  0.093750    576.000000
  0.406250  0.156250  0.093750    576.000000
  0.468750  0.156250  0.093750    576.000000
 -0.468750  0.156250  0.093750    576.000000
 -0.406250  0.156250  0.093750    576.000000
 -0.343750  0.156250  0.093750    576.000000
 -0.281250  0.156250  0.093750    576.000000
 -0.218750  0.156250  0.093750    576.000000
 -0.156250  0.156250  0.093750    576.000000
 -0.093750  0.156250  0.093750    576.000000
  0.218750  0.218750  0.093750    288.000000
  0.281250  0.218750  0.093750    576.000000
  0.343750  0.218750  0.093750    576.000000
  0.406250  0.218750  0.093750    576.000000
  0.468750  0.218750  0.093750    576.000000
 -0.468750  0.218750  0.093750    576.000000
 -0.406250  0.218750  0.093750    576.000000
 -0.343750  0.218750  0.093750    576.000000
 -0.281250  0.218750  0.093750    576.000000
 -0.218750  0.218750  0.093750    576.000000
 -0.156250  0.218750  0.093750    576.000000
 -0.093750  0.218750  0.093750    576.000000
  0.281250  0.281250  0.093750    288.000000
  0.343750  0.281250  0.093750    576.000000
  0.406250  0.281250  0.093750    576.000000
  0.468750  0.281250  0.093750    576.000000
 -0.468750  0.281250  0.093750    576.000000
 -0.406250  0.281250  0.093750    576.000000
 -0.343750  0.281250  0.093750    576.000000
 -0.281250  0.281250  0.093750    576.000000
 -0.218750  0.281250  0.093750    576.000000
 -0.156250  0.281250  0.093750    576.000000
 -0.093750  0.281250  0.093750    576.000000
  0.343750  0.343750  0.093750    288.000000
  0.406250  0.343750  0.093750    576.000000
  0.468750  0.343750  0.093750    576.000000
 -0.468750  0.343750  0.093750    576.000000
 -0.406250  0.343750  0.093750    576.000000
 -0.343750  0.343750  0.093750    576.000000
 -0.281250  0.343750  0.093750    576.000000
 -0.218750  0.343750  0.093750    576.000000
 -0.156250  0.343750  0.093750    576.000000
 -0.093750  0.343750  0.093750    576.000000
  0.406250  0.406250  0.093750    288.000000
  0.468750  0.406250  0.093750    576.000000
 -0.468750  0.406250  0.093750    576.000000
 -0.406250  0.406250  0.093750    576.000000
 -0.343750  0.406250  0.093750    576.000000
 -0.281250  0.406250  0.093750    576.000000
 -0.218750  0.406250  0.093750    576.000000
 -0.156250  0.406250  0.093750    576.000000
 -0.093750  0.406250  0.093750    576.000000
  0.468750  0.468750  0.093750    288.000000
 -0.468750  0.468750  0.093750    576.000000
 -0.406250  0.468750  0.093750    576.000000
 -0.343750  0.468750  0.093750    576.000000
 -0.281250  0.468750  0.093750    576.000000
 -0.218750  0.468750  0.093750    576.000000
 -0.156250  0.468750  0.093750    576.000000
 -0.093750  0.468750  0.093750    576.000000
 -0.468750 -0.468750  0.093750    288.000000
 -0.406250 -0.468750  0.093750    576.000000
 -0.343750 -0.468750  0.093750    576.000000
 -0.281250 -0.468750  0.093750    576.000000
 -0.218750 -0.468750  0.093750    576.000000
 -0.156250 -0.468750  0.093750    576.000000
 -0.406250 -0.406250  0.093750    288.000000
 -0.343750 -0.406250  0.093750    576.000000
 -0.281250 -0.406250  0.093750    576.000000
 -0.218750 -0.406250  0.093750    576.000000
 -0.156250 -0.406250  0.093750    576.000000
 -0.343750 -0.343750  0.093750    288.000000
 -0.281250 -0.343750  0.093750    576.000000
 -0.218750 -0.343750  0.093750    576.000000
 -0.156250 -0.343750  0.093750    576.000000
 -0.281250 -0.281250  0.093750    288.000000
 -0.218750 -0.281250  0.093750    576.000000
 -0.156250 -0.281250  0.093750    576.000000
 -0.218750 -0.218750  0.093750    288.000000
 -0.156250 -0.218750  0.093750    576.000000
 -0.156250 -0.156250  0.093750    288.000000
  0.156250  0.156250  0.156250     96.000000
  0.218750  0.156250  0.156250    288.000000
  0.281250  0.156250  0.156250    288.000000
  0.343750  0.156250  0.156250    288.000000
  0.406250  0.156250  0.156250    288.000000
  0.468750  0.156250  0.156250    288.000000
 -0.468750  0.156250  0.156250    288.000000
 -0.406250  0.156250  0.156250    288.000000
 -0.343750  0.156250  0.156250    288.000000
 -0.281250  0.156250  0.156250    288.000000
 -0.218750  0.156250  0.156250    288.000000
 -0.156250  0.156250  0.156250    288.000000
  0.218750  0.218750  0.156250    288.000000
  0.281250  0.218750  0.156250    576.000000
  0.343750  0.218750  0.156250    576.000000
  0.406250  0.218750  0.156250    576.000000
  0.468750  0.218750  0.156250    576.000000
 -0.468750  0.218750  0.156250    576.000000
 -0.406250  0.218750  0.156250    576.000000
 -0.343750  0.218750  0.156250    576.000000
 -0.281250  0.218750  0.156250    576.000000
 -0.218750  0.218750  0.156250    576.000000
 -0.156250  0.218750  0.156250    576.000000
  0.281250  0.281250  0.156250    288.000000
  0.343750  0.281250  0.156250    576.000000
  0.406250  0.281250  0.156250    576.000000
  0.468750  0.281250  0.156250    576.000000
 -0.468750  0.281250  0.156250    576.000000
 -0.406250  0.281250  0.156250    576.000000
 -0.343750  0.281250  0.156250    576.000000
 -0.281250  0.281250  0.156250    576.000000
 -0.218750  0.281250  0.156250    576.000000
 -0.156250  0.281250  0.156250    576.000000
  0.343750  0.343750  0.156250    288.000000
  0.406250  0.343750  0.156250    576.000000
  0.468750  0.343750  0.156250    576.000000
 -0.468750  0.343750  0.156250    576.000000
 -0.406250  0.343750  0.156250    576.000000
 -0.343750  0.343750  0.156250    576.000000
 -0.281250  0.343750  0.156250    576.000000
 -0.218750  0.343750  0.156250    576.000000
 -0.156250  0.343750  0.156250    576.000000
  0.406250  0.406250  0.156250    288.000000
  0.468750  0.406250  0.156250    576.000000
 -0.468750  0.406250  0.156250    576.000000
 -0.406250  0.406250  0.156250    576.000000
 -0.343750  0.406250  0.156250    576.000000
 -0.281250  0.406250  0.156250    576.000000
 -0.218750  0.406250  0.156250    576.000000
 -0.156250  0.406250  0.156250    576.000000
  0.468750  0.468750  0.156250    288.000000
 -0.468750  0.468750  0.156250    576.000000
 -0.406250  0.468750  0.156250    576.000000
 -0.343750  0.468750  0.156250    576.000000
 -0.281250  0.468750  0.156250    576.000000
 -0.218750  0.468750  0.156250    576.000000
 -0.156250  0.468750  0.156250    576.000000
 -0.468750 -0.468750  0.156250    288.000000
 -0.406250 -0.468750  0.156250    576.000000
 -0.343750 -0.468750  0.156250    576.000000
 -0.281250 -0.468750  0.156250    576.000000
 -0.218750 -0.468750  0.156250    576.000000
 -0.406250 -0.406250  0.156250    288.000000
 -0.343750 -0.406250  0.156250    576.000000
 -0.281250 -0.406250  0.156250    576.000000
 -0.218750 -0.406250  0.156250    576.000000
 -0.343750 -0.343750  0.156250    288.000000
 -0.281250 -0.343750  0.156250    576.000000
 -0.218750 -0.343750  0.156250    576.000000
 -0.281250 -0.281250  0.156250    288.000000
 -0.218750 -0.281250  0.156250    576.000000
 -0.218750 -0.218750  0.156250    288.000000
  0.218750  0.218750  0.218750     96.000000
  0.281250  0.218750  0.218750    288.000000
  0.343750  0.218750  0.218750    288.000000
  0.406250  0.218750  0.218750    288.000000
  0.468750  0.218750  0.218750    288.000000
 -0.468750  0.218750  0.218750    288.000000
 -0.406250  0.218750  0.218750    288.000000
 -0.343750  0.218750  0.218750    288.000000
 -0.281250  0.218750  0.218750    288.000000
 -0.218750  0.218750  0.218750    288.000000
  0.281250  0.281250  0.218750    288.000000
  0.343750  0.281250  0.218750    576.000000
  0.406250  0.281250  0.218750    576.000000
  0.468750  0.281250  0.218750    576.000000
 -0.468750  0.281250  0.218750    576.000000
 -0.406250  0.281250  0.218750    576.000000
 -0.343750  0.281250  0.218750    576.000000
 -0.281250  0.281250  0.218750    576.000000
 -0.218750  0.281250  0.218750    576.000000
  0.343750  0.343750  0.218750    288.000000
  0.406250  0.343750  0.218750    576.000000
  0.468750  0.343750  0.218750    576.000000
 -0.468750  0.343750  0.218750    576.000000
 -0.406250  0.343750  0.218750    576.000000
 -0.343750  0.343750  0.218750    576.000000
 -0.281250  0.343750  0.218750    576.000000
 -0.218750  0.343750  0.218750    576.000000
  0.406250  0.406250  0.218750    288.000000
  0.468750  0.406250  0.218750    576.000000
 -0.468750  0.406250  0.218750    576.000000
 -0.406250  0.406250  0.218750    576.000000
 -0.343750  0.406250  0.218750    576.000000
 -0.281250  0.406250  0.218750    576.000000
 -0.218750  0.406250  0.218750    576.000000
  0.468750  0.468750  0.218750    288.000000
 -0.468750  0.468750  0.218750    576.000000
 -0.406250  0.468750  0.218750    576.000000
 -0.343750  0.468750  0.218750    576.000000
 -0.281250  0.468750  0.218750    576.000000
 -0.218750  0.468750  0.218750    576.000000
 -0.468750 -0.468750  0.218750    288.000000
 -0.406250 -0.468750  0.218750    576.000000
 -0.343750 -0.468750  0.218750    576.000000
 -0.281250 -0.468750  0.218750    576.000000
 -0.406250 -0.406250  0.218750    288.000000
 -0.343750 -0.406250  0.218750    576.000000
 -0.281250 -0.406250  0.218750    576.000000
 -0.343750 -0.343750  0.218750    288.000000
 -0.281250 -0.343750  0.218750    576.000000
 -0.281250 -0.281250  0.218750    288.000000
  0.281250  0.281250  0.281250     96.000000
  0.343750  0.281250  0.281250    288.000000
  0.406250  0.281250  0.281250    288.000000
  0.468750  0.281250  0.281250    288.000000
 -0.468750  0.281250  0.281250    288.000000
 -0.406250  0.281250  0.281250    288.000000
 -0.343750  0.281250  0.281250    288.000000
 -0.281250  0.281250  0.281250    288.000000
  0.343750  0.343750  0.281250    288.000000
  0.406250  0.343750  0.281250    576.000000
  0.468750  0.343750  0.281250    576.000000
 -0.468750  0.343750  0.281250    576.000000
 -0.406250  0.343750  0.281250    576.000000
 -0.343750  0.343750  0.281250    576.000000
 -0.281250  0.343750  0.281250    576.000000
  0.406250  0.406250  0.281250    288.000000
  0.468750  0.406250  0.281250    576.000000
 -0.468750  0.406250  0.281250    576.000000
 -0.406250  0.406250  0.281250    576.000000
 -0.343750  0.406250  0.281250    576.000000
 -0.281250  0.406250  0.281250    576.000000
  0.468750  0.468750  0.281250    288.000000
 -0.468750  0.468750  0.281250    576.000000
 -0.406250  0.468750  0.281250    576.000000
 -0.343750  0.468750  0.281250    576.000000
 -0.281250  0.468750  0.281250    576.000000
 -0.468750 -0.468750  0.281250    288.000000
 -0.406250 -0.468750  0.281250    576.000000
 -0.343750 -0.468750  0.281250    576.000000
 -0.406250 -0.406250  0.281250    288.000000
 -0.343750 -0.406250  0.281250    576.000000
 -0.343750 -0.343750  0.281250    288.000000
  0.343750  0.343750  0.343750     96.000000
  0.406250  0.343750  0.343750    288.000000
  0.468750  0.343750  0.343750    288.000000
 -0.468750  0.343750  0.343750    288.000000
 -0.406250  0.343750  0.343750    288.000000
 -0.343750  0.343750  0.343750    288.000000
  0.406250  0.406250  0.343750    288.000000
  0.468750  0.406250  0.343750    576.000000
 -0.468750  0.406250  0.343750    576.000000
 -0.406250  0.406250  0.343750    576.000000
 -0.343750  0.406250  0.343750    576.000000
  0.468750  0.468750  0.343750    288.000000
 -0.468750  0.468750  0.343750    576.000000
 -0.406250  0.468750  0.343750    576.000000
 -0.343750  0.468750  0.343750    576.000000
 -0.468750 -0.468750  0.343750    288.000000
 -0.406250 -0.468750  0.343750    576.000000
 -0.406250 -0.406250  0.343750    288.000000
  0.406250  0.406250  0.406250     96.000000
  0.468750  0.406250  0.406250    288.000000
 -0.468750  0.406250  0.406250    288.000000
 -0.406250  0.406250  0.406250    288.000000
  0.468750  0.468750  0.406250    288.000000
 -0.468750  0.468750  0.406250    576.000000
 -0.406250  0.468750  0.406250    576.000000
 -0.468750 -0.468750  0.406250    288.000000
  0.468750  0.468750  0.468750     96.000000
 -0.468750  0.468750  0.468750    288.000000
 
 Following cartesian coordinates:
            Coordinates               Weight
  0.031250  0.031250  0.031250     96.000000
 -0.031250  0.093750  0.093750    288.000000
 -0.093750  0.156250  0.156250    288.000000
 -0.156250  0.218750  0.218750    288.000000
 -0.218750  0.281250  0.281250    288.000000
 -0.281250  0.343750  0.343750    288.000000
 -0.343750  0.406250  0.406250    288.000000
 -0.406250  0.468750  0.468750    288.000000
  0.531250 -0.468750 -0.468750    288.000000
  0.468750 -0.406250 -0.406250    288.000000
  0.406250 -0.343750 -0.343750    288.000000
  0.343750 -0.281250 -0.281250    288.000000
  0.281250 -0.218750 -0.218750    288.000000
  0.218750 -0.156250 -0.156250    288.000000
  0.156250 -0.093750 -0.093750    288.000000
  0.093750 -0.031250 -0.031250    288.000000
  0.031250  0.031250  0.156250    288.000000
 -0.031250  0.093750  0.218750    576.000000
 -0.093750  0.156250  0.281250    576.000000
 -0.156250  0.218750  0.343750    576.000000
 -0.218750  0.281250  0.406250    576.000000
 -0.281250  0.343750  0.468750    576.000000
 -0.343750  0.406250  0.531250    576.000000
  0.593750 -0.531250 -0.406250    576.000000
  0.531250 -0.468750 -0.343750    576.000000
  0.468750 -0.406250 -0.281250    576.000000
  0.406250 -0.343750 -0.218750    576.000000
  0.343750 -0.281250 -0.156250    576.000000
  0.281250 -0.218750 -0.093750    576.000000
  0.218750 -0.156250 -0.031250    576.000000
  0.156250 -0.093750  0.031250    576.000000
  0.031250  0.031250  0.281250    288.000000
 -0.031250  0.093750  0.343750    576.000000
 -0.093750  0.156250  0.406250    576.000000
 -0.156250  0.218750  0.468750    576.000000
 -0.218750  0.281250  0.531250    576.000000
 -0.281250  0.343750  0.593750    576.000000
  0.656250 -0.593750 -0.343750    576.000000
  0.593750 -0.531250 -0.281250    576.000000
  0.531250 -0.468750 -0.218750    576.000000
  0.468750 -0.406250 -0.156250    576.000000
  0.406250 -0.343750 -0.093750    576.000000
  0.343750 -0.281250 -0.031250    576.000000
  0.281250 -0.218750  0.031250    576.000000
  0.218750 -0.156250  0.093750    576.000000
  0.031250  0.031250  0.406250    288.000000
 -0.031250  0.093750  0.468750    576.000000
 -0.093750  0.156250  0.531250    576.000000
 -0.156250  0.218750  0.593750    576.000000
 -0.218750  0.281250  0.656250    576.000000
  0.718750 -0.656250 -0.281250    576.000000
  0.656250 -0.593750 -0.218750    576.000000
  0.593750 -0.531250 -0.156250    576.000000
  0.531250 -0.468750 -0.093750    576.000000
  0.468750 -0.406250 -0.031250    576.000000
  0.406250 -0.343750  0.031250    576.000000
  0.343750 -0.281250  0.093750    576.000000
  0.281250 -0.218750  0.156250    576.000000
  0.031250  0.031250  0.531250    288.000000
 -0.031250  0.093750  0.593750    576.000000
 -0.093750  0.156250  0.656250    576.000000
 -0.156250  0.218750  0.718750    576.000000
  0.781250 -0.718750 -0.218750    576.000000
  0.718750 -0.656250 -0.156250    576.000000
  0.656250 -0.593750 -0.093750    576.000000
  0.593750 -0.531250 -0.031250    576.000000
  0.531250 -0.468750  0.031250    576.000000
  0.468750 -0.406250  0.093750    576.000000
  0.406250 -0.343750  0.156250    576.000000
  0.343750 -0.281250  0.218750    576.000000
  0.031250  0.031250  0.656250    288.000000
 -0.031250  0.093750  0.718750    576.000000
 -0.093750  0.156250  0.781250    576.000000
  0.843750 -0.781250 -0.156250    576.000000
  0.781250 -0.718750 -0.093750    576.000000
  0.718750 -0.656250 -0.031250    576.000000
  0.656250 -0.593750  0.031250    576.000000
  0.593750 -0.531250  0.093750    576.000000
  0.531250 -0.468750  0.156250    576.000000
  0.468750 -0.406250  0.218750    576.000000
  0.406250 -0.343750  0.281250    576.000000
  0.031250  0.031250  0.781250    288.000000
 -0.031250  0.093750  0.843750    576.000000
  0.906250 -0.843750 -0.093750    576.000000
  0.843750 -0.781250 -0.031250    576.000000
  0.781250 -0.718750  0.031250    576.000000
  0.718750 -0.656250  0.093750    576.000000
  0.656250 -0.593750  0.156250    576.000000
  0.593750 -0.531250  0.218750    576.000000
  0.531250 -0.468750  0.281250    576.000000
  0.468750 -0.406250  0.343750    576.000000
  0.031250  0.031250  0.906250    288.000000
  0.968750 -0.906250 -0.031250    576.000000
  0.906250 -0.843750  0.031250    576.000000
  0.843750 -0.781250  0.093750    576.000000
  0.781250 -0.718750  0.156250    576.000000
  0.718750 -0.656250  0.218750    576.000000
  0.656250 -0.593750  0.281250    576.000000
  0.593750 -0.531250  0.343750    576.000000
  0.531250 -0.468750  0.406250    576.000000
  0.031250  0.031250 -0.968750    288.000000
 -0.031250  0.093750 -0.906250    576.000000
 -0.093750  0.156250 -0.843750    576.000000
 -0.156250  0.218750 -0.781250    576.000000
 -0.218750  0.281250 -0.718750    576.000000
 -0.281250  0.343750 -0.656250    576.000000
 -0.343750  0.406250 -0.593750    576.000000
  0.031250  0.031250 -0.843750    288.000000
 -0.031250  0.093750 -0.781250    576.000000
 -0.093750  0.156250 -0.718750    576.000000
 -0.156250  0.218750 -0.656250    576.000000
 -0.218750  0.281250 -0.593750    576.000000
 -0.281250  0.343750 -0.531250    576.000000
  0.031250  0.031250 -0.718750    288.000000
 -0.031250  0.093750 -0.656250    576.000000
 -0.093750  0.156250 -0.593750    576.000000
 -0.156250  0.218750 -0.531250    576.000000
 -0.218750  0.281250 -0.468750    576.000000
  0.031250  0.031250 -0.593750    288.000000
 -0.031250  0.093750 -0.531250    576.000000
 -0.093750  0.156250 -0.468750    576.000000
 -0.156250  0.218750 -0.406250    576.000000
  0.031250  0.031250 -0.468750    288.000000
 -0.031250  0.093750 -0.406250    576.000000
 -0.093750  0.156250 -0.343750    576.000000
  0.031250  0.031250 -0.343750    288.000000
 -0.031250  0.093750 -0.281250    576.000000
  0.031250  0.031250 -0.218750    288.000000
  0.093750  0.093750  0.093750     96.000000
  0.031250  0.156250  0.156250    288.000000
 -0.031250  0.218750  0.218750    288.000000
 -0.093750  0.281250  0.281250    288.000000
 -0.156250  0.343750  0.343750    288.000000
 -0.218750  0.406250  0.406250    288.000000
 -0.281250  0.468750  0.468750    288.000000
  0.656250 -0.468750 -0.468750    288.000000
  0.593750 -0.406250 -0.406250    288.000000
  0.531250 -0.343750 -0.343750    288.000000
  0.468750 -0.281250 -0.281250    288.000000
  0.406250 -0.218750 -0.218750    288.000000
  0.343750 -0.156250 -0.156250    288.000000
  0.281250 -0.093750 -0.093750    288.000000
  0.093750  0.093750  0.218750    288.000000
  0.031250  0.156250  0.281250    576.000000
 -0.031250  0.218750  0.343750    576.000000
 -0.093750  0.281250  0.406250    576.000000
 -0.156250  0.343750  0.468750    576.000000
 -0.218750  0.406250  0.531250    576.000000
  0.718750 -0.531250 -0.406250    576.000000
  0.656250 -0.468750 -0.343750    576.000000
  0.593750 -0.406250 -0.281250    576.000000
  0.531250 -0.343750 -0.218750    576.000000
  0.468750 -0.281250 -0.156250    576.000000
  0.406250 -0.218750 -0.093750    576.000000
  0.343750 -0.156250 -0.031250    576.000000
  0.093750  0.093750  0.343750    288.000000
  0.031250  0.156250  0.406250    576.000000
 -0.031250  0.218750  0.468750    576.000000
 -0.093750  0.281250  0.531250    576.000000
 -0.156250  0.343750  0.593750    576.000000
  0.781250 -0.593750 -0.343750    576.000000
  0.718750 -0.531250 -0.281250    576.000000
  0.656250 -0.468750 -0.218750    576.000000
  0.593750 -0.406250 -0.156250    576.000000
  0.531250 -0.343750 -0.093750    576.000000
  0.468750 -0.281250 -0.031250    576.000000
  0.406250 -0.218750  0.031250    576.000000
  0.093750  0.093750  0.468750    288.000000
  0.031250  0.156250  0.531250    576.000000
 -0.031250  0.218750  0.593750    576.000000
 -0.093750  0.281250  0.656250    576.000000
  0.843750 -0.656250 -0.281250    576.000000
  0.781250 -0.593750 -0.218750    576.000000
  0.718750 -0.531250 -0.156250    576.000000
  0.656250 -0.468750 -0.093750    576.000000
  0.593750 -0.406250 -0.031250    576.000000
  0.531250 -0.343750  0.031250    576.000000
  0.468750 -0.281250  0.093750    576.000000
  0.093750  0.093750  0.593750    288.000000
  0.031250  0.156250  0.656250    576.000000
 -0.031250  0.218750  0.718750    576.000000
  0.906250 -0.718750 -0.218750    576.000000
  0.843750 -0.656250 -0.156250    576.000000
  0.781250 -0.593750 -0.093750    576.000000
  0.718750 -0.531250 -0.031250    576.000000
  0.656250 -0.468750  0.031250    576.000000
  0.593750 -0.406250  0.093750    576.000000
  0.531250 -0.343750  0.156250    576.000000
  0.093750  0.093750  0.718750    288.000000
  0.031250  0.156250  0.781250    576.000000
  0.968750 -0.781250 -0.156250    576.000000
  0.906250 -0.718750 -0.093750    576.000000
  0.843750 -0.656250 -0.031250    576.000000
  0.781250 -0.593750  0.031250    576.000000
  0.718750 -0.531250  0.093750    576.000000
  0.656250 -0.468750  0.156250    576.000000
  0.593750 -0.406250  0.218750    576.000000
  0.093750  0.093750  0.843750    288.000000
  1.031250 -0.843750 -0.093750    576.000000
  0.968750 -0.781250 -0.031250    576.000000
  0.906250 -0.718750  0.031250    576.000000
  0.843750 -0.656250  0.093750    576.000000
  0.781250 -0.593750  0.156250    576.000000
  0.718750 -0.531250  0.218750    576.000000
  0.656250 -0.468750  0.281250    576.000000
  0.093750  0.093750 -1.031250    288.000000
  0.031250  0.156250 -0.968750    576.000000
 -0.031250  0.218750 -0.906250    576.000000
 -0.093750  0.281250 -0.843750    576.000000
 -0.156250  0.343750 -0.781250    576.000000
 -0.218750  0.406250 -0.718750    576.000000
  0.093750  0.093750 -0.906250    288.000000
  0.031250  0.156250 -0.843750    576.000000
 -0.031250  0.218750 -0.781250    576.000000
 -0.093750  0.281250 -0.718750    576.000000
 -0.156250  0.343750 -0.656250    576.000000
  0.093750  0.093750 -0.781250    288.000000
  0.031250  0.156250 -0.718750    576.000000
 -0.031250  0.218750 -0.656250    576.000000
 -0.093750  0.281250 -0.593750    576.000000
  0.093750  0.093750 -0.656250    288.000000
  0.031250  0.156250 -0.593750    576.000000
 -0.031250  0.218750 -0.531250    576.000000
  0.093750  0.093750 -0.531250    288.000000
  0.031250  0.156250 -0.468750    576.000000
  0.093750  0.093750 -0.406250    288.000000
  0.156250  0.156250  0.156250     96.000000
  0.093750  0.218750  0.218750    288.000000
  0.031250  0.281250  0.281250    288.000000
 -0.031250  0.343750  0.343750    288.000000
 -0.093750  0.406250  0.406250    288.000000
 -0.156250  0.468750  0.468750    288.000000
  0.781250 -0.468750 -0.468750    288.000000
  0.718750 -0.406250 -0.406250    288.000000
  0.656250 -0.343750 -0.343750    288.000000
  0.593750 -0.281250 -0.281250    288.000000
  0.531250 -0.218750 -0.218750    288.000000
  0.468750 -0.156250 -0.156250    288.000000
  0.156250  0.156250  0.281250    288.000000
  0.093750  0.218750  0.343750    576.000000
  0.031250  0.281250  0.406250    576.000000
 -0.031250  0.343750  0.468750    576.000000
 -0.093750  0.406250  0.531250    576.000000
  0.843750 -0.531250 -0.406250    576.000000
  0.781250 -0.468750 -0.343750    576.000000
  0.718750 -0.406250 -0.281250    576.000000
  0.656250 -0.343750 -0.218750    576.000000
  0.593750 -0.281250 -0.156250    576.000000
  0.531250 -0.218750 -0.093750    576.000000
  0.156250  0.156250  0.406250    288.000000
  0.093750  0.218750  0.468750    576.000000
  0.031250  0.281250  0.531250    576.000000
 -0.031250  0.343750  0.593750    576.000000
  0.906250 -0.593750 -0.343750    576.000000
  0.843750 -0.531250 -0.281250    576.000000
  0.781250 -0.468750 -0.218750    576.000000
  0.718750 -0.406250 -0.156250    576.000000
  0.656250 -0.343750 -0.093750    576.000000
  0.593750 -0.281250 -0.031250    576.000000
  0.156250  0.156250  0.531250    288.000000
  0.093750  0.218750  0.593750    576.000000
  0.031250  0.281250  0.656250    576.000000
  0.968750 -0.656250 -0.281250    576.000000
  0.906250 -0.593750 -0.218750    576.000000
  0.843750 -0.531250 -0.156250    576.000000
  0.781250 -0.468750 -0.093750    576.000000
  0.718750 -0.406250 -0.031250    576.000000
  0.656250 -0.343750  0.031250    576.000000
  0.156250  0.156250  0.656250    288.000000
  0.093750  0.218750  0.718750    576.000000
  1.031250 -0.718750 -0.218750    576.000000
  0.968750 -0.656250 -0.156250    576.000000
  0.906250 -0.593750 -0.093750    576.000000
  0.843750 -0.531250 -0.031250    576.000000
  0.781250 -0.468750  0.031250    576.000000
  0.718750 -0.406250  0.093750    576.000000
  0.156250  0.156250  0.781250    288.000000
  1.093750 -0.781250 -0.156250    576.000000
  1.031250 -0.718750 -0.093750    576.000000
  0.968750 -0.656250 -0.031250    576.000000
  0.906250 -0.593750  0.031250    576.000000
  0.843750 -0.531250  0.093750    576.000000
  0.781250 -0.468750  0.156250    576.000000
  0.156250  0.156250 -1.093750    288.000000
  0.093750  0.218750 -1.031250    576.000000
  0.031250  0.281250 -0.968750    576.000000
 -0.031250  0.343750 -0.906250    576.000000
 -0.093750  0.406250 -0.843750    576.000000
  0.156250  0.156250 -0.968750    288.000000
  0.093750  0.218750 -0.906250    576.000000
  0.031250  0.281250 -0.843750    576.000000
 -0.031250  0.343750 -0.781250    576.000000
  0.156250  0.156250 -0.843750    288.000000
  0.093750  0.218750 -0.781250    576.000000
  0.031250  0.281250 -0.718750    576.000000
  0.156250  0.156250 -0.718750    288.000000
  0.093750  0.218750 -0.656250    576.000000
  0.156250  0.156250 -0.593750    288.000000
  0.218750  0.218750  0.218750     96.000000
  0.156250  0.281250  0.281250    288.000000
  0.093750  0.343750  0.343750    288.000000
  0.031250  0.406250  0.406250    288.000000
 -0.031250  0.468750  0.468750    288.000000
  0.906250 -0.468750 -0.468750    288.000000
  0.843750 -0.406250 -0.406250    288.000000
  0.781250 -0.343750 -0.343750    288.000000
  0.718750 -0.281250 -0.281250    288.000000
  0.656250 -0.218750 -0.218750    288.000000
  0.218750  0.218750  0.343750    288.000000
  0.156250  0.281250  0.406250    576.000000
  0.093750  0.343750  0.468750    576.000000
  0.031250  0.406250  0.531250    576.000000
  0.968750 -0.531250 -0.406250    576.000000
  0.906250 -0.468750 -0.343750    576.000000
  0.843750 -0.406250 -0.281250    576.000000
  0.781250 -0.343750 -0.218750    576.000000
  0.718750 -0.281250 -0.156250    576.000000
  0.218750  0.218750  0.468750    288.000000
  0.156250  0.281250  0.531250    576.000000
  0.093750  0.343750  0.593750    576.000000
  1.031250 -0.593750 -0.343750    576.000000
  0.968750 -0.531250 -0.281250    576.000000
  0.906250 -0.468750 -0.218750    576.000000
  0.843750 -0.406250 -0.156250    576.000000
  0.781250 -0.343750 -0.093750    576.000000
  0.218750  0.218750  0.593750    288.000000
  0.156250  0.281250  0.656250    576.000000
  1.093750 -0.656250 -0.281250    576.000000
  1.031250 -0.593750 -0.218750    576.000000
  0.968750 -0.531250 -0.156250    576.000000
  0.906250 -0.468750 -0.093750    576.000000
  0.843750 -0.406250 -0.031250    576.000000
  0.218750  0.218750  0.718750    288.000000
  1.156250 -0.718750 -0.218750    576.000000
  1.093750 -0.656250 -0.156250    576.000000
  1.031250 -0.593750 -0.093750    576.000000
  0.968750 -0.531250 -0.031250    576.000000
  0.906250 -0.468750  0.031250    576.000000
  0.218750  0.218750 -1.156250    288.000000
  0.156250  0.281250 -1.093750    576.000000
  0.093750  0.343750 -1.031250    576.000000
  0.031250  0.406250 -0.968750    576.000000
  0.218750  0.218750 -1.031250    288.000000
  0.156250  0.281250 -0.968750    576.000000
  0.093750  0.343750 -0.906250    576.000000
  0.218750  0.218750 -0.906250    288.000000
  0.156250  0.281250 -0.843750    576.000000
  0.218750  0.218750 -0.781250    288.000000
  0.281250  0.281250  0.281250     96.000000
  0.218750  0.343750  0.343750    288.000000
  0.156250  0.406250  0.406250    288.000000
  0.093750  0.468750  0.468750    288.000000
  1.031250 -0.468750 -0.468750    288.000000
  0.968750 -0.406250 -0.406250    288.000000
  0.906250 -0.343750 -0.343750    288.000000
  0.843750 -0.281250 -0.281250    288.000000
  0.281250  0.281250  0.406250    288.000000
  0.218750  0.343750  0.468750    576.000000
  0.156250  0.406250  0.531250    576.000000
  1.093750 -0.531250 -0.406250    576.000000
  1.031250 -0.468750 -0.343750    576.000000
  0.968750 -0.406250 -0.281250    576.000000
  0.906250 -0.343750 -0.218750    576.000000
  0.281250  0.281250  0.531250    288.000000
  0.218750  0.343750  0.593750    576.000000
  1.156250 -0.593750 -0.343750    576.000000
  1.093750 -0.531250 -0.281250    576.000000
  1.031250 -0.468750 -0.218750    576.000000
  0.968750 -0.406250 -0.156250    576.000000
  0.281250  0.281250  0.656250    288.000000
  1.218750 -0.656250 -0.281250    576.000000
  1.156250 -0.593750 -0.218750    576.000000
  1.093750 -0.531250 -0.156250    576.000000
  1.031250 -0.468750 -0.093750    576.000000
  0.281250  0.281250 -1.218750    288.000000
  0.218750  0.343750 -1.156250    576.000000
  0.156250  0.406250 -1.093750    576.000000
  0.281250  0.281250 -1.093750    288.000000
  0.218750  0.343750 -1.031250    576.000000
  0.281250  0.281250 -0.968750    288.000000
  0.343750  0.343750  0.343750     96.000000
  0.281250  0.406250  0.406250    288.000000
  0.218750  0.468750  0.468750    288.000000
  1.156250 -0.468750 -0.468750    288.000000
  1.093750 -0.406250 -0.406250    288.000000
  1.031250 -0.343750 -0.343750    288.000000
  0.343750  0.343750  0.468750    288.000000
  0.281250  0.406250  0.531250    576.000000
  1.218750 -0.531250 -0.406250    576.000000
  1.156250 -0.468750 -0.343750    576.000000
  1.093750 -0.406250 -0.281250    576.000000
  0.343750  0.343750  0.593750    288.000000
  1.281250 -0.593750 -0.343750    576.000000
  1.218750 -0.531250 -0.281250    576.000000
  1.156250 -0.468750 -0.218750    576.000000
  0.343750  0.343750 -1.281250    288.000000
  0.281250  0.406250 -1.218750    576.000000
  0.343750  0.343750 -1.156250    288.000000
  0.406250  0.406250  0.406250     96.000000
  0.343750  0.468750  0.468750    288.000000
  1.281250 -0.468750 -0.468750    288.000000
  1.218750 -0.406250 -0.406250    288.000000
  0.406250  0.406250  0.531250    288.000000
  1.343750 -0.531250 -0.406250    576.000000
  1.281250 -0.468750 -0.343750    576.000000
  0.406250  0.406250 -1.343750    288.000000
  0.468750  0.468750  0.468750     96.000000
  1.406250 -0.468750 -0.468750    288.000000
 


--------------------------------------------------------------------------------------------------------




 Dimension of arrays:
   k-points           NKPTS =    408   k-points in BZ     NKDIM =    408   number of bands    NBANDS=     16
   number of dos      NEDOS =    301   number of ions     NIONS =      2
   non local maximal  LDIM  =      4   non local SUM 2l+1 LMDIM =      8
   total plane-waves  NPLWV =  13824
   max r-space proj   IRMAX =      1   max aug-charges    IRDMAX=   1613
   dimension x,y,z NGX =    24 NGY =   24 NGZ =   24
   dimension x,y,z NGXF=    24 NGYF=   24 NGZF=   24
   support grid    NGXF=    24 NGYF=   24 NGZF=   24
   ions per type =               2
   NGX,Y,Z   is equivalent  to a cutoff of  10.32, 10.32, 10.32 a.u.
   NGXF,Y,Z  is equivalent  to a cutoff of  10.32, 10.32, 10.32 a.u.

 SYSTEM =  Si                                      
 POSCAR =  Si                                      

 Startparameter for this run:
   NWRITE =      2    write-flag & timer
   PREC   = medium    normal or accurate (medium, high low for compatibility)
   ISTART =      0    job   : 0-new  1-cont  2-samecut
   ICHARG =      2    charge: 1-file 2-atom 10-const
   ISPIN  =      1    spin polarized calculation?
   LNONCOLLINEAR =      F non collinear calculations
   LSORBIT =      F    spin-orbit coupling
   INIWAV =      1    electr: 0-lowe 1-rand  2-diag
   LASPH  =      F    aspherical Exc in radial PAW
   METAGGA=      F    non-selfconsistent MetaGGA calc.

 Electronic Relaxation 1
   ENCUT  =  600.0 eV  44.10 Ry    6.64 a.u.   7.72  7.72  7.72*2*pi/ulx,y,z
   ENINI  =  600.0     initial cutoff
   ENAUG  =  322.1 eV  augmentation charge cutoff
   NELM   =     60;   NELMIN=  2; NELMDL= -5     # of ELM steps 
   EDIFF  = 0.1E-07   stopping-criterion for ELM
   LREAL  =      F    real-space projection
   NLSPLINE    = F    spline interpolate recip. space projectors
   LCOMPAT=      F    compatible to vasp.4.4
   GGA_COMPAT  = T    GGA compatible to vasp.4.4-vasp.4.6
   LMAXPAW     = -100 max onsite density
   LMAXMIX     =    2 max onsite mixed and CHGCAR
   VOSKOWN=      0    Vosko Wilk Nusair interpolation
   ROPT   =    0.00000
 Ionic relaxation
   EDIFFG = 0.1E-06   stopping-criterion for IOM
   NSW    =      0    number of steps for IOM
   NBLOCK =      1;   KBLOCK =      1    inner block; outer block 
   IBRION =     -1    ionic relax: 0-MD 1-quasi-New 2-CG
   NFREE  =      0    steps in history (QN), initial steepest desc. (CG)
   ISIF   =      2    stress and relaxation
   IWAVPR =     10    prediction:  0-non 1-charg 2-wave 3-comb
   ISYM   =      2    0-nonsym 1-usesym 2-fastsym
   LCORR  =      T    Harris-Foulkes like correction to forces

   POTIM  = 0.5000    time-step for ionic-motion
   TEIN   =    0.0    initial temperature
   TEBEG  =    0.0;   TEEND  =   0.0 temperature during run
   SMASS  =  -3.00    Nose mass-parameter (am)
   estimated Nose-frequenzy (Omega)   =  0.10E-29 period in steps =****** mass=  -0.342E-27a.u.
   SCALEE = 1.0000    scale energy and forces
   NPACO  =    256;   APACO  = 16.0  distance and # of slots for P.C.
   PSTRESS=    0.0 pullay stress

  Mass of Ions in am
   POMASS =  28.09
  Ionic Valenz
   ZVAL   =   4.00
  Atomic Wigner-Seitz radii
   RWIGS  =  -1.00
  virtual crystal weights 
   VCA    =   1.00
   NELECT =       8.0000    total number of electrons
   NUPDOWN=      -1.0000    fix difference up-down

 DOS related values:
   EMIN   =  10.00;   EMAX   =-10.00  energy-range for DOS
   EFERMI =   0.00
   ISMEAR =     1;   SIGMA  =   0.20  broadening in eV -4-tet -1-fermi 0-gaus

 Electronic relaxation 2 (details)
   IALGO  =     58    algorithm
   LDIAG  =      T    sub-space diagonalisation (order eigenvalues)
   LSUBROT=      F    optimize rotation matrix (better conditioning)
   TURBO    =      0    0=normal 1=particle mesh
   IRESTART =      0    0=no restart 2=restart with 2 vectors
   NREBOOT  =      0    no. of reboots
   NMIN     =      0    reboot dimension
   EREF     =   0.00    reference energy to select bands
   IMIX   =      4    mixing-type and parameters
     AMIX     =   0.40;   BMIX     =  1.00
     AMIX_MAG =   1.60;   BMIX_MAG =  1.00
     AMIN     =   0.10
     WC   =   100.;   INIMIX=   1;  MIXPRE=   1;  MAXMIX= -45

 Intra band minimization:
   WEIMIN = 0.0000     energy-eigenvalue tresh-hold
   EBREAK =  0.16E-09  absolut break condition
   DEPER  =   0.30     relativ break condition  

   TIME   =   0.40     timestep for ELM

  volume/ion in A,a.u.               =      20.44       137.91
  Fermi-wavevector in a.u.,A,eV,Ry     =   0.950524  1.796229 12.292802  0.903495
  Thomas-Fermi vector in A             =   2.078909
 
 Write flags
   LWAVE        =      T    write WAVECAR
   LDOWNSAMPLE  =      F    k-point downsampling of WAVECAR
   LCHARG       =      T    write CHGCAR
   LVTOT        =      F    write LOCPOT, total local potential
   LVHAR        =      F    write LOCPOT, Hartree potential only
   LELF         =      F    write electronic localiz. function (ELF)
   LORBIT       =     11    0 simple, 1 ext, 2 COOP (PROOUT), +10 PAW based schemes


 Dipole corrections
   LMONO  =      F    monopole corrections only (constant potential shift)
   LDIPOL =      F    correct potential (dipole corrections)
   IDIPOL =      0    1-x, 2-y, 3-z, 4-all directions 
   EPSILON=  1.0000000 bulk dielectric constant

 Exchange correlation treatment:
   GGA     =    PE    GGA type
   LEXCH   =     8    internal setting for exchange type
   VOSKOWN=      0    Vosko Wilk Nusair interpolation
   LHFCALC =     F    Hartree Fock is set to
   LHFONE  =     F    Hartree Fock one center treatment
   AEXX    =    0.0000 exact exchange contribution

 Linear response parameters
   LEPSILON=     F    determine dielectric tensor
   LRPA    =     F    only Hartree local field effects (RPA)
   LNABLA  =     F    use nabla operator in PAW spheres
   LVEL    =     F    velocity operator in full k-point grid
   LINTERFAST=   F  fast interpolation
   KINTER  =     0    interpolate to denser k-point grid
   CSHIFT  =0.1000    complex shift for real part using Kramers Kronig
   OMEGAMAX=  -1.0    maximum frequency
   DEG_THRESHOLD= 0.2000000E-02 threshold for treating states as degnerate
   RTIME   =   -0.100 relaxation time in fs
  (WPLASMAI=    0.000 imaginary part of plasma frequency in eV, 0.658/RTIME)
   DFIELD  = 0.0000000 0.0000000 0.0000000 field for delta impulse in time
 
 Orbital magnetization related:
   ORBITALMAG=     F  switch on orbital magnetization
   LCHIMAG   =     F  perturbation theory with respect to B field
   DQ        =  0.001000  dq finite difference perturbation B field
   LLRAUG    =     F  two centre corrections for induced B field



--------------------------------------------------------------------------------------------------------


 Static calculation
 charge density and potential will be updated during run
 non-spin polarized calculation
 Conjugate gradient for all bands (Freysoldt, et al. PRB 79, 241103 (2009))
 preconditioned conjugated gradient                                        
 perform sub-space diagonalisation
    before iterative eigenvector-optimisation
 modified Broyden-mixing scheme, WC =      100.0
 initial mixing is a Kerker type mixing with AMIX =  0.4000 and BMIX =      1.0000
 Hartree-type preconditioning will be used
 using additional bands           12
 reciprocal scheme for non local part
 use partial core corrections
 no Harris-corrections to forces 
 use gradient corrections 
 use of overlap-Matrix (Vanderbilt PP)
 Methfessel and Paxton  Order N= 1 SIGMA  =   0.20


--------------------------------------------------------------------------------------------------------


  energy-cutoff  :      600.00
  volume of cell :       40.87
      direct lattice vectors                 reciprocal lattice vectors
     0.000000000  2.734000000  2.734000000    -0.182882224  0.182882224  0.182882224
     2.734000000  0.000000000  2.734000000     0.182882224 -0.182882224  0.182882224
     2.734000000  2.734000000  0.000000000     0.182882224  0.182882224 -0.182882224

  length of vectors
     3.866459880  3.866459880  3.866459880     0.316761304  0.316761304  0.316761304


 
 k-points in units of 2pi/SCALE and weight: K-Points                                
   0.03125000  0.03125000  0.03125000       0.000
  -0.03125000  0.09375000  0.09375000       0.001
  -0.09375000  0.15625000  0.15625000       0.001
  -0.15625000  0.21875000  0.21875000       0.001
  -0.21875000  0.28125000  0.28125000       0.001
  -0.28125000  0.34375000  0.34375000       0.001
  -0.34375000  0.40625000  0.40625000       0.001
  -0.40625000  0.46875000  0.46875000       0.001
   0.53125000 -0.46875000 -0.46875000       0.001
   0.46875000 -0.40625000 -0.40625000       0.001
   0.40625000 -0.34375000 -0.34375000       0.001
   0.34375000 -0.28125000 -0.28125000       0.001
   0.28125000 -0.21875000 -0.21875000       0.001
   0.21875000 -0.15625000 -0.15625000       0.001
   0.15625000 -0.09375000 -0.09375000       0.001
   0.09375000 -0.03125000 -0.03125000       0.001
   0.03125000  0.03125000  0.15625000       0.001
  -0.03125000  0.09375000  0.21875000       0.003
  -0.09375000  0.15625000  0.28125000       0.003
  -0.15625000  0.21875000  0.34375000       0.003
  -0.21875000  0.28125000  0.40625000       0.003
  -0.28125000  0.34375000  0.46875000       0.003
  -0.34375000  0.40625000  0.53125000       0.003
   0.59375000 -0.53125000 -0.40625000       0.003
   0.53125000 -0.46875000 -0.34375000       0.003
   0.46875000 -0.40625000 -0.28125000       0.003
   0.40625000 -0.34375000 -0.21875000       0.003
   0.34375000 -0.28125000 -0.15625000       0.003
   0.28125000 -0.21875000 -0.09375000       0.003
   0.21875000 -0.15625000 -0.03125000       0.003
   0.15625000 -0.09375000  0.03125000       0.003
   0.03125000  0.03125000  0.28125000       0.001
  -0.03125000  0.09375000  0.34375000       0.003
  -0.09375000  0.15625000  0.40625000       0.003
  -0.15625000  0.21875000  0.46875000       0.003
  -0.21875000  0.28125000  0.53125000       0.003
  -0.28125000  0.34375000  0.59375000       0.003
   0.65625000 -0.59375000 -0.34375000       0.003
   0.59375000 -0.53125000 -0.28125000       0.003
   0.53125000 -0.46875000 -0.21875000       0.003
   0.46875000 -0.40625000 -0.15625000       0.003
   0.40625000 -0.34375000 -0.09375000       0.003
   0.34375000 -0.28125000 -0.03125000       0.003
   0.28125000 -0.21875000  0.03125000       0.003
   0.21875000 -0.15625000  0.09375000       0.003
   0.03125000  0.03125000  0.40625000       0.001
  -0.03125000  0.09375000  0.46875000       0.003
  -0.09375000  0.15625000  0.53125000       0.003
  -0.15625000  0.21875000  0.59375000       0.003
  -0.21875000  0.28125000  0.65625000       0.003
   0.71875000 -0.65625000 -0.28125000       0.003
   0.65625000 -0.59375000 -0.21875000       0.003
   0.59375000 -0.53125000 -0.15625000       0.003
   0.53125000 -0.46875000 -0.09375000       0.003
   0.46875000 -0.40625000 -0.03125000       0.003
   0.40625000 -0.34375000  0.03125000       0.003
   0.34375000 -0.28125000  0.09375000       0.003
   0.28125000 -0.21875000  0.15625000       0.003
   0.03125000  0.03125000  0.53125000       0.001
  -0.03125000  0.09375000  0.59375000       0.003
  -0.09375000  0.15625000  0.65625000       0.003
  -0.15625000  0.21875000  0.71875000       0.003
   0.78125000 -0.71875000 -0.21875000       0.003
   0.71875000 -0.65625000 -0.15625000       0.003
   0.65625000 -0.59375000 -0.09375000       0.003
   0.59375000 -0.53125000 -0.03125000       0.003
   0.53125000 -0.46875000  0.03125000       0.003
   0.46875000 -0.40625000  0.09375000       0.003
   0.40625000 -0.34375000  0.15625000       0.003
   0.34375000 -0.28125000  0.21875000       0.003
   0.03125000  0.03125000  0.65625000       0.001
  -0.03125000  0.09375000  0.71875000       0.003
  -0.09375000  0.15625000  0.78125000       0.003
   0.84375000 -0.78125000 -0.15625000       0.003
   0.78125000 -0.71875000 -0.09375000       0.003
   0.71875000 -0.65625000 -0.03125000       0.003
   0.65625000 -0.59375000  0.03125000       0.003
   0.59375000 -0.53125000  0.09375000       0.003
   0.53125000 -0.46875000  0.15625000       0.003
   0.46875000 -0.40625000  0.21875000       0.003
   0.40625000 -0.34375000  0.28125000       0.003
   0.03125000  0.03125000  0.78125000       0.001
  -0.03125000  0.09375000  0.84375000       0.003
   0.90625000 -0.84375000 -0.09375000       0.003
   0.84375000 -0.78125000 -0.03125000       0.003
   0.78125000 -0.71875000  0.03125000       0.003
   0.71875000 -0.65625000  0.09375000       0.003
   0.65625000 -0.59375000  0.15625000       0.003
   0.59375000 -0.53125000  0.21875000       0.003
   0.53125000 -0.46875000  0.28125000       0.003
   0.46875000 -0.40625000  0.34375000       0.003
   0.03125000  0.03125000  0.90625000       0.001
   0.96875000 -0.90625000 -0.03125000       0.003
   0.90625000 -0.84375000  0.03125000       0.003
   0.84375000 -0.78125000  0.09375000       0.003
   0.78125000 -0.71875000  0.15625000       0.003
   0.71875000 -0.65625000  0.21875000       0.003
   0.65625000 -0.59375000  0.28125000       0.003
   0.59375000 -0.53125000  0.34375000       0.003
   0.53125000 -0.46875000  0.40625000       0.003
   0.03125000  0.03125000 -0.96875000       0.001
  -0.03125000  0.09375000 -0.90625000       0.003
  -0.09375000  0.15625000 -0.84375000       0.003
  -0.15625000  0.21875000 -0.78125000       0.003
  -0.21875000  0.28125000 -0.71875000       0.003
  -0.28125000  0.34375000 -0.65625000       0.003
  -0.34375000  0.40625000 -0.59375000       0.003
   0.03125000  0.03125000 -0.84375000       0.001
  -0.03125000  0.09375000 -0.78125000       0.003
  -0.09375000  0.15625000 -0.71875000       0.003
  -0.15625000  0.21875000 -0.65625000       0.003
  -0.21875000  0.28125000 -0.59375000       0.003
  -0.28125000  0.34375000 -0.53125000       0.003
   0.03125000  0.03125000 -0.71875000       0.001
  -0.03125000  0.09375000 -0.65625000       0.003
  -0.09375000  0.15625000 -0.59375000       0.003
  -0.15625000  0.21875000 -0.53125000       0.003
  -0.21875000  0.28125000 -0.46875000       0.003
   0.03125000  0.03125000 -0.59375000       0.001
  -0.03125000  0.09375000 -0.53125000       0.003
  -0.09375000  0.15625000 -0.46875000       0.003
  -0.15625000  0.21875000 -0.40625000       0.003
   0.03125000  0.03125000 -0.46875000       0.001
  -0.03125000  0.09375000 -0.40625000       0.003
  -0.09375000  0.15625000 -0.34375000       0.003
   0.03125000  0.03125000 -0.34375000       0.001
  -0.03125000  0.09375000 -0.28125000       0.003
   0.03125000  0.03125000 -0.21875000       0.001
   0.09375000  0.09375000  0.09375000       0.000
   0.03125000  0.15625000  0.15625000       0.001
  -0.03125000  0.21875000  0.21875000       0.001
  -0.09375000  0.28125000  0.28125000       0.001
  -0.15625000  0.34375000  0.34375000       0.001
  -0.21875000  0.40625000  0.40625000       0.001
  -0.28125000  0.46875000  0.46875000       0.001
   0.65625000 -0.46875000 -0.46875000       0.001
   0.59375000 -0.40625000 -0.40625000       0.001
   0.53125000 -0.34375000 -0.34375000       0.001
   0.46875000 -0.28125000 -0.28125000       0.001
   0.40625000 -0.21875000 -0.21875000       0.001
   0.34375000 -0.15625000 -0.15625000       0.001
   0.28125000 -0.09375000 -0.09375000       0.001
   0.09375000  0.09375000  0.21875000       0.001
   0.03125000  0.15625000  0.28125000       0.003
  -0.03125000  0.21875000  0.34375000       0.003
  -0.09375000  0.28125000  0.40625000       0.003
  -0.15625000  0.34375000  0.46875000       0.003
  -0.21875000  0.40625000  0.53125000       0.003
   0.71875000 -0.53125000 -0.40625000       0.003
   0.65625000 -0.46875000 -0.34375000       0.003
   0.59375000 -0.40625000 -0.28125000       0.003
   0.53125000 -0.34375000 -0.21875000       0.003
   0.46875000 -0.28125000 -0.15625000       0.003
   0.40625000 -0.21875000 -0.09375000       0.003
   0.34375000 -0.15625000 -0.03125000       0.003
   0.09375000  0.09375000  0.34375000       0.001
   0.03125000  0.15625000  0.40625000       0.003
  -0.03125000  0.21875000  0.46875000       0.003
  -0.09375000  0.28125000  0.53125000       0.003
  -0.15625000  0.34375000  0.59375000       0.003
   0.78125000 -0.59375000 -0.34375000       0.003
   0.71875000 -0.53125000 -0.28125000       0.003
   0.65625000 -0.46875000 -0.21875000       0.003
   0.59375000 -0.40625000 -0.15625000       0.003
   0.53125000 -0.34375000 -0.09375000       0.003
   0.46875000 -0.28125000 -0.03125000       0.003
   0.40625000 -0.21875000  0.03125000       0.003
   0.09375000  0.09375000  0.46875000       0.001
   0.03125000  0.15625000  0.53125000       0.003
  -0.03125000  0.21875000  0.59375000       0.003
  -0.09375000  0.28125000  0.65625000       0.003
   0.84375000 -0.65625000 -0.28125000       0.003
   0.78125000 -0.59375000 -0.21875000       0.003
   0.71875000 -0.53125000 -0.15625000       0.003
   0.65625000 -0.46875000 -0.09375000       0.003
   0.59375000 -0.40625000 -0.03125000       0.003
   0.53125000 -0.34375000  0.03125000       0.003
   0.46875000 -0.28125000  0.09375000       0.003
   0.09375000  0.09375000  0.59375000       0.001
   0.03125000  0.15625000  0.65625000       0.003
  -0.03125000  0.21875000  0.71875000       0.003
   0.90625000 -0.71875000 -0.21875000       0.003
   0.84375000 -0.65625000 -0.15625000       0.003
   0.78125000 -0.59375000 -0.09375000       0.003
   0.71875000 -0.53125000 -0.03125000       0.003
   0.65625000 -0.46875000  0.03125000       0.003
   0.59375000 -0.40625000  0.09375000       0.003
   0.53125000 -0.34375000  0.15625000       0.003
   0.09375000  0.09375000  0.71875000       0.001
   0.03125000  0.15625000  0.78125000       0.003
   0.96875000 -0.78125000 -0.15625000       0.003
   0.90625000 -0.71875000 -0.09375000       0.003
   0.84375000 -0.65625000 -0.03125000       0.003
   0.78125000 -0.59375000  0.03125000       0.003
   0.71875000 -0.53125000  0.09375000       0.003
   0.65625000 -0.46875000  0.15625000       0.003
   0.59375000 -0.40625000  0.21875000       0.003
   0.09375000  0.09375000  0.84375000       0.001
   1.03125000 -0.84375000 -0.09375000       0.003
   0.96875000 -0.78125000 -0.03125000       0.003
   0.90625000 -0.71875000  0.03125000       0.003
   0.84375000 -0.65625000  0.09375000       0.003
   0.78125000 -0.59375000  0.15625000       0.003
   0.71875000 -0.53125000  0.21875000       0.003
   0.65625000 -0.46875000  0.28125000       0.003
   0.09375000  0.09375000 -1.03125000       0.001
   0.03125000  0.15625000 -0.96875000       0.003
  -0.03125000  0.21875000 -0.90625000       0.003
  -0.09375000  0.28125000 -0.84375000       0.003
  -0.15625000  0.34375000 -0.78125000       0.003
  -0.21875000  0.40625000 -0.71875000       0.003
   0.09375000  0.09375000 -0.90625000       0.001
   0.03125000  0.15625000 -0.84375000       0.003
  -0.03125000  0.21875000 -0.78125000       0.003
  -0.09375000  0.28125000 -0.71875000       0.003
  -0.15625000  0.34375000 -0.65625000       0.003
   0.09375000  0.09375000 -0.78125000       0.001
   0.03125000  0.15625000 -0.71875000       0.003
  -0.03125000  0.21875000 -0.65625000       0.003
  -0.09375000  0.28125000 -0.59375000       0.003
   0.09375000  0.09375000 -0.65625000       0.001
   0.03125000  0.15625000 -0.59375000       0.003
  -0.03125000  0.21875000 -0.53125000       0.003
   0.09375000  0.09375000 -0.53125000       0.001
   0.03125000  0.15625000 -0.46875000       0.003
   0.09375000  0.09375000 -0.40625000       0.001
   0.15625000  0.15625000  0.15625000       0.000
   0.09375000  0.21875000  0.21875000       0.001
   0.03125000  0.28125000  0.28125000       0.001
  -0.03125000  0.34375000  0.34375000       0.001
  -0.09375000  0.40625000  0.40625000       0.001
  -0.15625000  0.46875000  0.46875000       0.001
   0.78125000 -0.46875000 -0.46875000       0.001
   0.71875000 -0.40625000 -0.40625000       0.001
   0.65625000 -0.34375000 -0.34375000       0.001
   0.59375000 -0.28125000 -0.28125000       0.001
   0.53125000 -0.21875000 -0.21875000       0.001
   0.46875000 -0.15625000 -0.15625000       0.001
   0.15625000  0.15625000  0.28125000       0.001
   0.09375000  0.21875000  0.34375000       0.003
   0.03125000  0.28125000  0.40625000       0.003
  -0.03125000  0.34375000  0.46875000       0.003
  -0.09375000  0.40625000  0.53125000       0.003
   0.84375000 -0.53125000 -0.40625000       0.003
   0.78125000 -0.46875000 -0.34375000       0.003
   0.71875000 -0.40625000 -0.28125000       0.003
   0.65625000 -0.34375000 -0.21875000       0.003
   0.59375000 -0.28125000 -0.15625000       0.003
   0.53125000 -0.21875000 -0.09375000       0.003
   0.15625000  0.15625000  0.40625000       0.001
   0.09375000  0.21875000  0.46875000       0.003
   0.03125000  0.28125000  0.53125000       0.003
  -0.03125000  0.34375000  0.59375000       0.003
   0.90625000 -0.59375000 -0.34375000       0.003
   0.84375000 -0.53125000 -0.28125000       0.003
   0.78125000 -0.46875000 -0.21875000       0.003
   0.71875000 -0.40625000 -0.15625000       0.003
   0.65625000 -0.34375000 -0.09375000       0.003
   0.59375000 -0.28125000 -0.03125000       0.003
   0.15625000  0.15625000  0.53125000       0.001
   0.09375000  0.21875000  0.59375000       0.003
   0.03125000  0.28125000  0.65625000       0.003
   0.96875000 -0.65625000 -0.28125000       0.003
   0.90625000 -0.59375000 -0.21875000       0.003
   0.84375000 -0.53125000 -0.15625000       0.003
   0.78125000 -0.46875000 -0.09375000       0.003
   0.71875000 -0.40625000 -0.03125000       0.003
   0.65625000 -0.34375000  0.03125000       0.003
   0.15625000  0.15625000  0.65625000       0.001
   0.09375000  0.21875000  0.71875000       0.003
   1.03125000 -0.71875000 -0.21875000       0.003
   0.96875000 -0.65625000 -0.15625000       0.003
   0.90625000 -0.59375000 -0.09375000       0.003
   0.84375000 -0.53125000 -0.03125000       0.003
   0.78125000 -0.46875000  0.03125000       0.003
   0.71875000 -0.40625000  0.09375000       0.003
   0.15625000  0.15625000  0.78125000       0.001
   1.09375000 -0.78125000 -0.15625000       0.003
   1.03125000 -0.71875000 -0.09375000       0.003
   0.96875000 -0.65625000 -0.03125000       0.003
   0.90625000 -0.59375000  0.03125000       0.003
   0.84375000 -0.53125000  0.09375000       0.003
   0.78125000 -0.46875000  0.15625000       0.003
   0.15625000  0.15625000 -1.09375000       0.001
   0.09375000  0.21875000 -1.03125000       0.003
   0.03125000  0.28125000 -0.96875000       0.003
  -0.03125000  0.34375000 -0.90625000       0.003
  -0.09375000  0.40625000 -0.84375000       0.003
   0.15625000  0.15625000 -0.96875000       0.001
   0.09375000  0.21875000 -0.90625000       0.003
   0.03125000  0.28125000 -0.84375000       0.003
  -0.03125000  0.34375000 -0.78125000       0.003
   0.15625000  0.15625000 -0.84375000       0.001
   0.09375000  0.21875000 -0.78125000       0.003
   0.03125000  0.28125000 -0.71875000       0.003
   0.15625000  0.15625000 -0.71875000       0.001
   0.09375000  0.21875000 -0.65625000       0.003
   0.15625000  0.15625000 -0.59375000       0.001
   0.21875000  0.21875000  0.21875000       0.000
   0.15625000  0.28125000  0.28125000       0.001
   0.09375000  0.34375000  0.34375000       0.001
   0.03125000  0.40625000  0.40625000       0.001
  -0.03125000  0.46875000  0.46875000       0.001
   0.90625000 -0.46875000 -0.46875000       0.001
   0.84375000 -0.40625000 -0.40625000       0.001
   0.78125000 -0.34375000 -0.34375000       0.001
   0.71875000 -0.28125000 -0.28125000       0.001
   0.65625000 -0.21875000 -0.21875000       0.001
   0.21875000  0.21875000  0.34375000       0.001
   0.15625000  0.28125000  0.40625000       0.003
   0.09375000  0.34375000  0.46875000       0.003
   0.03125000  0.40625000  0.53125000       0.003
   0.96875000 -0.53125000 -0.40625000       0.003
   0.90625000 -0.46875000 -0.34375000       0.003
   0.84375000 -0.40625000 -0.28125000       0.003
   0.78125000 -0.34375000 -0.21875000       0.003
   0.71875000 -0.28125000 -0.15625000       0.003
   0.21875000  0.21875000  0.46875000       0.001
   0.15625000  0.28125000  0.53125000       0.003
   0.09375000  0.34375000  0.59375000       0.003
   1.03125000 -0.59375000 -0.34375000       0.003
   0.96875000 -0.53125000 -0.28125000       0.003
   0.90625000 -0.46875000 -0.21875000       0.003
   0.84375000 -0.40625000 -0.15625000       0.003
   0.78125000 -0.34375000 -0.09375000       0.003
   0.21875000  0.21875000  0.59375000       0.001
   0.15625000  0.28125000  0.65625000       0.003
   1.09375000 -0.65625000 -0.28125000       0.003
   1.03125000 -0.59375000 -0.21875000       0.003
   0.96875000 -0.53125000 -0.15625000       0.003
   0.90625000 -0.46875000 -0.09375000       0.003
   0.84375000 -0.40625000 -0.03125000       0.003
   0.21875000  0.21875000  0.71875000       0.001
   1.15625000 -0.71875000 -0.21875000       0.003
   1.09375000 -0.65625000 -0.15625000       0.003
   1.03125000 -0.59375000 -0.09375000       0.003
   0.96875000 -0.53125000 -0.03125000       0.003
   0.90625000 -0.46875000  0.03125000       0.003
   0.21875000  0.21875000 -1.15625000       0.001
   0.15625000  0.28125000 -1.09375000       0.003
   0.09375000  0.34375000 -1.03125000       0.003
   0.03125000  0.40625000 -0.96875000       0.003
   0.21875000  0.21875000 -1.03125000       0.001
   0.15625000  0.28125000 -0.96875000       0.003
   0.09375000  0.34375000 -0.90625000       0.003
   0.21875000  0.21875000 -0.90625000       0.001
   0.15625000  0.28125000 -0.84375000       0.003
   0.21875000  0.21875000 -0.78125000       0.001
   0.28125000  0.28125000  0.28125000       0.000
   0.21875000  0.34375000  0.34375000       0.001
   0.15625000  0.40625000  0.40625000       0.001
   0.09375000  0.46875000  0.46875000       0.001
   1.03125000 -0.46875000 -0.46875000       0.001
   0.96875000 -0.40625000 -0.40625000       0.001
   0.90625000 -0.34375000 -0.34375000       0.001
   0.84375000 -0.28125000 -0.28125000       0.001
   0.28125000  0.28125000  0.40625000       0.001
   0.21875000  0.34375000  0.46875000       0.003
   0.15625000  0.40625000  0.53125000       0.003
   1.09375000 -0.53125000 -0.40625000       0.003
   1.03125000 -0.46875000 -0.34375000       0.003
   0.96875000 -0.40625000 -0.28125000       0.003
   0.90625000 -0.34375000 -0.21875000       0.003
   0.28125000  0.28125000  0.53125000       0.001
   0.21875000  0.34375000  0.59375000       0.003
   1.15625000 -0.59375000 -0.34375000       0.003
   1.09375000 -0.53125000 -0.28125000       0.003
   1.03125000 -0.46875000 -0.21875000       0.003
   0.96875000 -0.40625000 -0.15625000       0.003
   0.28125000  0.28125000  0.65625000       0.001
   1.21875000 -0.65625000 -0.28125000       0.003
   1.15625000 -0.59375000 -0.21875000       0.003
   1.09375000 -0.53125000 -0.15625000       0.003
   1.03125000 -0.46875000 -0.09375000       0.003
   0.28125000  0.28125000 -1.21875000       0.001
   0.21875000  0.34375000 -1.15625000       0.003
   0.15625000  0.40625000 -1.09375000       0.003
   0.28125000  0.28125000 -1.09375000       0.001
   0.21875000  0.34375000 -1.03125000       0.003
   0.28125000  0.28125000 -0.96875000       0.001
   0.34375000  0.34375000  0.34375000       0.000
   0.28125000  0.40625000  0.40625000       0.001
   0.21875000  0.46875000  0.46875000       0.001
   1.15625000 -0.46875000 -0.46875000       0.001
   1.09375000 -0.40625000 -0.40625000       0.001
   1.03125000 -0.34375000 -0.34375000       0.001
   0.34375000  0.34375000  0.46875000       0.001
   0.28125000  0.40625000  0.53125000       0.003
   1.21875000 -0.53125000 -0.40625000       0.003
   1.15625000 -0.46875000 -0.34375000       0.003
   1.09375000 -0.40625000 -0.28125000       0.003
   0.34375000  0.34375000  0.59375000       0.001
   1.28125000 -0.59375000 -0.34375000       0.003
   1.21875000 -0.53125000 -0.28125000       0.003
   1.15625000 -0.46875000 -0.21875000       0.003
   0.34375000  0.34375000 -1.28125000       0.001
   0.28125000  0.40625000 -1.21875000       0.003
   0.34375000  0.34375000 -1.15625000       0.001
   0.40625000  0.40625000  0.40625000       0.000
   0.34375000  0.46875000  0.46875000       0.001
   1.28125000 -0.46875000 -0.46875000       0.001
   1.21875000 -0.40625000 -0.40625000       0.001
   0.40625000  0.40625000  0.53125000       0.001
   1.34375000 -0.53125000 -0.40625000       0.003
   1.28125000 -0.46875000 -0.34375000       0.003
   0.40625000  0.40625000 -1.34375000       0.001
   0.46875000  0.46875000  0.46875000       0.000
   1.40625000 -0.46875000 -0.46875000       0.001
 
 k-points in reciprocal lattice and weights: K-Points                                
   0.03125000  0.03125000  0.03125000       0.000
   0.09375000  0.03125000  0.03125000       0.001
   0.15625000  0.03125000  0.03125000       0.001
   0.21875000  0.03125000  0.03125000       0.001
   0.28125000  0.03125000  0.03125000       0.001
   0.34375000  0.03125000  0.03125000       0.001
   0.40625000  0.03125000  0.03125000       0.001
   0.46875000  0.03125000  0.03125000       0.001
  -0.46875000  0.03125000  0.03125000       0.001
  -0.40625000  0.03125000  0.03125000       0.001
[...]
     14      20.6367      0.00000
     15      22.4323      0.00000
     16      23.8749      0.00000

 k-point   389 :      -0.4687    0.4062    0.3438
  band No.  band energies     occupation 
      1      -3.8716      2.00000
      2      -0.7421      2.00000
      3       2.7341      2.00000
      4       4.0690      2.00000
      5       8.2177     -0.00000
      6       8.9823     -0.00000
      7      10.3416     -0.00000
      8      12.5841      0.00000
      9      14.4070      0.00000
     10      14.6257      0.00000
     11      16.7278      0.00000
     12      18.7846      0.00000
     13      19.2117      0.00000
     14      20.9591      0.00000
     15      22.3211      0.00000
     16      24.2951      0.00000

 k-point   390 :      -0.4062    0.4062    0.3438
  band No.  band energies     occupation 
      1      -3.5026      2.00000
      2      -0.8775      2.00000
      3       2.0005      2.00000
      4       3.7491      2.00000
      5       7.9600     -0.00000
      6       9.7530     -0.00000
      7      11.3031      0.00000
      8      12.5313      0.00000
      9      13.2735      0.00000
     10      14.5117      0.00000
     11      17.5536      0.00000
     12      19.4536      0.00000
     13      20.5625      0.00000
     14      21.2085      0.00000
     15      22.0825      0.00000
     16      24.1886      0.00000

 k-point   391 :      -0.3438    0.4062    0.3438
  band No.  band energies     occupation 
      1      -3.0922      2.00000
      2      -1.0732      2.00000
      3       1.5094      2.00000
      4       3.4277      2.00000
      5       7.6046     -0.00000
      6      10.7442     -0.00000
      7      11.8082      0.00000
      8      12.3373      0.00000
      9      12.7352      0.00000
     10      14.5480      0.00000
     11      18.8466      0.00000
     12      19.6284      0.00000
     13      21.2870      0.00000
     14      21.6442      0.00000
     15      22.5106      0.00000
     16      22.8484      0.00000

 k-point   392 :       0.4688    0.4688    0.3438
  band No.  band energies     occupation 
      1      -3.9969      2.00000
      2      -0.7919      2.00000
      3       3.4614      2.00000
      4       4.0553      2.00000
      5       7.7838     -0.00000
      6       9.1208     -0.00000
      7       9.7982     -0.00000
      8      12.4188      0.00000
      9      14.6537      0.00000
     10      16.2725      0.00000
     11      16.9694      0.00000
     12      17.0105      0.00000
     13      17.9231      0.00000
     14      20.9649      0.00000
     15      23.0015      0.00000
     16      24.2989      0.00000

 k-point   393 :      -0.4688    0.4687    0.3437
  band No.  band energies     occupation 
      1      -3.7473      2.00000
      2      -0.9279      2.00000
      3       2.8716      2.00000
      4       3.8703      2.00000
      5       7.9889     -0.00000
      6       9.1299     -0.00000
      7      10.4326     -0.00000
      8      12.2667      0.00000
      9      14.6198      0.00000
     10      15.8113      0.00000
     11      16.8530      0.00000
     12      17.7402      0.00000
     13      18.6366      0.00000
     14      21.2784      0.00000
     15      23.1995      0.00000
     16      24.6956      0.00000

 k-point   394 :      -0.4062    0.4688    0.3438
  band No.  band energies     occupation 
      1      -3.4435      2.00000
      2      -1.0146      2.00000
      3       2.2386      2.00000
      4       3.5233      2.00000
      5       8.6128     -0.00000
      6       8.8143     -0.00000
      7      11.4686      0.00000
      8      12.2012      0.00000
      9      13.4356      0.00000
     10      15.9413      0.00000
     11      17.1790      0.00000
     12      18.1249      0.00000
     13      20.3285      0.00000
     14      21.5614      0.00000
     15      22.9574      0.00000
     16      24.3020      0.00000

 k-point   395 :      -0.3438    0.4688    0.3438
  band No.  band energies     occupation 
      1      -3.0983      2.00000
      2      -1.1158      2.00000
      3       1.7448      2.00000
      4       3.1284      2.00000
      5       8.4343     -0.00000
      6       9.5338     -0.00000
      7      11.8954      0.00000
      8      12.3028      0.00000
      9      12.6696      0.00000
     10      16.0505      0.00000
     11      17.8228      0.00000
     12      18.7453      0.00000
     13      21.6070      0.00000
     14      22.0848      0.00000
     15      22.4244      0.00000
     16      23.2966      0.00000

 k-point   396 :      -0.4687   -0.4687    0.3438
  band No.  band energies     occupation 
      1      -3.5691      2.00000
      2      -1.0397      2.00000
      3       2.5567      2.00000
      4       3.8244      2.00000
      5       7.5873     -0.00000
      6       9.9997     -0.00000
      7      10.4175     -0.00000
      8      12.0725      0.00000
      9      14.8501      0.00000
     10      15.3823      0.00000
     11      17.2083      0.00000
     12      18.0317      0.00000
     13      18.7036      0.00000
     14      21.5781      0.00000
     15      23.9251      0.00000
     16      24.6390      0.00000

 k-point   397 :      -0.4062   -0.4688    0.3438
  band No.  band energies     occupation 
      1      -3.3494      2.00000
      2      -1.0859      2.00000
      3       2.1062      2.00000
      4       3.5817      2.00000
      5       7.7664     -0.00000
      6       9.8811     -0.00000
      7      11.3917      0.00000
      8      11.9813      0.00000
      9      13.7250      0.00000
     10      15.5800      0.00000
     11      17.5509      0.00000
     12      18.2734      0.00000
     13      20.1018      0.00000
     14      21.8557      0.00000
     15      23.5368      0.00000
     16      23.8226      0.00000

 k-point   398 :      -0.4062   -0.4062    0.3438
  band No.  band energies     occupation 
      1      -3.2306      2.00000
      2      -1.0909      2.00000
      3       1.7718      2.00000
      4       3.6663      2.00000
      5       7.3673     -0.00000
      6      11.0317     -0.00000
      7      11.1706      0.00000
      8      11.8976      0.00000
      9      14.0742      0.00000
     10      14.1422      0.00000
     11      18.0934      0.00000
     12      19.6174      0.00000
     13      20.0487      0.00000
     14      22.1051      0.00000
     15      22.6480      0.00000
     16      23.7822      0.00000

 k-point   399 :       0.4062    0.4062    0.4062
  band No.  band energies     occupation 
      1      -4.3120      2.00000
      2      -0.6429      2.00000
      3       4.5033      2.00000
      4       4.5033      2.00000
      5       7.1603     -0.00000
      6       9.0328     -0.00000
      7       9.0328     -0.00000
      8      13.4160      0.00000
      9      14.6613      0.00000
     10      14.6613      0.00000
     11      15.6396      0.00000
     12      18.5551      0.00000
     13      18.5551      0.00000
     14      19.3429      0.00000
     15      22.5125      0.00000
     16      24.7525      0.00000

 k-point   400 :       0.4687    0.4062    0.4062
  band No.  band energies     occupation 
      1      -4.1310      2.00000
      2      -0.8423      2.00000
      3       4.0244      2.00000
      4       4.4831      2.00000
      5       7.4664     -0.00000
      6       9.0347     -0.00000
      7       9.0929     -0.00000
      8      13.4930      0.00000
      9      14.4052      0.00000
     10      15.0149      0.00000
     11      16.7646      0.00000
     12      17.2143      0.00000
     13      18.7854      0.00000
     14      19.4485      0.00000
     15      22.9042      0.00000
     16      24.6978      0.00000

 k-point   401 :      -0.4687    0.4062    0.4062
  band No.  band energies     occupation 
      1      -3.8827      2.00000
      2      -0.9626      2.00000
      3       3.2141      2.00000
      4       4.2824      2.00000
      5       7.8745     -0.00000
      6       9.1738     -0.00000
      7       9.5254     -0.00000
      8      13.7484      0.00000
      9      14.2286      0.00000
     10      14.5495      0.00000
     11      16.4393      0.00000
     12      18.4948      0.00000
     13      19.0579      0.00000
     14      19.6879      0.00000
     15      23.0300      0.00000
     16      24.9162      0.00000

 k-point   402 :      -0.4062    0.4062    0.4062
  band No.  band energies     occupation 
      1      -3.5784      2.00000
      2      -1.0236      2.00000
      3       2.4061      2.00000
      4       3.9837      2.00000
      5       7.7265     -0.00000
      6       9.9633     -0.00000
      7      10.2464     -0.00000
      8      13.2727      0.00000
      9      13.9688      0.00000
     10      14.1392      0.00000
     11      16.9472      0.00000
     12      19.3487      0.00000
     13      19.8759      0.00000
     14      20.3414      0.00000
     15      22.8605      0.00000
     16      25.2719      0.00000

 k-point   403 :       0.4688    0.4688    0.4062
  band No.  band energies     occupation 
      1      -4.0132      2.00000
      2      -1.0232      2.00000
      3       4.1361      2.00000
      4       4.3223      2.00000
      5       7.4487     -0.00000
      6       8.8843     -0.00000
      7       9.2201     -0.00000
      8      13.4107      0.00000
      9      14.5357      0.00000
     10      16.0015      0.00000
     11      16.7042      0.00000
     12      17.0783      0.00000
     13      17.8209      0.00000
     14      19.4432      0.00000
     15      23.4865      0.00000
     16      25.2872      0.00000

 k-point   404 :      -0.4688    0.4688    0.4062
  band No.  band energies     occupation 
      1      -3.8371      2.00000
      2      -1.1119      2.00000
      3       3.5240      2.00000
      4       4.2052      2.00000
      5       7.8613     -0.00000
      6       8.8131     -0.00000
      7       9.5792     -0.00000
      8      13.5210      0.00000
      9      14.4067      0.00000
     10      15.5116      0.00000
     11      16.6438      0.00000
     12      17.5986      0.00000
     13      18.3676      0.00000
     14      19.6681      0.00000
     15      23.8616      0.00000
     16      25.4390      0.00000

 k-point   405 :      -0.4062    0.4687    0.4062
  band No.  band energies     occupation 
      1      -3.6133      2.00000
      2      -1.1167      2.00000
      3       2.7727      2.00000
      4       3.9251      2.00000
      5       8.0752     -0.00000
      6       9.0245     -0.00000
      7      10.3657     -0.00000
      8      13.3977      0.00000
      9      13.6537      0.00000
     10      15.3663      0.00000
     11      16.8216      0.00000
     12      17.9502      0.00000
     13      19.8293      0.00000
     14      20.1319      0.00000
     15      23.8372      0.00000
     16      24.7885      0.00000

 k-point   406 :      -0.4688   -0.4688    0.4062
  band No.  band energies     occupation 
      1      -3.7449      2.00000
      2      -1.1626      2.00000
      3       3.3027      2.00000
      4       4.1366      2.00000
      5       7.7988     -0.00000
      6       9.1136     -0.00000
      7       9.6391     -0.00000
      8      13.4075      0.00000
      9      14.4777      0.00000
     10      15.4317      0.00000
     11      16.6919      0.00000
     12      17.7386      0.00000
     13      18.4304      0.00000
     14      19.8770      0.00000
     15      24.4845      0.00000
     16      24.8999      0.00000

 k-point   407 :       0.4688    0.4688    0.4688
  band No.  band energies     occupation 
      1      -3.9708      2.00000
      2      -1.1739      2.00000
      3       4.4479      2.00000
      4       4.4479      2.00000
      5       7.0960     -0.00000
      6       8.9770     -0.00000
      7       8.9770     -0.00000
      8      13.3346      0.00000
      9      15.7532      0.00000
     10      15.7532      0.00000
     11      16.5979      0.00000
     12      17.2344      0.00000
     13      17.2344      0.00000
     14      18.5621      0.00000
     15      24.0820      0.00000
     16      26.1192      0.00000

 k-point   408 :      -0.4688    0.4688    0.4688
  band No.  band energies     occupation 
      1      -3.8792      2.00000
      2      -1.2197      2.00000
      3       4.0496      2.00000
      4       4.3740      2.00000
      5       7.4262     -0.00000
      6       8.9287     -0.00000
      7       9.1287     -0.00000
      8      13.5032      0.00000
      9      15.3300      0.00000
     10      15.5578      0.00000
     11      16.6173      0.00000
     12      17.4618      0.00000
     13      17.6733      0.00000
     14      18.7108      0.00000
     15      24.5438      0.00000
     16      25.4212      0.00000


--------------------------------------------------------------------------------------------------------


 soft charge-density along one line, spin component           1
         0         1         2         3         4         5         6         7         8         9
 total charge-density along one line
 
 pseudopotential strength for first ion, spin component:           1
 18.437  25.723   0.000   0.000   0.000   0.000   0.000   0.000
 25.723  35.892   0.000   0.000   0.000   0.000   0.000   0.000
  0.000   0.000   4.181  -0.000  -0.000   7.790  -0.000  -0.000
  0.000   0.000  -0.000   4.181  -0.000  -0.000   7.790  -0.000
  0.000   0.000  -0.000  -0.000   4.181  -0.000  -0.000   7.790
  0.000   0.000   7.790  -0.000  -0.000  14.528  -0.000  -0.000
  0.000   0.000  -0.000   7.790  -0.000  -0.000  14.528  -0.000
  0.000   0.000  -0.000  -0.000   7.790  -0.000  -0.000  14.528
 total augmentation occupancy for first ion, spin component:           1
  5.526  -2.063  -0.000  -0.000   0.000  -0.000  -0.000  -0.000
 -2.063   0.887  -0.000  -0.000  -0.000  -0.000  -0.000  -0.000
 -0.000  -0.000   2.904   0.000  -0.000  -0.649  -0.000  -0.000
 -0.000   0.000   0.000   2.904   0.000  -0.000  -0.649   0.000
  0.000  -0.000   0.000   0.000   2.904   0.000  -0.000  -0.649
  0.000   0.000  -0.649  -0.000  -0.000   0.153   0.000   0.000
  0.000   0.000   0.000  -0.649  -0.000   0.000   0.153  -0.000
  0.000  -0.000   0.000  -0.000  -0.649  -0.000   0.000   0.153


------------------------ aborting loop because EDIFF is reached ----------------------------------------


 


 total charge     
 
# of ion       s       p       d       tot
------------------------------------------
    1        0.751   0.928   0.000   1.679
    2        0.751   0.928   0.000   1.679
--------------------------------------------------
tot          1.502   1.856   0.000   3.358
 
    FORLOC:  cpu time    0.0001: real time    0.0001
    FORNL :  cpu time    0.1003: real time    0.1004
    STRESS:  cpu time    1.6400: real time    1.6408
    FORCOR:  cpu time    0.0014: real time    0.0014
    OFIELD:  cpu time    0.0004: real time    0.0004

  FORCE on cell =-STRESS in cart. coord.  units (eV):
  Direction    XX          YY          ZZ          XY          YZ          ZX
  --------------------------------------------------------------------------------------
  Alpha Z     3.29450     3.29450     3.29450
  Ewald     -75.65841   -75.65841   -75.65841    -0.00000    -0.00000     0.00000
  Hartree     5.05534     5.05534     5.05534     0.00000     0.00000     0.00000
  E(xc)     -25.24906   -25.24906   -25.24906    -0.00019    -0.00019    -0.00019
  Local     -29.49602   -29.49602   -29.49602     0.00024     0.00024     0.00024
  n-local    77.53783    79.94937    74.88267     1.04122    -1.04578     0.00903
  augment   -11.65225   -11.65225   -11.65225    -0.00016    -0.00016    -0.00016
  Kinetic    57.89777    55.71822    55.15360     0.90308    -0.90609     0.00945
  Fock        0.00000     0.00000     0.00000     0.00000     0.00000     0.00000
  -------------------------------------------------------------------------------------
  Total       0.00726     0.00726     0.00726     0.00000     0.00000     0.00000
  in kB       0.28450     0.28450     0.28450     0.00000     0.00000     0.00000
  external pressure =        0.28 kB  Pullay stress =        0.00 kB


 VOLUME and BASIS-vectors are now :
 -----------------------------------------------------------------------------
  energy-cutoff  :      600.00
  volume of cell :       40.87
      direct lattice vectors                 reciprocal lattice vectors
     0.000000000  2.734000000  2.734000000    -0.182882224  0.182882224  0.182882224
     2.734000000  0.000000000  2.734000000     0.182882224 -0.182882224  0.182882224
     2.734000000  2.734000000  0.000000000     0.182882224  0.182882224 -0.182882224

  length of vectors
     3.866459880  3.866459880  3.866459880     0.316761304  0.316761304  0.316761304


 FORCES acting on ions:
    Electron-Ion                     Ewald-Force                    Non-Local-Force
 -----------------------------------------------------------------------------------------------
   -.266E-05 -.266E-05 -.241E-05   0.108E-14 -.120E-14 0.135E-14   0.694E-17 0.104E-16 0.680E-17
   0.266E-05 0.266E-05 0.241E-05   -.991E-15 0.136E-14 -.132E-14   -.139E-16 -.243E-16 -.577E-17
 -----------------------------------------------------------------------------------------------
   -.340E-13 0.317E-13 0.927E-14   0.896E-16 0.159E-15 0.308E-16   -.694E-17 -.139E-16 0.103E-17
 
 
 POSITION                                       TOTAL-FORCE (eV/Angst)
 -----------------------------------------------------------------------------------
      4.78450      4.78450      4.78450         0.000000      0.000000      0.000000
      0.68350      0.68350      0.68350        -0.000000     -0.000000     -0.000000
 -----------------------------------------------------------------------------------
    total drift:                               -0.000000      0.000000      0.000000


--------------------------------------------------------------------------------------------------------



  FREE ENERGIE OF THE ION-ELECTRON SYSTEM (eV)
  ---------------------------------------------------
  free  energy   TOTEN  =       -10.84985812 eV

  energy  without entropy=      -10.85026532  energy(sigma->0) =      -10.84999385
 


--------------------------------------------------------------------------------------------------------


    POTLOK:  cpu time    0.0037: real time    0.0037


--------------------------------------------------------------------------------------------------------


 writing wavefunctions
     LOOP+:  cpu time   27.3819: real time   27.5000
    4ORBIT:  cpu time    0.0000: real time    0.0000
 


 total charge     
 
# of ion       s       p       d       tot
------------------------------------------
    1        0.751   0.928   0.000   1.679
    2        0.751   0.928   0.000   1.679
--------------------------------------------------
tot          1.502   1.856   0.000   3.358
 

 total amount of memory used by VASP MPI-rank0    94703. kBytes
=======================================================================

   base      :      30000. kBytes
   nonl-proj :      36392. kBytes
   fftplans  :        112. kBytes
   grid      :        620. kBytes
   one-center:          6. kBytes
   wavefun   :      27573. kBytes
 
  
  
 General timing and accounting informations for this job:
 ========================================================
  
                  Total CPU time used (sec):       32.172
                            User time (sec):       30.744
                          System time (sec):        1.428
                         Elapsed time (sec):       32.475
  
                   Maximum memory used (kb):      142704.
                   Average memory used (kb):           0.
  
                          Minor page faults:        27396
                          Major page faults:            0
                 Voluntary context switches:          356
