PROCAR lm decomposed
# of k-points:  408         # of bands:   16         # of ions:    2

 k-point     1 :    0.03125000 0.03125000 0.03125000     weight = 0.00048828

band     1 # energy   -6.18496257 # occ.  2.00000000
 
ion      s     py     pz     px    dxy    dyz    dz2    dxz  x2-y2    tot
    1  0.212  0.000  0.000  0.000  0.000  0.000  0.000  0.000  0.000  0.212
    2  0.212  0.000  0.000  0.000  0.000  0.000  0.000  0.000  0.000  0.212
tot    0.424  0.000  0.000  0.000  0.000  0.000  0.000  0.000  0.000  0.424
 
band     2 # energy    5.46954604 # occ.  2.03619334
 
ion      s     py     pz     px    dxy    dyz    dz2    dxz  x2-y2    tot
    1  0.011  0.068  0.068  0.068  0.000  0.000  0.000  0.000  0.000  0.215
    2  0.011  0.068  0.068  0.068  0.000  0.000  0.000  0.000  0.000  0.215
tot    0.021  0.136  0.136  0.136  0.000  0.000  0.000  0.000  0.000  0.430
 
band     3 # energy    5.59809042 # occ.  1.48312458
 
ion      s     py     pz     px    dxy    dyz    dz2    dxz  x2-y2    tot
    1  0.000  0.112  0.097  0.005  0.000  0.000  0.000  0.000  0.000  0.214
    2  0.000  0.112  0.097  0.005  0.000  0.000  0.000  0.000  0.000  0.214
tot    0.000  0.223  0.195  0.009  0.000  0.000  0.000  0.000  0.000  0.427
 
band     4 # energy    5.59809042 # occ.  1.48311139
 
ion      s     py     pz     px    dxy    dyz    dz2    dxz  x2-y2    tot
    1  0.000  0.031  0.045  0.138  0.000  0.000  0.000  0.000  0.000  0.214
    2  0.000  0.031  0.045  0.138  0.000  0.000  0.000  0.000  0.000  0.214
tot    0.000  0.062  0.090  0.275  0.000  0.000  0.000  0.000  0.000  0.427
 
band     5 # energy    8.20804124 # occ. -0.00000000
 
ion      s     py     pz     px    dxy    dyz    dz2    dxz  x2-y2    tot
    1  0.008  0.049  0.049  0.049  0.000  0.000  0.000  0.000  0.000  0.155
    2  0.008  0.049  0.049  0.049  0.000  0.000  0.000  0.000  0.000  0.155
tot    0.017  0.098  0.098  0.098  0.000  0.000  0.000  0.000  0.000  0.310
 
band     6 # energy    8.20855816 # occ. -0.00000000
 
ion      s     py     pz     px    dxy    dyz    dz2    dxz  x2-y2    tot
    1  0.000  0.017  0.037  0.097  0.000  0.000  0.000  0.000  0.000  0.151
    2  0.000  0.017  0.037  0.097  0.000  0.000  0.000  0.000  0.000  0.151
tot    0.000  0.033  0.074  0.195  0.000  0.000  0.000  0.000  0.000  0.302
 
band     7 # energy    8.20855816 # occ. -0.00000000
 
ion      s     py     pz     px    dxy    dyz    dz2    dxz  x2-y2    tot
    1  0.000  0.084  0.064  0.003  0.000  0.000  0.000  0.000  0.000  0.151
    2  0.000  0.084  0.064  0.003  0.000  0.000  0.000  0.000  0.000  0.151
tot    0.000  0.168  0.127  0.007  0.000  0.000  0.000  0.000  0.000  0.302
 
band     8 # energy    8.85495922 # occ. -0.00000000
 
ion      s     py     pz     px    dxy    dyz    dz2    dxz  x2-y2    tot
    1  0.341  0.004  0.004  0.004  0.000  0.000  0.000  0.000  0.000  0.352
    2  0.341  0.004  0.004  0.004  0.000  0.000  0.000  0.000  0.000  0.352
tot    0.681  0.008  0.008  0.008  0.000  0.000  0.000  0.000  0.000  0.704
 
band     9 # energy   13.28490086 # occ.  0.00000000
 
ion      s     py     pz     px    dxy    dyz    dz2    dxz  x2-y2    tot
    1  0.000  0.000  0.000  0.000  0.000  0.000  0.000  0.000  0.000  0.000
    2  0.000  0.000  0.000  0.000  0.000  0.000  0.000  0.000  0.000  0.000
tot    0.000  0.000  0.000  0.000  0.000  0.000  0.000  0.000  0.000  0.000
 
band    10 # energy   13.28490086 # occ.  0.00000000
 
ion      s     py     pz     px    dxy    dyz    dz2    dxz  x2-y2    tot
    1  0.000  0.000  0.000  0.000  0.000  0.000  0.000  0.000  0.000  0.000
    2  0.000  0.000  0.000  0.000  0.000  0.000  0.000  0.000  0.000  0.000
tot    0.000  0.000  0.000  0.000  0.000  0.000  0.000  0.000  0.000  0.000
 
band    11 # energy   13.55531021 # occ.  0.00000000
 
ion      s     py     pz     px    dxy    dyz    dz2    dxz  x2-y2    tot
    1  0.099  0.001  0.001  0.001  0.000  0.000  0.000  0.000  0.000  0.101
    2  0.099  0.001  0.001  0.001  0.000  0.000  0.000  0.000  0.000  0.101
tot    0.198  0.002  0.002  0.002  0.000  0.000  0.000  0.000  0.000  0.202
 
band    12 # energy   16.75070860 # occ.  0.00000000
 
ion      s     py     pz     px    dxy    dyz    dz2    dxz  x2-y2    tot
    1  0.001  0.013  0.013  0.013  0.000  0.000  0.000  0.000  0.000  0.039
    2  0.001  0.013  0.013  0.013  0.000  0.000  0.000  0.000  0.000  0.039
tot    0.003  0.025  0.025  0.025  0.000  0.000  0.000  0.000  0.000  0.078
 
band    13 # energy   16.88890956 # occ.  0.00000000
 
ion      s     py     pz     px    dxy    dyz    dz2    dxz  x2-y2    tot
    1  0.000  0.006  0.008  0.025  0.000  0.000  0.000  0.000  0.000  0.039
    2  0.000  0.006  0.008  0.025  0.000  0.000  0.000  0.000  0.000  0.039
tot    0.000  0.012  0.016  0.050  0.000  0.000  0.000  0.000  0.000  0.078
 
band    14 # energy   16.88890956 # occ.  0.00000000
 
ion      s     py     pz     px    dxy    dyz    dz2    dxz  x2-y2    tot
    1  0.000  0.020  0.018  0.001  0.000  0.000  0.000  0.000  0.000  0.039
    2  0.000  0.020  0.018  0.001  0.000  0.000  0.000  0.000  0.000  0.039
tot    0.000  0.040  0.036  0.002  0.000  0.000  0.000  0.000  0.000  0.078
 
band    15 # energy   20.98749684 # occ.  0.00000000
 
ion      s     py     pz     px    dxy    dyz    dz2    dxz  x2-y2    tot
    1  0.036  0.000  0.000  0.000  0.000  0.000  0.000  0.000  0.000  0.038
    2  0.036  0.000  0.000  0.000  0.000  0.000  0.000  0.000  0.000  0.038
tot    0.073  0.001  0.001  0.001  0.000  0.000  0.000  0.000  0.000  0.075
 
band    16 # energy   28.33534946 # occ.  0.00000000
 
ion      s     py     pz     px    dxy    dyz    dz2    dxz  x2-y2    tot
    1  0.000  0.010  0.005  0.005  0.000  0.000  0.000  0.000  0.000  0.020
    2  0.000  0.007  0.010  0.003  0.000  0.000  0.000  0.000  0.000  0.020
tot    0.000  0.017  0.015  0.008  0.000  0.000  0.000  0.000  0.000  0.040
 

 k-point     2 :    0.09375000 0.03125000 0.03125000     weight = 0.00146484

band     1 # energy   -6.11787781 # occ.  2.00000000
 
ion      s     py     pz     px    dxy    dyz    dz2    dxz  x2-y2    tot
    1  0.212  0.000  0.000  0.000  0.000  0.000  0.000  0.000  0.000  0.212
    2  0.212  0.000  0.000  0.000  0.000  0.000  0.000  0.000  0.000  0.212
tot    0.423  0.001  0.001  0.000  0.000  0.000  0.000  0.000  0.000  0.425
 
band     2 # energy    4.89199419 # occ.  2.00000086
 
ion      s     py     pz     px    dxy    dyz    dz2    dxz  x2-y2    tot
    1  0.042  0.074  0.074  0.030  0.000  0.000  0.000  0.000  0.000  0.220
    2  0.042  0.074  0.074  0.030  0.000  0.000  0.000  0.000  0.000  0.220
tot    0.084  0.148  0.148  0.060  0.000  0.000  0.000  0.000  0.000  0.440
 
band     3 # energy    5.35099321 # occ.  2.05210523
 
ion      s     py     pz     px    dxy    dyz    dz2    dxz  x2-y2    tot
    1  0.001  0.019  0.019  0.170  0.000  0.000  0.000  0.000  0.000  0.208
    2  0.001  0.019  0.019  0.170  0.000  0.000  0.000  0.000  0.000  0.208
tot    0.002  0.037  0.037  0.340  0.000  0.000  0.000  0.000  0.000  0.417
 
band     4 # energy    5.56863942 # occ.  1.67937693
 
ion      s     py     pz     px    dxy    dyz    dz2    dxz  x2-y2    tot
    1  0.000  0.107  0.107  0.000  0.000  0.000  0.000  0.000  0.000  0.215
    2  0.000  0.107  0.107  0.000  0.000  0.000  0.000  0.000  0.000  0.215
tot    0.000  0.215  0.215  0.000  0.000  0.000  0.000  0.000  0.000  0.429
 
band     5 # energy    8.26610076 # occ. -0.00000000
 
ion      s     py     pz     px    dxy    dyz    dz2    dxz  x2-y2    tot
    1  0.046  0.041  0.041  0.044  0.000  0.000  0.000  0.000  0.000  0.173
    2  0.046  0.041  0.041  0.044  0.000  0.000  0.000  0.000  0.000  0.173
tot    0.092  0.083  0.083  0.088  0.000  0.000  0.000  0.000  0.000  0.346
 
band     6 # energy    8.27550729 # occ. -0.00000000
 
ion      s     py     pz     px    dxy    dyz    dz2    dxz  x2-y2    tot
    1  0.000  0.075  0.075  0.000  0.000  0.000  0.000  0.000  0.000  0.151
    2  0.000  0.075  0.075  0.000  0.000  0.000  0.000  0.000  0.000  0.151
tot    0.000  0.151  0.151  0.000  0.000  0.000  0.000  0.000  0.000  0.302
 
band     7 # energy    8.40505990 # occ. -0.00000000
 
ion      s     py     pz     px    dxy    dyz    dz2    dxz  x2-y2    tot
    1  0.023  0.019  0.019  0.104  0.000  0.000  0.000  0.000  0.000  0.166
    2  0.023  0.019  0.019  0.104  0.000  0.000  0.000  0.000  0.000  0.166
tot    0.045  0.038  0.038  0.209  0.000  0.000  0.000  0.000  0.000  0.331
 
band     8 # energy    9.37626962 # occ. -0.00000000
 
ion      s     py     pz     px    dxy    dyz    dz2    dxz  x2-y2    tot
    1  0.252  0.024  0.024  0.015  0.000  0.000  0.000  0.000  0.000  0.316
    2  0.252  0.024  0.024  0.015  0.000  0.000  0.000  0.000  0.000  0.316
tot    0.504  0.049  0.049  0.030  0.000  0.000  0.000  0.000  0.000  0.632
 
band     9 # energy   12.96141604 # occ.  0.00000000
 
ion      s     py     pz     px    dxy    dyz    dz2    dxz  x2-y2    tot
    1  0.000  0.001  0.001  0.000  0.000  0.000  0.000  0.000  0.000  0.001
    2  0.000  0.001  0.001  0.000  0.000  0.000  0.000  0.000  0.000  0.001
tot    0.000  0.001  0.001  0.000  0.000  0.000  0.000  0.000  0.000  0.002
 
band    10 # energy   13.21794702 # occ.  0.00000000
 
ion      s     py     pz     px    dxy    dyz    dz2    dxz  x2-y2    tot
    1  0.000  0.000  0.000  0.000  0.000  0.000  0.000  0.000  0.000  0.001
    2  0.000  0.000  0.000  0.000  0.000  0.000  0.000  0.000  0.000  0.001
tot    0.001  0.000  0.000  0.001  0.000  0.000  0.000  0.000  0.000  0.002
 
band    11 # energy   13.84048292 # occ.  0.00000000
 
ion      s     py     pz     px    dxy    dyz    dz2    dxz  x2-y2    tot
    1  0.091  0.007  0.007  0.001  0.000  0.000  0.000  0.000  0.000  0.105
    2  0.091  0.007  0.007  0.001  0.000  0.000  0.000  0.000  0.000  0.105
tot    0.182  0.013  0.013  0.002  0.000  0.000  0.000  0.000  0.000  0.210
 
band    12 # energy   16.61931856 # occ.  0.00000000
 
ion      s     py     pz     px    dxy    dyz    dz2    dxz  x2-y2    tot
    1  0.006  0.012  0.012  0.007  0.000  0.000  0.000  0.000  0.000  0.037
    2  0.006  0.012  0.012  0.007  0.000  0.000  0.000  0.000  0.000  0.037
tot    0.012  0.023  0.023  0.015  0.000  0.000  0.000  0.000  0.000  0.073
 
band    13 # energy   17.05535915 # occ.  0.00000000
 
ion      s     py     pz     px    dxy    dyz    dz2    dxz  x2-y2    tot
    1  0.000  0.004  0.004  0.030  0.000  0.000  0.000  0.000  0.000  0.038
    2  0.000  0.004  0.004  0.030  0.000  0.000  0.000  0.000  0.000  0.038
tot    0.001  0.007  0.007  0.060  0.000  0.000  0.000  0.000  0.000  0.075
 
band    14 # energy   17.44278735 # occ.  0.00000000
 
ion      s     py     pz     px    dxy    dyz    dz2    dxz  x2-y2    tot
    1  0.000  0.018  0.018  0.000  0.000  0.000  0.000  0.000  0.000  0.037
    2  0.000  0.018  0.018  0.000  0.000  0.000  0.000  0.000  0.000  0.037
tot    0.000  0.037  0.037  0.000  0.000  0.000  0.000  0.000  0.000  0.073
 
band    15 # energy   21.43692961 # occ.  0.00000000
 
ion      s     py     pz     px    dxy    dyz    dz2    dxz  x2-y2    tot
    1  0.031  0.004  0.004  0.000  0.000  0.000  0.000  0.000  0.000  0.039
    2  0.031  0.004  0.004  0.000  0.000  0.000  0.000  0.000  0.000  0.039
tot    0.062  0.007  0.007  0.001  0.000  0.000  0.000  0.000  0.000  0.077
 
band    16 # energy   27.36036851 # occ.  0.00000000
 
ion      s     py     pz     px    dxy    dyz    dz2    dxz  x2-y2    tot
    1  0.001  0.030  0.022  0.001  0.000  0.000  0.000  0.000  0.000  0.054
    2  0.001  0.012  0.010  0.030  0.000  0.000  0.000  0.000  0.000  0.053
tot    0.002  0.042  0.033  0.030  0.000  0.000  0.000  0.000  0.000  0.107
 

 k-point     3 :    0.15625000 0.03125000 0.03125000     weight = 0.00146484

band     1 # energy   -5.95131538 # occ.  2.00000000
 
ion      s     py     pz     px    dxy    dyz    dz2    dxz  x2-y2    tot
    1  0.211  0.001  0.001  0.000  0.000  0.000  0.000  0.000  0.000  0.213
    2  0.211  0.001  0.001  0.000  0.000  0.000  0.000  0.000  0.000  0.213
tot    0.422  0.002  0.002  0.001  0.000  0.000  0.000  0.000  0.000  0.427
 
band     2 # energy    3.82476800 # occ.  2.00000000
 
ion      s     py     pz     px    dxy    dyz    dz2    dxz  x2-y2    tot
    1  0.070  0.054  0.054  0.043  0.000  0.000  0.000  0.000  0.000  0.220
    2  0.070  0.054  0.054  0.043  0.000  0.000  0.000  0.000  0.000  0.220
tot    0.140  0.107  0.107  0.085  0.000  0.000  0.000  0.000  0.000  0.441
 
band     3 # energy    5.09237040 # occ.  2.00047198
 
ion      s     py     pz     px    dxy    dyz    dz2    dxz  x2-y2    tot
    1  0.003  0.031  0.031  0.142  0.000  0.000  0.000  0.000  0.000  0.207
    2  0.003  0.031  0.031  0.142  0.000  0.000  0.000  0.000  0.000  0.207
tot    0.006  0.062  0.062  0.283  0.000  0.000  0.000  0.000  0.000  0.413
 
band     4 # energy    5.40062986 # occ.  2.06981416
 
ion      s     py     pz     px    dxy    dyz    dz2    dxz  x2-y2    tot
    1  0.000  0.107  0.107  0.000  0.000  0.000  0.000  0.000  0.000  0.214
    2  0.000  0.107  0.107  0.000  0.000  0.000  0.000  0.000  0.000  0.214
tot    0.000  0.214  0.214  0.000  0.000  0.000  0.000  0.000  0.000  0.428
 
band     5 # energy    8.10688325 # occ. -0.00000000
 
ion      s     py     pz     px    dxy    dyz    dz2    dxz  x2-y2    tot
    1  0.108  0.023  0.023  0.044  0.000  0.000  0.000  0.000  0.000  0.198
    2  0.108  0.023  0.023  0.044  0.000  0.000  0.000  0.000  0.000  0.198
tot    0.217  0.045  0.045  0.089  0.000  0.000  0.000  0.000  0.000  0.396
 
band     6 # energy    8.53445154 # occ. -0.00000000
 
ion      s     py     pz     px    dxy    dyz    dz2    dxz  x2-y2    tot
    1  0.000  0.076  0.076  0.000  0.000  0.000  0.000  0.000  0.000  0.152
    2  0.000  0.076  0.076  0.000  0.000  0.000  0.000  0.000  0.000  0.152
tot    0.000  0.152  0.152  0.000  0.000  0.000  0.000  0.000  0.000  0.304
 
band     7 # energy    8.75454934 # occ. -0.00000000
 
ion      s     py     pz     px    dxy    dyz    dz2    dxz  x2-y2    tot
    1  0.007  0.023  0.023  0.105  0.000  0.000  0.000  0.000  0.000  0.159
    2  0.007  0.023  0.023  0.105  0.000  0.000  0.000  0.000  0.000  0.159
tot    0.015  0.047  0.047  0.210  0.000  0.000  0.000  0.000  0.000  0.318
 
band     8 # energy   10.37218003 # occ. -0.00000000
 
ion      s     py     pz     px    dxy    dyz    dz2    dxz  x2-y2    tot
    1  0.181  0.041  0.041  0.025  0.000  0.000  0.000  0.000  0.000  0.288
    2  0.181  0.041  0.041  0.025  0.000  0.000  0.000  0.000  0.000  0.288
tot    0.362  0.083  0.083  0.049  0.000  0.000  0.000  0.000  0.000  0.577
 
band     9 # energy   12.59689901 # occ.  0.00000000
 
ion      s     py     pz     px    dxy    dyz    dz2    dxz  x2-y2    tot
    1  0.000  0.001  0.001  0.000  0.000  0.000  0.000  0.000  0.000  0.002
    2  0.000  0.001  0.001  0.000  0.000  0.000  0.000  0.000  0.000  0.002
tot    0.000  0.002  0.002  0.000  0.000  0.000  0.000  0.000  0.000  0.003
 
band    10 # energy   13.00232098 # occ.  0.00000000
 
ion      s     py     pz     px    dxy    dyz    dz2    dxz  x2-y2    tot
    1  0.002  0.000  0.000  0.002  0.000  0.000  0.000  0.000  0.000  0.005
    2  0.002  0.000  0.000  0.002  0.000  0.000  0.000  0.000  0.000  0.005
tot    0.005  0.000  0.000  0.005  0.000  0.000  0.000  0.000  0.000  0.010
 
band    11 # energy   14.42310028 # occ.  0.00000000
 
ion      s     py     pz     px    dxy    dyz    dz2    dxz  x2-y2    tot
    1  0.073  0.015  0.015  0.008  0.000  0.000  0.000  0.000  0.000  0.110
    2  0.073  0.015  0.015  0.008  0.000  0.000  0.000  0.000  0.000  0.110
tot    0.146  0.030  0.030  0.015  0.000  0.000  0.000  0.000  0.000  0.220
 
band    12 # energy   16.27815863 # occ.  0.00000000
 
ion      s     py     pz     px    dxy    dyz    dz2    dxz  x2-y2    tot
    1  0.017  0.007  0.007  0.007  0.000  0.000  0.000  0.000  0.000  0.037
    2  0.017  0.007  0.007  0.007  0.000  0.000  0.000  0.000  0.000  0.037
tot    0.034  0.014  0.014  0.014  0.000  0.000  0.000  0.000  0.000  0.075
 
band    13 # energy   17.85173076 # occ.  0.00000000
 
ion      s     py     pz     px    dxy    dyz    dz2    dxz  x2-y2    tot
    1  0.000  0.004  0.004  0.026  0.000  0.000  0.000  0.000  0.000  0.035
    2  0.000  0.004  0.004  0.026  0.000  0.000  0.000  0.000  0.000  0.035
tot    0.001  0.009  0.009  0.052  0.000  0.000  0.000  0.000  0.000  0.070
 
band    14 # energy   18.38100207 # occ.  0.00000000
 
ion      s     py     pz     px    dxy    dyz    dz2    dxz  x2-y2    tot
    1  0.000  0.017  0.017  0.000  0.000  0.000  0.000  0.000  0.000  0.035
    2  0.000  0.017  0.017  0.000  0.000  0.000  0.000  0.000  0.000  0.035
tot    0.000  0.035  0.035  0.000  0.000  0.000  0.000  0.000  0.000  0.069
 
band    15 # energy   22.35313364 # occ.  0.00000000
 
ion      s     py     pz     px    dxy    dyz    dz2    dxz  x2-y2    tot
    1  0.023  0.008  0.008  0.003  0.000  0.000  0.000  0.000  0.000  0.041
    2  0.023  0.008  0.008  0.003  0.000  0.000  0.000  0.000  0.000  0.041
tot    0.045  0.015  0.015  0.006  0.000  0.000  0.000  0.000  0.000  0.082
 
band    16 # energy   25.69402526 # occ.  0.00000000
 
ion      s     py     pz     px    dxy    dyz    dz2    dxz  x2-y2    tot
    1  0.002  0.024  0.023  0.008  0.000  0.000  0.000  0.000  0.000  0.058
    2  0.002  0.024  0.023  0.009  0.000  0.000  0.000  0.000  0.000  0.058
tot    0.005  0.048  0.047  0.017  0.000  0.000  0.000  0.000  0.000  0.117
 

 k-point     4 :    0.21875000 0.03125000 0.03125000     weight = 0.00146484

band     1 # energy   -5.68864789 # occ.  2.00000000
 
ion      s     py     pz     px    dxy    dyz    dz2    dxz  x2-y2    tot
    1  0.210  0.002  0.002  0.001  0.000  0.000  0.000  0.000  0.000  0.215
    2  0.210  0.002  0.002  0.001  0.000  0.000  0.000  0.000  0.000  0.215
tot    0.420  0.004  0.004  0.002  0.000  0.000  0.000  0.000  0.000  0.430
 
band     2 # energy    2.67278232 # occ.  2.00000000
 
ion      s     py     pz     px    dxy    dyz    dz2    dxz  x2-y2    tot
    1  0.088  0.044  0.044  0.041  0.000  0.000  0.000  0.000  0.000  0.218
    2  0.088  0.044  0.044  0.041  0.000  0.000  0.000  0.000  0.000  0.218
tot    0.176  0.088  0.088  0.083  0.000  0.000  0.000  0.000  0.000  0.436
 
band     3 # energy    4.84167343 # occ.  2.00000013
 
ion      s     py     pz     px    dxy    dyz    dz2    dxz  x2-y2    tot
    1  0.004  0.035  0.035  0.133  0.000  0.000  0.000  0.000  0.000  0.207
    2  0.004  0.035  0.035  0.133  0.000  0.000  0.000  0.000  0.000  0.207
tot    0.008  0.069  0.069  0.267  0.000  0.000  0.000  0.000  0.000  0.413
 
band     4 # energy    5.17202779 # occ.  2.00314600
 
ion      s     py     pz     px    dxy    dyz    dz2    dxz  x2-y2    tot
    1  0.000  0.107  0.107  0.000  0.000  0.000  0.000  0.000  0.000  0.214
    2  0.000  0.107  0.107  0.000  0.000  0.000  0.000  0.000  0.000  0.214
tot    0.000  0.214  0.214  0.000  0.000  0.000  0.000  0.000  0.000  0.427
 
band     5 # energy    7.86847897 # occ. -0.00000000
 
ion      s     py     pz     px    dxy    dyz    dz2    dxz  x2-y2    tot
    1  0.135  0.016  0.016  0.037  0.000  0.000  0.000  0.000  0.000  0.203
    2  0.135  0.016  0.016  0.037  0.000  0.000  0.000  0.000  0.000  0.203
tot    0.271  0.031  0.031  0.073  0.000  0.000  0.000  0.000  0.000  0.406
 
band     6 # energy    8.83586198 # occ. -0.00000000
 
ion      s     py     pz     px    dxy    dyz    dz2    dxz  x2-y2    tot
    1  0.000  0.074  0.074  0.000  0.000  0.000  0.000  0.000  0.000  0.148
    2  0.000  0.074  0.074  0.000  0.000  0.000  0.000  0.000  0.000  0.148
tot    0.000  0.148  0.148  0.000  0.000  0.000  0.000  0.000  0.000  0.297
 
band     7 # energy    9.08028556 # occ. -0.00000000
 
ion      s     py     pz     px    dxy    dyz    dz2    dxz  x2-y2    tot
    1  0.003  0.022  0.022  0.105  0.000  0.000  0.000  0.000  0.000  0.152
    2  0.003  0.022  0.022  0.105  0.000  0.000  0.000  0.000  0.000  0.152
tot    0.006  0.044  0.044  0.211  0.000  0.000  0.000  0.000  0.000  0.304
 
band     8 # energy   11.41860135 # occ.  0.00000000
 
ion      s     py     pz     px    dxy    dyz    dz2    dxz  x2-y2    tot
    1  0.135  0.048  0.048  0.031  0.000  0.000  0.000  0.000  0.000  0.262
    2  0.135  0.048  0.048  0.031  0.000  0.000  0.000  0.000  0.000  0.262
tot    0.269  0.096  0.096  0.062  0.000  0.000  0.000  0.000  0.000  0.524
 
band     9 # energy   12.41964624 # occ.  0.00000000
 
ion      s     py     pz     px    dxy    dyz    dz2    dxz  x2-y2    tot
    1  0.000  0.003  0.003  0.000  0.000  0.000  0.000  0.000  0.000  0.005
    2  0.000  0.003  0.003  0.000  0.000  0.000  0.000  0.000  0.000  0.005
tot    0.000  0.005  0.005  0.000  0.000  0.000  0.000  0.000  0.000  0.011
 
band    10 # energy   12.96576988 # occ.  0.00000000
 
ion      s     py     pz     px    dxy    dyz    dz2    dxz  x2-y2    tot
    1  0.010  0.003  0.003  0.008  0.000  0.000  0.000  0.000  0.000  0.023
    2  0.010  0.003  0.003  0.008  0.000  0.000  0.000  0.000  0.000  0.023
tot    0.020  0.006  0.006  0.015  0.000  0.000  0.000  0.000  0.000  0.047
 
band    11 # energy   14.76676441 # occ.  0.00000000
 
ion      s     py     pz     px    dxy    dyz    dz2    dxz  x2-y2    tot
    1  0.047  0.014  0.014  0.011  0.000  0.000  0.000  0.000  0.000  0.087
    2  0.047  0.014  0.014  0.011  0.000  0.000  0.000  0.000  0.000  0.087
tot    0.093  0.029  0.029  0.023  0.000  0.000  0.000  0.000  0.000  0.174
 
band    12 # energy   16.48957649 # occ.  0.00000000
 
ion      s     py     pz     px    dxy    dyz    dz2    dxz  x2-y2    tot
    1  0.036  0.013  0.013  0.009  0.000  0.000  0.000  0.000  0.000  0.072
    2  0.036  0.013  0.013  0.009  0.000  0.000  0.000  0.000  0.000  0.072
tot    0.072  0.027  0.027  0.018  0.000  0.000  0.000  0.000  0.000  0.143
 
band    13 # energy   18.92334867 # occ.  0.00000000
 
ion      s     py     pz     px    dxy    dyz    dz2    dxz  x2-y2    tot
    1  0.000  0.004  0.004  0.024  0.000  0.000  0.000  0.000  0.000  0.033
    2  0.000  0.004  0.004  0.024  0.000  0.000  0.000  0.000  0.000  0.033
tot    0.001  0.008  0.008  0.049  0.000  0.000  0.000  0.000  0.000  0.067
 
band    14 # energy   19.51207478 # occ.  0.00000000
 
ion      s     py     pz     px    dxy    dyz    dz2    dxz  x2-y2    tot
    1  0.000  0.017  0.017  0.000  0.000  0.000  0.000  0.000  0.000  0.033
    2  0.000  0.017  0.017  0.000  0.000  0.000  0.000  0.000  0.000  0.033
tot    0.000  0.033  0.033  0.000  0.000  0.000  0.000  0.000  0.000  0.067
 
band    15 # energy   23.35724254 # occ.  0.00000000
 
ion      s     py     pz     px    dxy    dyz    dz2    dxz  x2-y2    tot
    1  0.014  0.017  0.017  0.012  0.000  0.000  0.000  0.000  0.000  0.059
    2  0.014  0.017  0.017  0.012  0.000  0.000  0.000  0.000  0.000  0.059
tot    0.028  0.034  0.034  0.023  0.000  0.000  0.000  0.000  0.000  0.119
 
band    16 # energy   24.07338761 # occ.  0.00000000
 
ion      s     py     pz     px    dxy    dyz    dz2    dxz  x2-y2    tot
    1  0.003  0.019  0.019  0.015  0.000  0.000  0.000  0.000  0.000  0.056
    2  0.003  0.019  0.019  0.015  0.000  0.000  0.000  0.000  0.000  0.056
tot    0.005  0.039  0.038  0.030  0.000  0.000  0.000  0.000  0.000  0.111
 

 k-point     5 :    0.28125000 0.03125000 0.03125000     weight = 0.00146484

band     1 # energy   -5.33712655 # occ.  2.00000000
 
ion      s     py     pz     px    dxy    dyz    dz2    dxz  x2-y2    tot
    1  0.209  0.003  0.003  0.002  0.000  0.000  0.000  0.000  0.000  0.218
    2  0.209  0.003  0.003  0.002  0.000  0.000  0.000  0.000  0.000  0.218
tot    0.418  0.007  0.007  0.004  0.000  0.000  0.000  0.000  0.000  0.435
 
band     2 # energy    1.55148784 # occ.  2.00000000
 
ion      s     py     pz     px    dxy    dyz    dz2    dxz  x2-y2    tot
    1  0.100  0.038  0.038  0.038  0.000  0.000  0.000  0.000  0.000  0.214
    2  0.100  0.038  0.038  0.038  0.000  0.000  0.000  0.000  0.000  0.214
tot    0.199  0.076  0.076  0.076  0.000  0.000  0.000  0.000  0.000  0.428
 
band     3 # energy    4.62859483 # occ.  2.00000000
 
ion      s     py     pz     px    dxy    dyz    dz2    dxz  x2-y2    tot
    1  0.005  0.036  0.036  0.131  0.000  0.000  0.000  0.000  0.000  0.208
    2  0.005  0.036  0.036  0.131  0.000  0.000  0.000  0.000  0.000  0.208
tot    0.010  0.072  0.072  0.262  0.000  0.000  0.000  0.000  0.000  0.416
 
band     4 # energy    4.94159568 # occ.  2.00000499
 
ion      s     py     pz     px    dxy    dyz    dz2    dxz  x2-y2    tot
    1  0.000  0.107  0.107  0.000  0.000  0.000  0.000  0.000  0.000  0.214
    2  0.000  0.107  0.107  0.000  0.000  0.000  0.000  0.000  0.000  0.214
tot    0.000  0.214  0.214  0.000  0.000  0.000  0.000  0.000  0.000  0.428
 
band     5 # energy    7.63346431 # occ. -0.00000000
 
ion      s     py     pz     px    dxy    dyz    dz2    dxz  x2-y2    tot
    1  0.152  0.011  0.011  0.030  0.000  0.000  0.000  0.000  0.000  0.204
    2  0.152  0.011  0.011  0.030  0.000  0.000  0.000  0.000  0.000  0.204
tot    0.305  0.022  0.022  0.060  0.000  0.000  0.000  0.000  0.000  0.409
 
band     6 # energy    9.02890492 # occ. -0.00000000
 
ion      s     py     pz     px    dxy    dyz    dz2    dxz  x2-y2    tot
    1  0.000  0.068  0.068  0.000  0.000  0.000  0.000  0.000  0.000  0.135
    2  0.000  0.068  0.068  0.000  0.000  0.000  0.000  0.000  0.000  0.135
tot    0.000  0.135  0.135  0.000  0.000  0.000  0.000  0.000  0.000  0.271
 
band     7 # energy    9.23922519 # occ. -0.00000000
 
ion      s     py     pz     px    dxy    dyz    dz2    dxz  x2-y2    tot
    1  0.001  0.020  0.020  0.094  0.000  0.000  0.000  0.000  0.000  0.137
    2  0.001  0.020  0.020  0.094  0.000  0.000  0.000  0.000  0.000  0.137
tot    0.003  0.041  0.041  0.189  0.000  0.000  0.000  0.000  0.000  0.273
 
band     8 # energy   12.33003223 # occ.  0.00000000
 
ion      s     py     pz     px    dxy    dyz    dz2    dxz  x2-y2    tot
    1  0.078  0.041  0.041  0.042  0.000  0.000  0.000  0.000  0.000  0.201
    2  0.078  0.041  0.041  0.042  0.000  0.000  0.000  0.000  0.000  0.201
tot    0.155  0.081  0.081  0.084  0.000  0.000  0.000  0.000  0.000  0.402
 
band     9 # energy   12.58946802 # occ.  0.00000000
 
ion      s     py     pz     px    dxy    dyz    dz2    dxz  x2-y2    tot
    1  0.000  0.008  0.008  0.000  0.000  0.000  0.000  0.000  0.000  0.017
    2  0.000  0.008  0.008  0.000  0.000  0.000  0.000  0.000  0.000  0.017
tot    0.000  0.017  0.017  0.000  0.000  0.000  0.000  0.000  0.000  0.034
 
band    10 # energy   13.36991327 # occ.  0.00000000
 
ion      s     py     pz     px    dxy    dyz    dz2    dxz  x2-y2    tot
    1  0.027  0.018  0.018  0.016  0.000  0.000  0.000  0.000  0.000  0.079
    2  0.027  0.018  0.018  0.016  0.000  0.000  0.000  0.000  0.000  0.079
tot    0.055  0.035  0.035  0.032  0.000  0.000  0.000  0.000  0.000  0.157
 
band    11 # energy   14.58538863 # occ.  0.00000000
 
ion      s     py     pz     px    dxy    dyz    dz2    dxz  x2-y2    tot
    1  0.048  0.008  0.008  0.005  0.000  0.000  0.000  0.000  0.000  0.069
    2  0.048  0.008  0.008  0.005  0.000  0.000  0.000  0.000  0.000  0.069
tot    0.096  0.015  0.015  0.011  0.000  0.000  0.000  0.000  0.000  0.138
 
band    12 # energy   17.55901328 # occ.  0.00000000
 
ion      s     py     pz     px    dxy    dyz    dz2    dxz  x2-y2    tot
    1  0.034  0.029  0.029  0.022  0.000  0.000  0.000  0.000  0.000  0.114
    2  0.034  0.029  0.029  0.022  0.000  0.000  0.000  0.000  0.000  0.114
tot    0.068  0.058  0.058  0.044  0.000  0.000  0.000  0.000  0.000  0.229
 
band    13 # energy   19.97348854 # occ.  0.00000000
 
ion      s     py     pz     px    dxy    dyz    dz2    dxz  x2-y2    tot
    1  0.001  0.005  0.005  0.026  0.000  0.000  0.000  0.000  0.000  0.036
    2  0.001  0.005  0.005  0.026  0.000  0.000  0.000  0.000  0.000  0.036
tot    0.001  0.010  0.010  0.052  0.000  0.000  0.000  0.000  0.000  0.073
 
band    14 # energy   20.59145622 # occ.  0.00000000
 
ion      s     py     pz     px    dxy    dyz    dz2    dxz  x2-y2    tot
    1  0.000  0.018  0.018  0.000  0.000  0.000  0.000  0.000  0.000  0.036
    2  0.000  0.018  0.018  0.000  0.000  0.000  0.000  0.000  0.000  0.036
tot    0.000  0.036  0.036  0.000  0.000  0.000  0.000  0.000  0.000  0.072
 
band    15 # energy   22.62226712 # occ.  0.00000000
 
ion      s     py     pz     px    dxy    dyz    dz2    dxz  x2-y2    tot
    1  0.006  0.024  0.024  0.008  0.000  0.000  0.000  0.000  0.000  0.062
    2  0.006  0.024  0.024  0.008  0.000  0.000  0.000  0.000  0.000  0.062
tot    0.013  0.047  0.047  0.016  0.000  0.000  0.000  0.000  0.000  0.124
 
band    16 # energy   23.38967450 # occ.  0.00000000
 
ion      s     py     pz     px    dxy    dyz    dz2    dxz  x2-y2    tot
    1  0.019  0.020  0.018  0.057  0.000  0.000  0.000  0.000  0.000  0.114
    2  0.019  0.020  0.018  0.057  0.000  0.000  0.000  0.000  0.000  0.114
tot    0.038  0.040  0.036  0.113  0.000  0.000  0.000  0.000  0.000  0.228
 

 k-point     6 :    0.34375000 0.03125000 0.03125000     weight = 0.00146484

band     1 # energy   -4.91205155 # occ.  2.00000000
 
ion      s     py     pz     px    dxy    dyz    dz2    dxz  x2-y2    tot
    1  0.210  0.004  0.004  0.003  0.000  0.000  0.000  0.000  0.000  0.221
    2  0.210  0.004  0.004  0.003  0.000  0.000  0.000  0.000  0.000  0.221
tot    0.419  0.009  0.009  0.006  0.000  0.000  0.000  0.000  0.000  0.443
 
band     2 # energy    0.51460880 # occ.  2.00000000
 
ion      s     py     pz     px    dxy    dyz    dz2    dxz  x2-y2    tot
    1  0.106  0.034  0.034  0.035  0.000  0.000  0.000  0.000  0.000  0.209
    2  0.106  0.034  0.034  0.035  0.000  0.000  0.000  0.000  0.000  0.209
tot    0.213  0.068  0.068  0.070  0.000  0.000  0.000  0.000  0.000  0.418