<?xml version="1.0" encoding="ISO-8859-1"?>
<modeling>
 <generator>
  <i name="program" type="string">vasp </i>
  <i name="version" type="string">5.4.4.18Apr17-6-g9f103f2a35  </i>
  <i name="subversion" type="string">(build Jul 29 2018 09:17:02) complex            parallel </i>
  <i name="platform" type="string">LinuxIFC </i>
  <i name="date" type="string">2018 08 05 </i>
  <i name="time" type="string">18:49:43 </i>
 </generator>
 <incar>
  <i type="string" name="SYSTEM"> Si</i>
  <i type="int" name="ISTART">     0</i>
  <i type="string" name="PREC">medium</i>
  <i type="string" name="ALGO"> A</i>
  <i type="int" name="ICHARG">     2</i>
  <i name="EDIFF">      0.00000001</i>
  <i name="ENCUT">    600.00000000</i>
  <i type="int" name="LORBIT">    11</i>
  <v type="int" name="KPOINT_BSE">    -1     0     0     0</v>
  <i type="string" name="GGA"> PE</i>
 </incar>
 <structure name="primitive_cell" >
  <crystal>
   <varray name="basis" >
    <v>       0.00000000       2.73400000       2.73400000 </v>
    <v>       2.73400000       0.00000000       2.73400000 </v>
    <v>       2.73400000       2.73400000       0.00000000 </v>
   </varray>
   <i name="volume">     40.87196581 </i>
   <varray name="rec_basis" >
    <v>      -0.18288222       0.18288222       0.18288222 </v>
    <v>       0.18288222      -0.18288222       0.18288222 </v>
    <v>       0.18288222       0.18288222      -0.18288222 </v>
   </varray>
  </crystal>
  <varray name="positions" >
   <v>      -0.12500000      -0.12500000      -0.12500000 </v>
   <v>       0.12500000       0.12500000       0.12500000 </v>
  </varray>
 </structure>
 <varray name="primitive_index" >
  <v type="int" >        1 </v>
  <v type="int" >        2 </v>
 </varray>
 <kpoints>
  <generation param="Monkhorst-Pack">
   <v type="int" name="divisions">      16       16       16 </v>
   <v name="usershift">      0.00000000       0.00000000       0.00000000 </v>
   <v name="genvec1">      0.06250000       0.00000000       0.00000000 </v>
   <v name="genvec2">      0.00000000       0.06250000       0.00000000 </v>
   <v name="genvec3">      0.00000000       0.00000000       0.06250000 </v>
   <v name="shift">      0.50000000       0.50000000       0.50000000 </v>
  </generation>
  <varray name="kpointlist" >
   <v>       0.03125000       0.03125000       0.03125000 </v>
   <v>       0.09375000       0.03125000       0.03125000 </v>
   <v>       0.15625000       0.03125000       0.03125000 </v>
   <v>       0.21875000       0.03125000       0.03125000 </v>
   <v>       0.28125000       0.03125000       0.03125000 </v>
   <v>       0.34375000       0.03125000       0.03125000 </v>
   <v>       0.40625000       0.03125000       0.03125000 </v>
   <v>       0.46875000       0.03125000       0.03125000 </v>
   <v>      -0.46875000       0.03125000       0.03125000 </v>
   <v>      -0.40625000       0.03125000       0.03125000 </v>
   <v>      -0.34375000       0.03125000       0.03125000 </v>
   <v>      -0.28125000       0.03125000       0.03125000 </v>
   <v>      -0.21875000       0.03125000       0.03125000 </v>
   <v>      -0.15625000       0.03125000       0.03125000 </v>
   <v>      -0.09375000       0.03125000       0.03125000 </v>
   <v>      -0.03125000       0.03125000       0.03125000 </v>
   <v>       0.09375000       0.09375000       0.03125000 </v>
   <v>       0.15625000       0.09375000       0.03125000 </v>
   <v>       0.21875000       0.09375000       0.03125000 </v>
   <v>       0.28125000       0.09375000       0.03125000 </v>
   <v>       0.34375000       0.09375000       0.03125000 </v>
   <v>       0.40625000       0.09375000       0.03125000 </v>
   <v>       0.46875000       0.09375000       0.03125000 </v>
   <v>      -0.46875000       0.09375000       0.03125000 </v>
   <v>      -0.40625000       0.09375000       0.03125000 </v>
   <v>      -0.34375000       0.09375000       0.03125000 </v>
   <v>      -0.28125000       0.09375000       0.03125000 </v>
   <v>      -0.21875000       0.09375000       0.03125000 </v>
   <v>      -0.15625000       0.09375000       0.03125000 </v>
   <v>      -0.09375000       0.09375000       0.03125000 </v>
   <v>      -0.03125000       0.09375000       0.03125000 </v>
   <v>       0.15625000       0.15625000       0.03125000 </v>
   <v>       0.21875000       0.15625000       0.03125000 </v>
   <v>       0.28125000       0.15625000       0.03125000 </v>
   <v>       0.34375000       0.15625000       0.03125000 </v>
   <v>       0.40625000       0.15625000       0.03125000 </v>
   <v>       0.46875000       0.15625000       0.03125000 </v>
   <v>      -0.46875000       0.15625000       0.03125000 </v>
   <v>      -0.40625000       0.15625000       0.03125000 </v>
   <v>      -0.34375000       0.15625000       0.03125000 </v>
   <v>      -0.28125000       0.15625000       0.03125000 </v>
   <v>      -0.21875000       0.15625000       0.03125000 </v>
   <v>      -0.15625000       0.15625000       0.03125000 </v>
   <v>      -0.09375000       0.15625000       0.03125000 </v>
   <v>      -0.03125000       0.15625000       0.03125000 </v>
   <v>       0.21875000       0.21875000       0.03125000 </v>
   <v>       0.28125000       0.21875000       0.03125000 </v>
   <v>       0.34375000       0.21875000       0.03125000 </v>
   <v>       0.40625000       0.21875000       0.03125000 </v>
   <v>       0.46875000       0.21875000       0.03125000 </v>
   <v>      -0.46875000       0.21875000       0.03125000 </v>
   <v>      -0.40625000       0.21875000       0.03125000 </v>
   <v>      -0.34375000       0.21875000       0.03125000 </v>
   <v>      -0.28125000       0.21875000       0.03125000 </v>
   <v>      -0.21875000       0.21875000       0.03125000 </v>
   <v>      -0.15625000       0.21875000       0.03125000 </v>
   <v>      -0.09375000       0.21875000       0.03125000 </v>
   <v>      -0.03125000       0.21875000       0.03125000 </v>
   <v>       0.28125000       0.28125000       0.03125000 </v>
   <v>       0.34375000       0.28125000       0.03125000 </v>
   <v>       0.40625000       0.28125000       0.03125000 </v>
   <v>       0.46875000       0.28125000       0.03125000 </v>
   <v>      -0.46875000       0.28125000       0.03125000 </v>
   <v>      -0.40625000       0.28125000       0.03125000 </v>
   <v>      -0.34375000       0.28125000       0.03125000 </v>
   <v>      -0.28125000       0.28125000       0.03125000 </v>
   <v>      -0.21875000       0.28125000       0.03125000 </v>
   <v>      -0.15625000       0.28125000       0.03125000 </v>
   <v>      -0.09375000       0.28125000       0.03125000 </v>
   <v>      -0.03125000       0.28125000       0.03125000 </v>
   <v>       0.34375000       0.34375000       0.03125000 </v>
   <v>       0.40625000       0.34375000       0.03125000 </v>
   <v>       0.46875000       0.34375000       0.03125000 </v>
   <v>      -0.46875000       0.34375000       0.03125000 </v>
   <v>      -0.40625000       0.34375000       0.03125000 </v>
   <v>      -0.34375000       0.34375000       0.03125000 </v>
   <v>      -0.28125000       0.34375000       0.03125000 </v>
   <v>      -0.21875000       0.34375000       0.03125000 </v>
   <v>      -0.15625000       0.34375000       0.03125000 </v>
   <v>      -0.09375000       0.34375000       0.03125000 </v>
   <v>      -0.03125000       0.34375000       0.03125000 </v>
   <v>       0.40625000       0.40625000       0.03125000 </v>
   <v>       0.46875000       0.40625000       0.03125000 </v>
   <v>      -0.46875000       0.40625000       0.03125000 </v>
   <v>      -0.40625000       0.40625000       0.03125000 </v>
   <v>      -0.34375000       0.40625000       0.03125000 </v>
   <v>      -0.28125000       0.40625000       0.03125000 </v>
   <v>      -0.21875000       0.40625000       0.03125000 </v>
   <v>      -0.15625000       0.40625000       0.03125000 </v>
   <v>      -0.09375000       0.40625000       0.03125000 </v>
   <v>      -0.03125000       0.40625000       0.03125000 </v>
   <v>       0.46875000       0.46875000       0.03125000 </v>
   <v>      -0.46875000       0.46875000       0.03125000 </v>
   <v>      -0.40625000       0.46875000       0.03125000 </v>
   <v>      -0.34375000       0.46875000       0.03125000 </v>
   <v>      -0.28125000       0.46875000       0.03125000 </v>
   <v>      -0.21875000       0.46875000       0.03125000 </v>
   <v>      -0.15625000       0.46875000       0.03125000 </v>
   <v>      -0.09375000       0.46875000       0.03125000 </v>
   <v>      -0.03125000       0.46875000       0.03125000 </v>
   <v>      -0.46875000      -0.46875000       0.03125000 </v>
   <v>      -0.40625000      -0.46875000       0.03125000 </v>
   <v>      -0.34375000      -0.46875000       0.03125000 </v>
   <v>      -0.28125000      -0.46875000       0.03125000 </v>
   <v>      -0.21875000      -0.46875000       0.03125000 </v>
   <v>      -0.15625000      -0.46875000       0.03125000 </v>
   <v>      -0.09375000      -0.46875000       0.03125000 </v>
   <v>      -0.40625000      -0.40625000       0.03125000 </v>
   <v>      -0.34375000      -0.40625000       0.03125000 </v>
   <v>      -0.28125000      -0.40625000       0.03125000 </v>
   <v>      -0.21875000      -0.40625000       0.03125000 </v>
   <v>      -0.15625000      -0.40625000       0.03125000 </v>
   <v>      -0.09375000      -0.40625000       0.03125000 </v>
   <v>      -0.34375000      -0.34375000       0.03125000 </v>
   <v>      -0.28125000      -0.34375000       0.03125000 </v>
   <v>      -0.21875000      -0.34375000       0.03125000 </v>
   <v>      -0.15625000      -0.34375000       0.03125000 </v>
   <v>      -0.09375000      -0.34375000       0.03125000 </v>
   <v>      -0.28125000      -0.28125000       0.03125000 </v>
   <v>      -0.21875000      -0.28125000       0.03125000 </v>
   <v>      -0.15625000      -0.28125000       0.03125000 </v>
   <v>      -0.09375000      -0.28125000       0.03125000 </v>
   <v>      -0.21875000      -0.21875000       0.03125000 </v>
   <v>      -0.15625000      -0.21875000       0.03125000 </v>
   <v>      -0.09375000      -0.21875000       0.03125000 </v>
   <v>      -0.15625000      -0.15625000       0.03125000 </v>
   <v>      -0.09375000      -0.15625000       0.03125000 </v>
   <v>      -0.09375000      -0.09375000       0.03125000 </v>
   <v>       0.09375000       0.09375000       0.09375000 </v>
   <v>       0.15625000       0.09375000       0.09375000 </v>
   <v>       0.21875000       0.09375000       0.09375000 </v>
   <v>       0.28125000       0.09375000       0.09375000 </v>
   <v>       0.34375000       0.09375000       0.09375000 </v>
   <v>       0.40625000       0.09375000       0.09375000 </v>
   <v>       0.46875000       0.09375000       0.09375000 </v>
   <v>      -0.46875000       0.09375000       0.09375000 </v>
   <v>      -0.40625000       0.09375000       0.09375000 </v>
   <v>      -0.34375000       0.09375000       0.09375000 </v>
   <v>      -0.28125000       0.09375000       0.09375000 </v>
   <v>      -0.21875000       0.09375000       0.09375000 </v>
   <v>      -0.15625000       0.09375000       0.09375000 </v>
   <v>      -0.09375000       0.09375000       0.09375000 </v>
   <v>       0.15625000       0.15625000       0.09375000 </v>
   <v>       0.21875000       0.15625000       0.09375000 </v>
   <v>       0.28125000       0.15625000       0.09375000 </v>
   <v>       0.34375000       0.15625000       0.09375000 </v>
   <v>       0.40625000       0.15625000       0.09375000 </v>
   <v>       0.46875000       0.15625000       0.09375000 </v>
   <v>      -0.46875000       0.15625000       0.09375000 </v>
   <v>      -0.40625000       0.15625000       0.09375000 </v>
   <v>      -0.34375000       0.15625000       0.09375000 </v>
   <v>      -0.28125000       0.15625000       0.09375000 </v>
   <v>      -0.21875000       0.15625000       0.09375000 </v>
   <v>      -0.15625000       0.15625000       0.09375000 </v>
   <v>      -0.09375000       0.15625000       0.09375000 </v>
   <v>       0.21875000       0.21875000       0.09375000 </v>
   <v>       0.28125000       0.21875000       0.09375000 </v>
   <v>       0.34375000       0.21875000       0.09375000 </v>
   <v>       0.40625000       0.21875000       0.09375000 </v>
   <v>       0.46875000       0.21875000       0.09375000 </v>
   <v>      -0.46875000       0.21875000       0.09375000 </v>
   <v>      -0.40625000       0.21875000       0.09375000 </v>
   <v>      -0.34375000       0.21875000       0.09375000 </v>
   <v>      -0.28125000       0.21875000       0.09375000 </v>
   <v>      -0.21875000       0.21875000       0.09375000 </v>
   <v>      -0.15625000       0.21875000       0.09375000 </v>
   <v>      -0.09375000       0.21875000       0.09375000 </v>
   <v>       0.28125000       0.28125000       0.09375000 </v>
   <v>       0.34375000       0.28125000       0.09375000 </v>
   <v>       0.40625000       0.28125000       0.09375000 </v>
   <v>       0.46875000       0.28125000       0.09375000 </v>
   <v>      -0.46875000       0.28125000       0.09375000 </v>
   <v>      -0.40625000       0.28125000       0.09375000 </v>
   <v>      -0.34375000       0.28125000       0.09375000 </v>
   <v>      -0.28125000       0.28125000       0.09375000 </v>
   <v>      -0.21875000       0.28125000       0.09375000 </v>
   <v>      -0.15625000       0.28125000       0.09375000 </v>
   <v>      -0.09375000       0.28125000       0.09375000 </v>
   <v>       0.34375000       0.34375000       0.09375000 </v>
   <v>       0.40625000       0.34375000       0.09375000 </v>
   <v>       0.46875000       0.34375000       0.09375000 </v>
   <v>      -0.46875000       0.34375000       0.09375000 </v>
   <v>      -0.40625000       0.34375000       0.09375000 </v>
   <v>      -0.34375000       0.34375000       0.09375000 </v>
   <v>      -0.28125000       0.34375000       0.09375000 </v>
   <v>      -0.21875000       0.34375000       0.09375000 </v>
   <v>      -0.15625000       0.34375000       0.09375000 </v>
   <v>      -0.09375000       0.34375000       0.09375000 </v>
   <v>       0.40625000       0.40625000       0.09375000 </v>
   <v>       0.46875000       0.40625000       0.09375000 </v>
   <v>      -0.46875000       0.40625000       0.09375000 </v>
   <v>      -0.40625000       0.40625000       0.09375000 </v>
   <v>      -0.34375000       0.40625000       0.09375000 </v>
   <v>      -0.28125000       0.40625000       0.09375000 </v>
   <v>      -0.21875000       0.40625000       0.09375000 </v>
   <v>      -0.15625000       0.40625000       0.09375000 </v>
   <v>      -0.09375000       0.40625000       0.09375000 </v>
   <v>       0.46875000       0.46875000       0.09375000 </v>
   <v>      -0.46875000       0.46875000       0.09375000 </v>
   <v>      -0.40625000       0.46875000       0.09375000 </v>
   <v>      -0.34375000       0.46875000       0.09375000 </v>
   <v>      -0.28125000       0.46875000       0.09375000 </v>
   <v>      -0.21875000       0.46875000       0.09375000 </v>
   <v>      -0.15625000       0.46875000       0.09375000 </v>
   <v>      -0.09375000       0.46875000       0.09375000 </v>
   <v>      -0.46875000      -0.46875000       0.09375000 </v>
   <v>      -0.40625000      -0.46875000       0.09375000 </v>
   <v>      -0.34375000      -0.46875000       0.09375000 </v>
   <v>      -0.28125000      -0.46875000       0.09375000 </v>
   <v>      -0.21875000      -0.46875000       0.09375000 </v>
   <v>      -0.15625000      -0.46875000       0.09375000 </v>
   <v>      -0.40625000      -0.40625000       0.09375000 </v>
   <v>      -0.34375000      -0.40625000       0.09375000 </v>
   <v>      -0.28125000      -0.40625000       0.09375000 </v>
   <v>      -0.21875000      -0.40625000       0.09375000 </v>
   <v>      -0.15625000      -0.40625000       0.09375000 </v>
   <v>      -0.34375000      -0.34375000       0.09375000 </v>
   <v>      -0.28125000      -0.34375000       0.09375000 </v>
   <v>      -0.21875000      -0.34375000       0.09375000 </v>
   <v>      -0.15625000      -0.34375000       0.09375000 </v>
   <v>      -0.28125000      -0.28125000       0.09375000 </v>
   <v>      -0.21875000      -0.28125000       0.09375000 </v>
   <v>      -0.15625000      -0.28125000       0.09375000 </v>
   <v>      -0.21875000      -0.21875000       0.09375000 </v>
   <v>      -0.15625000      -0.21875000       0.09375000 </v>
   <v>      -0.15625000      -0.15625000       0.09375000 </v>
   <v>       0.15625000       0.15625000       0.15625000 </v>
   <v>       0.21875000       0.15625000       0.15625000 </v>
   <v>       0.28125000       0.15625000       0.15625000 </v>
   <v>       0.34375000       0.15625000       0.15625000 </v>
   <v>       0.40625000       0.15625000       0.15625000 </v>
   <v>       0.46875000       0.15625000       0.15625000 </v>
   <v>      -0.46875000       0.15625000       0.15625000 </v>
   <v>      -0.40625000       0.15625000       0.15625000 </v>
   <v>      -0.34375000       0.15625000       0.15625000 </v>
   <v>      -0.28125000       0.15625000       0.15625000 </v>
   <v>      -0.21875000       0.15625000       0.15625000 </v>
   <v>      -0.15625000       0.15625000       0.15625000 </v>
   <v>       0.21875000       0.21875000       0.15625000 </v>
   <v>       0.28125000       0.21875000       0.15625000 </v>
   <v>       0.34375000       0.21875000       0.15625000 </v>
   <v>       0.40625000       0.21875000       0.15625000 </v>
   <v>       0.46875000       0.21875000       0.15625000 </v>
   <v>      -0.46875000       0.21875000       0.15625000 </v>
   <v>      -0.40625000       0.21875000       0.15625000 </v>
   <v>      -0.34375000       0.21875000       0.15625000 </v>
   <v>      -0.28125000       0.21875000       0.15625000 </v>
   <v>      -0.21875000       0.21875000       0.15625000 </v>
   <v>      -0.15625000       0.21875000       0.15625000 </v>
   <v>       0.28125000       0.28125000       0.15625000 </v>
   <v>       0.34375000       0.28125000       0.15625000 </v>
   <v>       0.40625000       0.28125000       0.15625000 </v>
   <v>       0.46875000       0.28125000       0.15625000 </v>
   <v>      -0.46875000       0.28125000       0.15625000 </v>
   <v>      -0.40625000       0.28125000       0.15625000 </v>
   <v>      -0.34375000       0.28125000       0.15625000 </v>
   <v>      -0.28125000       0.28125000       0.15625000 </v>
   <v>      -0.21875000       0.28125000       0.15625000 </v>
   <v>      -0.15625000       0.28125000       0.15625000 </v>
   <v>       0.34375000       0.34375000       0.15625000 </v>
   <v>       0.40625000       0.34375000       0.15625000 </v>
   <v>       0.46875000       0.34375000       0.15625000 </v>
   <v>      -0.46875000       0.34375000       0.15625000 </v>
   <v>      -0.40625000       0.34375000       0.15625000 </v>
   <v>      -0.34375000       0.34375000       0.15625000 </v>
   <v>      -0.28125000       0.34375000       0.15625000 </v>
   <v>      -0.21875000       0.34375000       0.15625000 </v>
   <v>      -0.15625000       0.34375000       0.15625000 </v>
   <v>       0.40625000       0.40625000       0.15625000 </v>
   <v>       0.46875000       0.40625000       0.15625000 </v>
   <v>      -0.46875000       0.40625000       0.15625000 </v>
   <v>      -0.40625000       0.40625000       0.15625000 </v>
   <v>      -0.34375000       0.40625000       0.15625000 </v>
   <v>      -0.28125000       0.40625000       0.15625000 </v>
   <v>      -0.21875000       0.40625000       0.15625000 </v>
   <v>      -0.15625000       0.40625000       0.15625000 </v>
   <v>       0.46875000       0.46875000       0.15625000 </v>
   <v>      -0.46875000       0.46875000       0.15625000 </v>
   <v>      -0.40625000       0.46875000       0.15625000 </v>
   <v>      -0.34375000       0.46875000       0.15625000 </v>
   <v>      -0.28125000       0.46875000       0.15625000 </v>
   <v>      -0.21875000       0.46875000       0.15625000 </v>
   <v>      -0.15625000       0.46875000       0.15625000 </v>
   <v>      -0.46875000      -0.46875000       0.15625000 </v>
   <v>      -0.40625000      -0.46875000       0.15625000 </v>
   <v>      -0.34375000      -0.46875000       0.15625000 </v>
   <v>      -0.28125000      -0.46875000       0.15625000 </v>
   <v>      -0.21875000      -0.46875000       0.15625000 </v>
   <v>      -0.40625000      -0.40625000       0.15625000 </v>
   <v>      -0.34375000      -0.40625000       0.15625000 </v>
   <v>      -0.28125000      -0.40625000       0.15625000 </v>
   <v>      -0.21875000      -0.40625000       0.15625000 </v>
   <v>      -0.34375000      -0.34375000       0.15625000 </v>
   <v>      -0.28125000      -0.34375000       0.15625000 </v>
   <v>      -0.21875000      -0.34375000       0.15625000 </v>
   <v>      -0.28125000      -0.28125000       0.15625000 </v>
   <v>      -0.21875000      -0.28125000       0.15625000 </v>
   <v>      -0.21875000      -0.21875000       0.15625000 </v>
   <v>       0.21875000       0.21875000       0.21875000 </v>
   <v>       0.28125000       0.21875000       0.21875000 </v>
   <v>       0.34375000       0.21875000       0.21875000 </v>
   <v>       0.40625000       0.21875000       0.21875000 </v>
   <v>       0.46875000       0.21875000       0.21875000 </v>
   <v>      -0.46875000       0.21875000       0.21875000 </v>
   <v>      -0.40625000       0.21875000       0.21875000 </v>
   <v>      -0.34375000       0.21875000       0.21875000 </v>
   <v>      -0.28125000       0.21875000       0.21875000 </v>
   <v>      -0.21875000       0.21875000       0.21875000 </v>
   <v>       0.28125000       0.28125000       0.21875000 </v>
   <v>       0.34375000       0.28125000       0.21875000 </v>
   <v>       0.40625000       0.28125000       0.21875000 </v>
   <v>       0.46875000       0.28125000       0.21875000 </v>
   <v>      -0.46875000       0.28125000       0.21875000 </v>
   <v>      -0.40625000       0.28125000       0.21875000 </v>
   <v>      -0.34375000       0.28125000       0.21875000 </v>
   <v>      -0.28125000       0.28125000       0.21875000 </v>
   <v>      -0.21875000       0.28125000       0.21875000 </v>
   <v>       0.34375000       0.34375000       0.21875000 </v>
   <v>       0.40625000       0.34375000       0.21875000 </v>
   <v>       0.46875000       0.34375000       0.21875000 </v>
   <v>      -0.46875000       0.34375000       0.21875000 </v>
   <v>      -0.40625000       0.34375000       0.21875000 </v>
   <v>      -0.34375000       0.34375000       0.21875000 </v>
   <v>      -0.28125000       0.34375000       0.21875000 </v>
   <v>      -0.21875000       0.34375000       0.21875000 </v>
   <v>       0.40625000       0.40625000       0.21875000 </v>
   <v>       0.46875000       0.40625000       0.21875000 </v>
   <v>      -0.46875000       0.40625000       0.21875000 </v>
   <v>      -0.40625000       0.40625000       0.21875000 </v>
   <v>      -0.34375000       0.40625000       0.21875000 </v>
   <v>      -0.28125000       0.40625000       0.21875000 </v>
   <v>      -0.21875000       0.40625000       0.21875000 </v>
   <v>       0.46875000       0.46875000       0.21875000 </v>
   <v>      -0.46875000       0.46875000       0.21875000 </v>
   <v>      -0.40625000       0.46875000       0.21875000 </v>
   <v>      -0.34375000       0.46875000       0.21875000 </v>
   <v>      -0.28125000       0.46875000       0.21875000 </v>
   <v>      -0.21875000       0.46875000       0.21875000 </v>
   <v>      -0.46875000      -0.46875000       0.21875000 </v>
   <v>      -0.40625000      -0.46875000       0.21875000 </v>
   <v>      -0.34375000      -0.46875000       0.21875000 </v>
   <v>      -0.28125000      -0.46875000       0.21875000 </v>
   <v>      -0.40625000      -0.40625000       0.21875000 </v>
   <v>      -0.34375000      -0.40625000       0.21875000 </v>
   <v>      -0.28125000      -0.40625000       0.21875000 </v>
   <v>      -0.34375000      -0.34375000       0.21875000 </v>
   <v>      -0.28125000      -0.34375000       0.21875000 </v>
   <v>      -0.28125000      -0.28125000       0.21875000 </v>
   <v>       0.28125000       0.28125000       0.28125000 </v>
   <v>       0.34375000       0.28125000       0.28125000 </v>
   <v>       0.40625000       0.28125000       0.28125000 </v>
   <v>       0.46875000       0.28125000       0.28125000 </v>
   <v>      -0.46875000       0.28125000       0.28125000 </v>
   <v>      -0.40625000       0.28125000       0.28125000 </v>
   <v>      -0.34375000       0.28125000       0.28125000 </v>
   <v>      -0.28125000       0.28125000       0.28125000 </v>
   <v>       0.34375000       0.34375000       0.28125000 </v>
   <v>       0.40625000       0.34375000       0.28125000 </v>
   <v>       0.46875000       0.34375000       0.28125000 </v>
   <v>      -0.46875000       0.34375000       0.28125000 </v>
   <v>      -0.40625000       0.34375000       0.28125000 </v>
   <v>      -0.34375000       0.34375000       0.28125000 </v>
   <v>      -0.28125000       0.34375000       0.28125000 </v>
   <v>       0.40625000       0.40625000       0.28125000 </v>
   <v>       0.46875000       0.40625000       0.28125000 </v>
   <v>      -0.46875000       0.40625000       0.28125000 </v>
   <v>      -0.40625000       0.40625000       0.28125000 </v>
   <v>      -0.34375000       0.40625000       0.28125000 </v>
   <v>      -0.28125000       0.40625000       0.28125000 </v>
   <v>       0.46875000       0.46875000       0.28125000 </v>
   <v>      -0.46875000       0.46875000       0.28125000 </v>
   <v>      -0.40625000       0.46875000       0.28125000 </v>
   <v>      -0.34375000       0.46875000       0.28125000 </v>
   <v>      -0.28125000       0.46875000       0.28125000 </v>
   <v>      -0.46875000      -0.46875000       0.28125000 </v>
   <v>      -0.40625000      -0.46875000       0.28125000 </v>
   <v>      -0.34375000      -0.46875000       0.28125000 </v>
   <v>      -0.40625000      -0.40625000       0.28125000 </v>
   <v>      -0.34375000      -0.40625000       0.28125000 </v>
   <v>      -0.34375000      -0.34375000       0.28125000 </v>
   <v>       0.34375000       0.34375000       0.34375000 </v>
   <v>       0.40625000       0.34375000       0.34375000 </v>
   <v>       0.46875000       0.34375000       0.34375000 </v>
   <v>      -0.46875000       0.34375000       0.34375000 </v>
   <v>      -0.40625000       0.34375000       0.34375000 </v>
   <v>      -0.34375000       0.34375000       0.34375000 </v>
   <v>       0.40625000       0.40625000       0.34375000 </v>
   <v>       0.46875000       0.40625000       0.34375000 </v>
   <v>      -0.46875000       0.40625000       0.34375000 </v>
   <v>      -0.40625000       0.40625000       0.34375000 </v>
   <v>      -0.34375000       0.40625000       0.34375000 </v>
   <v>       0.46875000       0.46875000       0.34375000 </v>
   <v>      -0.46875000       0.46875000       0.34375000 </v>
   <v>      -0.40625000       0.46875000       0.34375000 </v>
   <v>      -0.34375000       0.46875000       0.34375000 </v>
   <v>      -0.46875000      -0.46875000       0.34375000 </v>
   <v>      -0.40625000      -0.46875000       0.34375000 </v>
   <v>      -0.40625000      -0.40625000       0.34375000 </v>
   <v>       0.40625000       0.40625000       0.40625000 </v>
   <v>       0.46875000       0.40625000       0.40625000 </v>
   <v>      -0.46875000       0.40625000       0.40625000 </v>
   <v>      -0.40625000       0.40625000       0.40625000 </v>
   <v>       0.46875000       0.46875000       0.40625000 </v>
   <v>      -0.46875000       0.46875000       0.40625000 </v>
   <v>      -0.40625000       0.46875000       0.40625000 </v>
   <v>      -0.46875000      -0.46875000       0.40625000 </v>
   <v>       0.46875000       0.46875000       0.46875000 </v>
   <v>      -0.46875000       0.46875000       0.46875000 </v>
  </varray>
  <varray name="weights" >
   <v>       0.00048828 </v>
   <v>       0.00146484 </v>
   <v>       0.00146484 </v>
   <v>       0.00146484 </v>
   <v>       0.00146484 </v>
   <v>       0.00146484 </v>
   <v>       0.00146484 </v>
   <v>       0.00146484 </v>
   <v>       0.00146484 </v>
   <v>       0.00146484 </v>
   <v>       0.00146484 </v>
   <v>       0.00146484 </v>
   <v>       0.00146484 </v>
   <v>       0.00146484 </v>
   <v>       0.00146484 </v>
   <v>       0.00146484 </v>
   <v>       0.00146484 </v>
   <v>       0.00292969 </v>
   <v>       0.00292969 </v>
   <v>       0.00292969 </v>
   <v>       0.00292969 </v>
   <v>       0.00292969 </v>
   <v>       0.00292969 </v>
   <v>       0.00292969 </v>
   <v>       0.00292969 </v>
   <v>       0.00292969 </v>
   <v>       0.00292969 </v>
   <v>       0.00292969 </v>
   <v>       0.00292969 </v>
   <v>       0.00292969 </v>
   <v>       0.00292969 </v>
   <v>       0.00146484 </v>
   <v>       0.00292969 </v>
   <v>       0.00292969 </v>
   <v>       0.00292969 </v>
   <v>       0.00292969 </v>
   <v>       0.00292969 </v>
   <v>       0.00292969 </v>
   <v>       0.00292969 </v>
   <v>       0.00292969 </v>
   <v>       0.00292969 </v>
   <v>       0.00292969 </v>
   <v>       0.00292969 </v>
   <v>       0.00292969 </v>
   <v>       0.00292969 </v>
   <v>       0.00146484 </v>
   <v>       0.00292969 </v>
   <v>       0.00292969 </v>
   <v>       0.00292969 </v>
   <v>       0.00292969 </v>
   <v>       0.00292969 </v>
   <v>       0.00292969 </v>
   <v>       0.00292969 </v>
   <v>       0.00292969 </v>
   <v>       0.00292969 </v>
   <v>       0.00292969 </v>
   <v>       0.00292969 </v>
   <v>       0.00292969 </v>
   <v>       0.00146484 </v>
   <v>       0.00292969 </v>
   <v>       0.00292969 </v>
   <v>       0.00292969 </v>
   <v>       0.00292969 </v>
   <v>       0.00292969 </v>
   <v>       0.00292969 </v>
   <v>       0.00292969 </v>
   <v>       0.00292969 </v>
   <v>       0.00292969 </v>
   <v>       0.00292969 </v>
   <v>       0.00292969 </v>
   <v>       0.00146484 </v>
   <v>       0.00292969 </v>
   <v>       0.00292969 </v>
   <v>       0.00292969 </v>
   <v>       0.00292969 </v>
   <v>       0.00292969 </v>
   <v>       0.00292969 </v>
   <v>       0.00292969 </v>
   <v>       0.00292969 </v>
   <v>       0.00292969 </v>
   <v>       0.00292969 </v>
   <v>       0.00146484 </v>
   <v>       0.00292969 </v>
   <v>       0.00292969 </v>
   <v>       0.00292969 </v>
   <v>       0.00292969 </v>
   <v>       0.00292969 </v>
   <v>       0.00292969 </v>
   <v>       0.00292969 </v>
   <v>       0.00292969 </v>
   <v>       0.00292969 </v>
   <v>       0.00146484 </v>
   <v>       0.00292969 </v>
   <v>       0.00292969 </v>
   <v>       0.00292969 </v>
   <v>       0.00292969 </v>
   <v>       0.00292969 </v>
   <v>       0.00292969 </v>
   <v>       0.00292969 </v>
   <v>       0.00292969 </v>
   <v>       0.00146484 </v>
   <v>       0.00292969 </v>
   <v>       0.00292969 </v>
   <v>       0.00292969 </v>
   <v>       0.00292969 </v>
   <v>       0.00292969 </v>
   <v>       0.00292969 </v>
   <v>       0.00146484 </v>
   <v>       0.00292969 </v>
   <v>       0.00292969 </v>
   <v>       0.00292969 </v>
   <v>       0.00292969 </v>
   <v>       0.00292969 </v>
   <v>       0.00146484 </v>
   <v>       0.00292969 </v>
   <v>       0.00292969 </v>
   <v>       0.00292969 </v>
   <v>       0.00292969 </v>
   <v>       0.00146484 </v>
   <v>       0.00292969 </v>
   <v>       0.00292969 </v>
   <v>       0.00292969 </v>
   <v>       0.00146484 </v>
   <v>       0.00292969 </v>
   <v>       0.00292969 </v>
   <v>       0.00146484 </v>
   <v>       0.00292969 </v>
   <v>       0.00146484 </v>
   <v>       0.00048828 </v>
   <v>       0.00146484 </v>
   <v>       0.00146484 </v>
   <v>       0.00146484 </v>
   <v>       0.00146484 </v>
   <v>       0.00146484 </v>
   <v>       0.00146484 </v>
   <v>       0.00146484 </v>
   <v>       0.00146484 </v>
   <v>       0.00146484 </v>
   <v>       0.00146484 </v>
   <v>       0.00146484 </v>
   <v>       0.00146484 </v>
   <v>       0.00146484 </v>
   <v>       0.00146484 </v>
   <v>       0.00292969 </v>
   <v>       0.00292969 </v>
   <v>       0.00292969 </v>
   <v>       0.00292969 </v>
   <v>       0.00292969 </v>
   <v>       0.00292969 </v>
   <v>       0.00292969 </v>
   <v>       0.00292969 </v>
   <v>       0.00292969 </v>
   <v>       0.00292969 </v>
   <v>       0.00292969 </v>
   <v>       0.00292969 </v>
   <v>       0.00146484 </v>
   <v>       0.00292969 </v>
   <v>       0.00292969 </v>
   <v>       0.00292969 </v>
   <v>       0.00292969 </v>
   <v>       0.00292969 </v>
   <v>       0.00292969 </v>
   <v>       0.00292969 </v>
   <v>       0.00292969 </v>
   <v>       0.00292969 </v>
   <v>       0.00292969 </v>
   <v>       0.00292969 </v>
   <v>       0.00146484 </v>
   <v>       0.00292969 </v>
   <v>       0.00292969 </v>
   <v>       0.00292969 </v>
   <v>       0.00292969 </v>
   <v>       0.00292969 </v>
   <v>       0.00292969 </v>
   <v>       0.00292969 </v>
   <v>       0.00292969 </v>
   <v>       0.00292969 </v>
   <v>       0.00292969 </v>
   <v>       0.00146484 </v>
   <v>       0.00292969 </v>
   <v>       0.00292969 </v>
   <v>       0.00292969 </v>
   <v>       0.00292969 </v>
   <v>       0.00292969 </v>
   <v>       0.00292969 </v>
   <v>       0.00292969 </v>
   <v>       0.00292969 </v>
   <v>       0.00292969 </v>
   <v>       0.00146484 </v>
   <v>       0.00292969 </v>
   <v>       0.00292969 </v>
   <v>       0.00292969 </v>
   <v>       0.00292969 </v>
   <v>       0.00292969 </v>
   <v>       0.00292969 </v>
   <v>       0.00292969 </v>
   <v>       0.00292969 </v>
   <v>       0.00146484 </v>
   <v>       0.00292969 </v>
   <v>       0.00292969 </v>
   <v>       0.00292969 </v>
   <v>       0.00292969 </v>
   <v>       0.00292969 </v>
   <v>       0.00292969 </v>
   <v>       0.00292969 </v>
   <v>       0.00146484 </v>
   <v>       0.00292969 </v>
   <v>       0.00292969 </v>
   <v>       0.00292969 </v>
   <v>       0.00292969 </v>
   <v>       0.00292969 </v>
   <v>       0.00146484 </v>
   <v>       0.00292969 </v>
   <v>       0.00292969 </v>
   <v>       0.00292969 </v>
   <v>       0.00292969 </v>
   <v>       0.00146484 </v>
   <v>       0.00292969 </v>
   <v>       0.00292969 </v>
   <v>       0.00292969 </v>
   <v>       0.00146484 </v>
   <v>       0.00292969 </v>
   <v>       0.00292969 </v>
   <v>       0.00146484 </v>
   <v>       0.00292969 </v>
   <v>       0.00146484 </v>
   <v>       0.00048828 </v>
   <v>       0.00146484 </v>
   <v>       0.00146484 </v>
   <v>       0.00146484 </v>
   <v>       0.00146484 </v>
   <v>       0.00146484 </v>
   <v>       0.00146484 </v>
   <v>       0.00146484 </v>
   <v>       0.00146484 </v>
   <v>       0.00146484 </v>
   <v>       0.00146484 </v>
   <v>       0.00146484 </v>
   <v>       0.00146484 </v>
   <v>       0.00292969 </v>
   <v>       0.00292969 </v>
   <v>       0.00292969 </v>
   <v>       0.00292969 </v>
   <v>       0.00292969 </v>
   <v>       0.00292969 </v>
   <v>       0.00292969 </v>
   <v>       0.00292969 </v>
   <v>       0.00292969 </v>
   <v>       0.00292969 </v>
   <v>       0.00146484 </v>
   <v>       0.00292969 </v>
   <v>       0.00292969 </v>
   <v>       0.00292969 </v>
   <v>       0.00292969 </v>
   <v>       0.00292969 </v>
   <v>       0.00292969 </v>
   <v>       0.00292969 </v>
   <v>       0.00292969 </v>
   <v>       0.00292969 </v>
   <v>       0.00146484 </v>
   <v>       0.00292969 </v>
   <v>       0.00292969 </v>
   <v>       0.00292969 </v>
   <v>       0.00292969 </v>
   <v>       0.00292969 </v>
   <v>       0.00292969 </v>
   <v>       0.00292969 </v>
   <v>       0.00292969 </v>
   <v>       0.00146484 </v>
   <v>       0.00292969 </v>
   <v>       0.00292969 </v>
   <v>       0.00292969 </v>
   <v>       0.00292969 </v>
   <v>       0.00292969 </v>
   <v>       0.00292969 </v>
   <v>       0.00292969 </v>
   <v>       0.00146484 </v>
   <v>       0.00292969 </v>
   <v>       0.00292969 </v>
   <v>       0.00292969 </v>
   <v>       0.00292969 </v>
   <v>       0.00292969 </v>
   <v>       0.00292969 </v>
   <v>       0.00146484 </v>
   <v>       0.00292969 </v>
   <v>       0.00292969 </v>
   <v>       0.00292969 </v>
   <v>       0.00292969 </v>
   <v>       0.00146484 </v>
   <v>       0.00292969 </v>
   <v>       0.00292969 </v>
   <v>       0.00292969 </v>
   <v>       0.00146484 </v>
   <v>       0.00292969 </v>
   <v>       0.00292969 </v>
   <v>       0.00146484 </v>
   <v>       0.00292969 </v>
   <v>       0.00146484 </v>
   <v>       0.00048828 </v>
   <v>       0.00146484 </v>
   <v>       0.00146484 </v>
   <v>       0.00146484 </v>
   <v>       0.00146484 </v>
   <v>       0.00146484 </v>
   <v>       0.00146484 </v>
   <v>       0.00146484 </v>
   <v>       0.00146484 </v>
   <v>       0.00146484 </v>
   <v>       0.00146484 </v>
   <v>       0.00292969 </v>
   <v>       0.00292969 </v>
   <v>       0.00292969 </v>
   <v>       0.00292969 </v>
   <v>       0.00292969 </v>
   <v>       0.00292969 </v>
   <v>       0.00292969 </v>
   <v>       0.00292969 </v>
   <v>       0.00146484 </v>
   <v>       0.00292969 </v>
   <v>       0.00292969 </v>
   <v>       0.00292969 </v>
   <v>       0.00292969 </v>
   <v>       0.00292969 </v>
   <v>       0.00292969 </v>
   <v>       0.00292969 </v>
   <v>       0.00146484 </v>
   <v>       0.00292969 </v>
   <v>       0.00292969 </v>
   <v>       0.00292969 </v>
   <v>       0.00292969 </v>
   <v>       0.00292969 </v>
   <v>       0.00292969 </v>
   <v>       0.00146484 </v>
   <v>       0.00292969 </v>
   <v>       0.00292969 </v>
   <v>       0.00292969 </v>
   <v>       0.00292969 </v>
   <v>       0.00292969 </v>
   <v>       0.00146484 </v>
   <v>       0.00292969 </v>
   <v>       0.00292969 </v>
   <v>       0.00292969 </v>
   <v>       0.00146484 </v>
   <v>       0.00292969 </v>
   <v>       0.00292969 </v>
   <v>       0.00146484 </v>
   <v>       0.00292969 </v>
   <v>       0.00146484 </v>
   <v>       0.00048828 </v>
   <v>       0.00146484 </v>
   <v>       0.00146484 </v>
   <v>       0.00146484 </v>
   <v>       0.00146484 </v>
   <v>       0.00146484 </v>
   <v>       0.00146484 </v>
   <v>       0.00146484 </v>
   <v>       0.00146484 </v>
   <v>       0.00292969 </v>
   <v>       0.00292969 </v>
   <v>       0.00292969 </v>
   <v>       0.00292969 </v>
   <v>       0.00292969 </v>
   <v>       0.00292969 </v>
   <v>       0.00146484 </v>
   <v>       0.00292969 </v>
   <v>       0.00292969 </v>
   <v>       0.00292969 </v>
   <v>       0.00292969 </v>
   <v>       0.00292969 </v>
   <v>       0.00146484 </v>
   <v>       0.00292969 </v>
   <v>       0.00292969 </v>
   <v>       0.00292969 </v>
   <v>       0.00292969 </v>
   <v>       0.00146484 </v>
   <v>       0.00292969 </v>
   <v>       0.00292969 </v>
   <v>       0.00146484 </v>
   <v>       0.00292969 </v>
   <v>       0.00146484 </v>
   <v>       0.00048828 </v>
   <v>       0.00146484 </v>
   <v>       0.00146484 </v>
   <v>       0.00146484 </v>
   <v>       0.00146484 </v>
   <v>       0.00146484 </v>
   <v>       0.00146484 </v>
   <v>       0.00292969 </v>
   <v>       0.00292969 </v>
   <v>       0.00292969 </v>
   <v>       0.00292969 </v>
   <v>       0.00146484 </v>
   <v>       0.00292969 </v>
   <v>       0.00292969 </v>
   <v>       0.00292969 </v>
   <v>       0.00146484 </v>
   <v>       0.00292969 </v>
   <v>       0.00146484 </v>
   <v>       0.00048828 </v>
   <v>       0.00146484 </v>
   <v>       0.00146484 </v>
   <v>       0.00146484 </v>
   <v>       0.00146484 </v>
   <v>       0.00292969 </v>
   <v>       0.00292969 </v>
   <v>       0.00146484 </v>
   <v>       0.00048828 </v>
   <v>       0.00146484 </v>
  </varray>
 </kpoints>
 <parameters>
  <separator name="general" >
   <i type="string" name="SYSTEM">Si</i>
   <i type="logical" name="LCOMPAT"> F  </i>
  </separator>
  <separator name="electronic" >
   <i type="string" name="PREC">medium</i>
   <i name="ENMAX">    600.00000000</i>
   <i name="ENAUG">    322.06900000</i>
   <i name="EDIFF">      0.00000001</i>
   <i type="int" name="IALGO">    58</i>
   <i type="int" name="IWAVPR">    10</i>
   <i type="int" name="NBANDS">    16</i>
   <i name="NELECT">      8.00000000</i>
   <i type="int" name="TURBO">     0</i>
   <i type="int" name="IRESTART">     0</i>
   <i type="int" name="NREBOOT">     0</i>
   <i type="int" name="NMIN">     0</i>
   <i name="EREF">      0.00000000</i>
   <separator name="electronic smearing" >
    <i type="int" name="ISMEAR">     1</i>
    <i name="SIGMA">      0.20000000</i>
    <i name="KSPACING">      0.50000000</i>
    <i type="logical" name="KGAMMA"> T  </i>
   </separator>
   <separator name="electronic projectors" >
    <i type="logical" name="LREAL"> F  </i>
    <v name="ROPT">      0.00000000</v>
    <i type="int" name="LMAXPAW">  -100</i>
    <i type="int" name="LMAXMIX">     2</i>
    <i type="logical" name="NLSPLINE"> F  </i>
   </separator>
   <separator name="electronic startup" >
    <i type="int" name="ISTART">     0</i>
    <i type="int" name="ICHARG">     2</i>
    <i type="int" name="INIWAV">     1</i>
   </separator>
   <separator name="electronic spin" >
    <i type="int" name="ISPIN">     1</i>
    <i type="logical" name="LNONCOLLINEAR"> F  </i>
    <v name="MAGMOM">      1.00000000      1.00000000</v>
    <i name="NUPDOWN">     -1.00000000</i>
    <i type="logical" name="LSORBIT"> F  </i>
    <v name="SAXIS">      0.00000000      0.00000000      1.00000000</v>
    <i type="logical" name="LSPIRAL"> F  </i>
    <v name="QSPIRAL">      0.00000000      0.00000000      0.00000000</v>
    <i type="logical" name="LZEROZ"> F  </i>
   </separator>
   <separator name="electronic exchange-correlation" >
    <i type="logical" name="LASPH"> F  </i>
    <i type="logical" name="LMETAGGA"> F  </i>
   </separator>
   <separator name="electronic convergence" >
    <i type="int" name="NELM">    60</i>
    <i type="int" name="NELMDL">    -5</i>
    <i type="int" name="NELMIN">     2</i>
    <i name="ENINI">    600.00000000</i>
    <separator name="electronic convergence detail" >
     <i type="logical" name="LDIAG"> T  </i>
     <i type="logical" name="LSUBROT"> F  </i>
     <i name="WEIMIN">      0.00000000</i>
     <i name="EBREAK">      0.00000000</i>
     <i name="DEPER">      0.30000000</i>
     <i type="int" name="NRMM">     4</i>
     <i name="TIME">      0.40000000</i>
    </separator>
   </separator>
   <separator name="electronic mixer" >
    <i name="AMIX">      0.40000000</i>
    <i name="BMIX">      1.00000000</i>
    <i name="AMIN">      0.10000000</i>
    <i name="AMIX_MAG">      1.60000000</i>
    <i name="BMIX_MAG">      1.00000000</i>
    <separator name="electronic mixer details" >
     <i type="int" name="IMIX">     4</i>
     <i type="logical" name="MIXFIRST"> F  </i>
     <i type="int" name="MAXMIX">   -45</i>
     <i name="WC">    100.00000000</i>
     <i type="int" name="INIMIX">     1</i>
     <i type="int" name="MIXPRE">     1</i>
     <i type="int" name="MREMOVE">     5</i>
    </separator>
   </separator>
   <separator name="electronic dipolcorrection" >
    <i type="logical" name="LDIPOL"> F  </i>
    <i type="logical" name="LMONO"> F  </i>
    <i type="int" name="IDIPOL">     0</i>
    <i name="EPSILON">      1.00000000</i>
    <v name="DIPOL">   -100.00000000   -100.00000000   -100.00000000</v>
    <i name="EFIELD">      0.00000000</i>
   </separator>
  </separator>
  <separator name="grids" >
   <i type="int" name="NGX">    24</i>
   <i type="int" name="NGY">    24</i>
   <i type="int" name="NGZ">    24</i>
   <i type="int" name="NGXF">    24</i>
   <i type="int" name="NGYF">    24</i>
   <i type="int" name="NGZF">    24</i>
   <i type="logical" name="ADDGRID"> F  </i>
  </separator>
  <separator name="ionic" >
   <i type="int" name="NSW">     0</i>
   <i type="int" name="IBRION">    -1</i>
   <i type="int" name="MDALGO">     0</i>
   <i type="int" name="ISIF">     2</i>
   <i name="PSTRESS">      0.00000000</i>
   <i name="EDIFFG">      0.00000010</i>
   <i type="int" name="NFREE">     0</i>
   <i name="POTIM">      0.50000000</i>
   <i name="SMASS">     -3.00000000</i>
   <i name="SCALEE">      1.00000000</i>
  </separator>
  <separator name="ionic md" >
   <i name="TEBEG">      0.00010000</i>
   <i name="TEEND">      0.00010000</i>
   <i type="int" name="NBLOCK">     1</i>
   <i type="int" name="KBLOCK">     1</i>
   <i type="int" name="NPACO">   256</i>
   <i name="APACO">     16.00000000</i>
  </separator>
  <separator name="symmetry" >
   <i type="int" name="ISYM">     2</i>
   <i name="SYMPREC">      0.00001000</i>
  </separator>
  <separator name="dos" >
   <i type="int" name="LORBIT">    11</i>
   <v name="RWIGS">     -1.00000000</v>
   <i type="int" name="NEDOS">   301</i>
   <i name="EMIN">     10.00000000</i>
   <i name="EMAX">    -10.00000000</i>
   <i name="EFERMI">      0.00000000</i>
  </separator>
  <separator name="writing" >
   <i type="int" name="NWRITE">     2</i>
   <i type="logical" name="LWAVE"> T  </i>
   <i type="logical" name="LDOWNSAMPLE"> F  </i>
   <i type="logical" name="LCHARG"> T  </i>
   <i type="logical" name="LPARD"> F  </i>
   <i type="logical" name="LVTOT"> F  </i>
   <i type="logical" name="LVHAR"> F  </i>
   <i type="logical" name="LELF"> F  </i>
   <i type="logical" name="LOPTICS"> F  </i>
   <v name="STM">      0.00000000      0.00000000      0.00000000      0.00000000      0.00000000      0.00000000      0.00000000</v>
  </separator>
  <separator name="performance" >
   <i type="int" name="NPAR">    16</i>
   <i type="int" name="NSIM">     4</i>
   <i type="int" name="NBLK">    -1</i>
   <i type="logical" name="LPLANE"> T  </i>
   <i type="logical" name="LSCALAPACK"> T  </i>
   <i type="logical" name="LSCAAWARE"> F  </i>
   <i type="logical" name="LSCALU"> F  </i>
   <i type="logical" name="LASYNC"> F  </i>
   <i type="logical" name="LORBITALREAL"> F  </i>
  </separator>
  <separator name="miscellaneous" >
   <i type="int" name="IDIOT">     3</i>
   <i type="int" name="ISPECIAL">     0</i>
   <i type="logical" name="LMUSIC"> F  </i>
   <v name="POMASS">     28.08500000</v>
   <v name="DARWINR">      0.00000000</v>
   <v name="DARWINV">      1.00000000</v>
   <i type="logical" name="LCORR"> T  </i>
  </separator>
  <i type="logical" name="GGA_COMPAT"> T  </i>
  <i type="logical" name="LBERRY"> F  </i>
  <i type="int" name="ICORELEVEL">     0</i>
  <i type="logical" name="LDAU"> F  </i>
  <i type="int" name="I_CONSTRAINED_M">     0</i>
  <separator name="electronic exchange-correlation" >
   <i type="string" name="GGA">PE</i>
   <i type="int" name="VOSKOWN">     0</i>
   <i type="logical" name="LHFCALC"> F  </i>
   <i type="string" name="PRECFOCK"></i>
   <i type="logical" name="LSYMGRAD"> F  </i>
   <i type="logical" name="LHFONE"> F  </i>
   <i type="logical" name="LRHFCALC"> F  </i>
   <i type="logical" name="LTHOMAS"> F  </i>
   <i type="logical" name="LMODELHF"> F  </i>
   <i name="ENCUT4O">     -1.00000000</i>
   <i type="int" name="EXXOEP">     0</i>
   <i type="int" name="FOURORBIT">     0</i>
   <i name="AEXX">      0.00000000</i>
   <i name="HFALPHA">      0.00000000</i>
   <i name="MCALPHA">      0.00000000</i>
   <i name="ALDAX">      1.00000000</i>
   <i name="AGGAX">      1.00000000</i>
   <i name="ALDAC">      1.00000000</i>
   <i name="AGGAC">      1.00000000</i>
   <i type="int" name="NKREDX">     1</i>
   <i type="int" name="NKREDY">     1</i>
   <i type="int" name="NKREDZ">     1</i>
   <i type="logical" name="SHIFTRED"> F  </i>
   <i type="logical" name="ODDONLY"> F  </i>
   <i type="logical" name="EVENONLY"> F  </i>
   <i type="int" name="LMAXFOCK">     0</i>
   <i type="int" name="NMAXFOCKAE">     0</i>
   <i type="logical" name="LFOCKAEDFT"> F  </i>
   <i name="HFSCREEN">      0.00000000</i>
   <i name="HFSCREENC">      0.00000000</i>
   <i type="int" name="NBANDSGWLOW">     0</i>
  </separator>
  <separator name="vdW DFT" >
   <i type="logical" name="LUSE_VDW"> F  </i>
   <i name="Zab_VDW">     -0.84910000</i>
   <i name="PARAM1">      0.12340000</i>
   <i name="PARAM2">      1.00000000</i>
   <i name="PARAM3">      0.00000000</i>
  </separator>
  <separator name="model GW" >
   <i type="int" name="MODEL_GW">     0</i>
   <i name="MODEL_EPS0">     12.26158974</i>
   <i name="MODEL_ALPHA">      1.00000000</i>
  </separator>
  <separator name="linear response parameters" >
   <i type="logical" name="LEPSILON"> F  </i>
   <i type="logical" name="LRPA"> F  </i>
   <i type="logical" name="LNABLA"> F  </i>
   <i type="logical" name="LVEL"> F  </i>
   <i type="int" name="KINTER">     0</i>
   <i name="CSHIFT">      0.10000000</i>
   <i name="OMEGAMAX">     -1.00000000</i>
   <i name="DEG_THRESHOLD">      0.00200000</i>
   <i name="RTIME">     -0.10000000</i>
   <i name="WPLASMAI">      0.00000000</i>
   <v name="DFIELD">      0.00000000      0.00000000      0.00000000</v>
   <v name="WPLASMA">      0.00000000      0.00000000      0.00000000      0.00000000      0.00000000      0.00000000      0.00000000      0.00000000      0.00000000</v>
  </separator>
  <separator name="orbital magnetization" >
   <i type="logical" name="NUCIND"> F  </i>
   <v name="MAGPOS">      0.00000000      0.00000000      0.00000000</v>
   <i type="logical" name="LNICSALL"> T  </i>
   <i type="logical" name="ORBITALMAG"> F  </i>
   <i type="logical" name="LMAGBLOCH"> F  </i>
   <i type="logical" name="LCHIMAG"> F  </i>
   <i type="logical" name="LGAUGE"> T  </i>
   <i type="int" name="MAGATOM">     0</i>
   <v name="MAGDIPOL">      0.00000000      0.00000000      0.00000000</v>
   <v name="AVECCONST">      0.00000000      0.00000000      0.00000000</v>
  </separator>
  <separator name="response functions" >
   <i type="logical" name="LADDER"> F  </i>
   <i type="logical" name="LRPAFORCE"> F  </i>
   <i type="logical" name="LFXC"> F  </i>
   <i type="logical" name="LHARTREE"> T  </i>
   <i type="int" name="IBSE">     0</i>
   <v type="int" name="KPOINT">    -1     0     0     0</v>
   <i type="logical" name="LTCTE"> F  </i>
   <i type="logical" name="LTETE"> F  </i>
   <i type="logical" name="LTRIPLET"> F  </i>
   <i type="logical" name="LFXCEPS"> F  </i>
   <i type="logical" name="LFXHEG"> F  </i>
   <i type="int" name="NATURALO">     2</i>
   <i type="logical" name="L2ORDER"> F  </i>
   <i type="logical" name="LMP2LT"> F  </i>
   <i type="logical" name="LUSEW"> F  </i>
   <i name="ENCUTGW">     -2.00000000</i>
   <i name="ENCUTGWSOFT">     -2.00000000</i>
   <i name="ENCUTLF">     -1.00000000</i>
   <i type="int" name="LMAXMP2">    -1</i>
   <i name="SCISSOR">      0.00000000</i>
   <i type="int" name="NOMEGA">     0</i>
   <i type="int" name="NOMEGAR">     0</i>
   <i type="int" name="NBANDSGW">    -1</i>
   <i type="int" name="NBANDSO">    -1</i>
   <i type="int" name="NBANDSV">    -1</i>
   <i type="int" name="NELM">     1</i>
   <i type="int" name="NELMHF">     1</i>
   <i type="int" name="DIM">     3</i>
   <i type="int" name="ANTIRES">     0</i>
   <i name="OMEGAMAX">    -30.00000000</i>
   <i name="OMEGAMIN">    -30.00000000</i>
   <i name="OMEGATL">   -200.00000000</i>
   <i type="int" name="OMEGAGRID">   140</i>
   <i name="CSHIFT">     -0.10000000</i>
   <i type="logical" name="SELFENERGY"> F  </i>
   <i type="logical" name="LSPECTRAL"> F  </i>
   <i type="logical" name="LSPECTRALGW"> F  </i>
   <i type="logical" name="LSINGLES"> F  </i>
   <i type="logical" name="LFERMIGW"> F  </i>
   <i type="logical" name="ODDONLYGW"> F  </i>
   <i type="logical" name="EVENONLYGW"> F  </i>
   <i type="int" name="NKREDLFX">     1</i>
   <i type="int" name="NKREDLFY">     1</i>
   <i type="int" name="NKREDLFZ">     1</i>
   <i type="int" name="MAXMEM">  2800</i>
   <i type="int" name="TELESCOPE">     0</i>
   <i type="int" name="TAUPAR">     1</i>
   <i type="int" name="OMEGAPAR">    -1</i>
   <i name="LAMBDA">      1.00000000</i>
  </separator>
  <separator name="External order field" >
   <i name="OFIELD_KAPPA">      0.00000000</i>
   <v name="OFIELD_K">      0.00000000      0.00000000      0.00000000</v>
   <i name="OFIELD_Q6_NEAR">      0.00000000</i>
   <i name="OFIELD_Q6_FAR">      0.00000000</i>
   <i name="OFIELD_A">      0.00000000</i>
  </separator>
 </parameters>
 <atominfo>
  <atoms>       2 </atoms>
  <types>       1 </types>
  <array name="atoms" >
   <dimension dim="1">ion</dimension>
   <field type="string">element</field>
   <field type="int">atomtype</field>
   <set>
    <rc><c>Si</c><c>   1</c></rc>
    <rc><c>Si</c><c>   1</c></rc>
   </set>
  </array>
  <array name="atomtypes" >
   <dimension dim="1">type</dimension>
   <field type="int">atomspertype</field>
   <field type="string">element</field>
   <field>mass</field>
   <field>valence</field>
   <field type="string">pseudopotential</field>
   <set>
    <rc><c>   2</c><c>Si</c><c>     28.08500000</c><c>      4.00000000</c><c>  PAW_PBE Si 05Jan2001                  </c></rc>
   </set>
  </array>
 </atominfo>
 <structure name="initialpos" >
  <crystal>
   <varray name="basis" >
    <v>       0.00000000       2.73400000       2.73400000 </v>
    <v>       2.73400000       0.00000000       2.73400000 </v>
    <v>       2.73400000       2.73400000       0.00000000 </v>
   </varray>
   <i name="volume">     40.87196581 </i>
   <varray name="rec_basis" >
    <v>      -0.18288222       0.18288222       0.18288222 </v>
    <v>       0.18288222      -0.18288222       0.18288222 </v>
    <v>       0.18288222       0.18288222      -0.18288222 </v>
   </varray>
  </crystal>
  <varray name="positions" >
   <v>       0.87500000       0.87500000       0.87500000 </v>
   <v>       0.12500000       0.12500000       0.12500000 </v>
  </varray>
 </structure>
 <calculation>
  <scstep>
   <time name="total">    1.47    1.53</time>
   <energy>
    <i name="alphaZ">      3.29449589 </i>
    <i name="ewald">   -226.97511711 </i>
    <i name="hartreedc">    -11.31730863 </i>
    <i name="XCdc">    -18.68326879 </i>
    <i name="pawpsdc">    176.24759923 </i>
    <i name="pawaedc">   -141.06103558 </i>
    <i name="eentropy">      0.00046566 </i>
    <i name="bandstr">     11.89854744 </i>
    <i name="atom">    206.13311910 </i>
    <i name="e_fr_energy">     -0.46250280 </i>
    <i name="e_wo_entrp">     -0.46296846 </i>
    <i name="e_0_energy">     -0.46265802 </i>
   </energy>
  </scstep>
  <scstep>
   <time name="total">    2.23    2.23</time>
   <energy>
    <i name="e_fr_energy">    -10.94618473 </i>
    <i name="e_wo_entrp">    -10.94658847 </i>
    <i name="e_0_energy">    -10.94631931 </i>
   </energy>
  </scstep>
  <scstep>
   <time name="total">    1.77    1.77</time>
   <energy>
    <i name="e_fr_energy">    -11.01790042 </i>
    <i name="e_wo_entrp">    -11.01834640 </i>
    <i name="e_0_energy">    -11.01804908 </i>
   </energy>
  </scstep>
  <scstep>
   <time name="total">    3.12    3.13</time>
   <energy>
    <i name="e_fr_energy">    -11.01808030 </i>
    <i name="e_wo_entrp">    -11.01852639 </i>
    <i name="e_0_energy">    -11.01822900 </i>
   </energy>
  </scstep>
  <scstep>
   <time name="total">    1.96    1.96</time>
   <energy>
    <i name="e_fr_energy">    -11.01808032 </i>
    <i name="e_wo_entrp">    -11.01852640 </i>
    <i name="e_0_energy">    -11.01822901 </i>
   </energy>
  </scstep>
  <scstep>
   <time name="total">    1.49    1.49</time>
   <energy>
    <i name="e_fr_energy">    -10.79769891 </i>
    <i name="e_wo_entrp">    -10.79812571 </i>
    <i name="e_0_energy">    -10.79784118 </i>
   </energy>
  </scstep>
  <scstep>
   <time name="total">    1.44    1.44</time>
   <energy>
    <i name="e_fr_energy">    -10.84054856 </i>
    <i name="e_wo_entrp">    -10.84095916 </i>
    <i name="e_0_energy">    -10.84068542 </i>
   </energy>
  </scstep>
  <scstep>
   <time name="total">    1.43    1.43</time>
   <energy>
    <i name="e_fr_energy">    -10.84878912 </i>
    <i name="e_wo_entrp">    -10.84919623 </i>
    <i name="e_0_energy">    -10.84892482 </i>
   </energy>
  </scstep>
  <scstep>
   <time name="total">    1.43    1.43</time>
   <energy>
    <i name="e_fr_energy">    -10.84981175 </i>
    <i name="e_wo_entrp">    -10.85021873 </i>
    <i name="e_0_energy">    -10.84994741 </i>
   </energy>
  </scstep>
  <scstep>
   <time name="total">    1.42    1.42</time>
   <energy>
    <i name="e_fr_energy">    -10.84985479 </i>
    <i name="e_wo_entrp">    -10.85026187 </i>
    <i name="e_0_energy">    -10.84999049 </i>
   </energy>
  </scstep>
  <scstep>
   <time name="total">    1.41    1.41</time>
   <energy>
    <i name="e_fr_energy">    -10.84985776 </i>
    <i name="e_wo_entrp">    -10.85026489 </i>
    <i name="e_0_energy">    -10.84999347 </i>
   </energy>
  </scstep>
  <scstep>
   <time name="total">    1.38    1.38</time>
   <energy>
    <i name="e_fr_energy">    -10.84985806 </i>
    <i name="e_wo_entrp">    -10.85026526 </i>
    <i name="e_0_energy">    -10.84999379 </i>
   </energy>
  </scstep>
  <scstep>
   <time name="total">    1.36    1.36</time>
   <energy>
    <i name="e_fr_energy">    -10.84985808 </i>
    <i name="e_wo_entrp">    -10.85026527 </i>
    <i name="e_0_energy">    -10.84999381 </i>
   </energy>
  </scstep>
  <scstep>
   <time name="total">    1.42    1.42</time>
   <energy>
    <i name="e_fr_energy">    -10.84985812 </i>
    <i name="e_wo_entrp">    -10.85026532 </i>
    <i name="e_0_energy">    -10.84999385 </i>
   </energy>
  </scstep>
  <scstep>
   <time name="total">    1.80    1.80</time>
   <energy>
    <i name="alphaZ">      3.29449589 </i>
    <i name="ewald">   -226.97511711 </i>
    <i name="hartreedc">    -15.16604592 </i>
    <i name="XCdc">    -18.05909569 </i>
    <i name="pawpsdc">    829.60475449 </i>
    <i name="pawaedc">   -794.62379908 </i>
    <i name="eentropy">      0.00040719 </i>
    <i name="bandstr">      4.94142301 </i>
    <i name="atom">    206.13311910 </i>
    <i name="e_fr_energy">    -10.84985812 </i>
    <i name="e_wo_entrp">    -10.85026532 </i>
    <i name="e_0_energy">    -10.84999385 </i>
   </energy>
  </scstep>
  <structure>
   <crystal>
    <varray name="basis" >
     <v>       0.00000000       2.73400000       2.73400000 </v>
     <v>       2.73400000       0.00000000       2.73400000 </v>
     <v>       2.73400000       2.73400000       0.00000000 </v>
    </varray>
    <i name="volume">     40.87196581 </i>
    <varray name="rec_basis" >
     <v>      -0.18288222       0.18288222       0.18288222 </v>
     <v>       0.18288222      -0.18288222       0.18288222 </v>
     <v>       0.18288222       0.18288222      -0.18288222 </v>
    </varray>
   </crystal>
   <varray name="positions" >
    <v>       0.87500000       0.87500000       0.87500000 </v>
    <v>       0.12500000       0.12500000       0.12500000 </v>
   </varray>
  </structure>
  <varray name="forces" >
   <v>       0.00000000       0.00000000       0.00000000 </v>
   <v>      -0.00000000      -0.00000000      -0.00000000 </v>
  </varray>
  <varray name="stress" >
   <v>       0.28449784      -0.00000000       0.00000000 </v>
   <v>       0.00000000       0.28449784       0.00000000 </v>
   <v>       0.00000000       0.00000000       0.28449784 </v>
  </varray>
  <energy>
   <i name="e_fr_energy">    -10.84985812 </i>
   <i name="e_wo_entrp">    -10.84999385 </i>
   <i name="e_0_energy">      0.00040719 </i>
  </energy>
  <time name="totalsc">   27.38   27.50</time>
  <eigenvalues>
   <array>
    <dimension dim="1">band</dimension>
    <dimension dim="2">kpoint</dimension>
    <dimension dim="3">spin</dimension>
    <field>eigene</field>
    <field>occ</field>
    <set>
     <set comment="spin 1">
      <set comment="kpoint 1">
       <r>   -6.1850    1.0000 </r>
       <r>    5.4695    1.0181 </r>
       <r>    5.5981    0.7416 </r>
       <r>    5.5981    0.7416 </r>
       <r>    8.2080   -0.0000 </r>
       <r>    8.2086   -0.0000 </r>
       <r>    8.2086   -0.0000 </r>
       <r>    8.8550   -0.0000 </r>
       <r>   13.2849    0.0000 </r>
       <r>   13.2849    0.0000 </r>
       <r>   13.5553    0.0000 </r>
       <r>   16.7507    0.0000 </r>
       <r>   16.8889    0.0000 </r>
       <r>   16.8889    0.0000 </r>
       <r>   20.9875    0.0000 </r>
       <r>   28.3353    0.0000 </r>
      </set>
      <set comment="kpoint 2">
       <r>   -6.1179    1.0000 </r>
       <r>    4.8920    1.0000 </r>
       <r>    5.3510    1.0261 </r>
       <r>    5.5686    0.8397 </r>
       <r>    8.2661   -0.0000 </r>
       <r>    8.2755   -0.0000 </r>
       <r>    8.4051   -0.0000 </r>
       <r>    9.3763   -0.0000 </r>
       <r>   12.9614    0.0000 </r>
       <r>   13.2179    0.0000 </r>
       <r>   13.8405    0.0000 </r>
       <r>   16.6193    0.0000 </r>
       <r>   17.0554    0.0000 </r>
       <r>   17.4428    0.0000 </r>
       <r>   21.4369    0.0000 </r>
       <r>   27.3604    0.0000 </r>
      </set>
      <set comment="kpoint 3">
       <r>   -5.9513    1.0000 </r>
       <r>    3.8248    1.0000 </r>
       <r>    5.0924    1.0002 </r>
       <r>    5.4006    1.0349 </r>
       <r>    8.1069   -0.0000 </r>
       <r>    8.5345   -0.0000 </r>
       <r>    8.7545   -0.0000 </r>
       <r>   10.3722   -0.0000 </r>
       <r>   12.5969    0.0000 </r>
       <r>   13.0023    0.0000 </r>
       <r>   14.4231    0.0000 </r>
       <r>   16.2782    0.0000 </r>
       <r>   17.8517    0.0000 </r>
       <r>   18.3810    0.0000 </r>
       <r>   22.3531    0.0000 </r>
       <r>   25.6940    0.0000 </r>
      </set>
      <set comment="kpoint 4">
       <r>   -5.6886    1.0000 </r>
       <r>    2.6728    1.0000 </r>
       <r>    4.8417    1.0000 </r>
       <r>    5.1720    1.0016 </r>
       <r>    7.8685   -0.0000 </r>
       <r>    8.8359   -0.0000 </r>
       <r>    9.0803   -0.0000 </r>
       <r>   11.4186    0.0000 </r>
       <r>   12.4196    0.0000 </r>
       <r>   12.9658    0.0000 </r>
       <r>   14.7668    0.0000 </r>
       <r>   16.4896    0.0000 </r>
       <r>   18.9233    0.0000 </r>
       <r>   19.5121    0.0000 </r>
       <r>   23.3572    0.0000 </r>
       <r>   24.0734    0.0000 </r>
      </set>
      <set comment="kpoint 5">
       <r>   -5.3371    1.0000 </r>
       <r>    1.5515    1.0000 </r>
       <r>    4.6286    1.0000 </r>
       <r>    4.9416    1.0000 </r>
       <r>    7.6335   -0.0000 </r>
       <r>    9.0289   -0.0000 </r>
       <r>    9.2392   -0.0000 </r>
       <r>   12.3300    0.0000 </r>
       <r>   12.5895    0.0000 </r>
       <r>   13.3699    0.0000 </r>
       <r>   14.5854    0.0000 </r>
       <r>   17.5590    0.0000 </r>
       <r>   19.9735    0.0000 </r>
       <r>   20.5915    0.0000 </r>
       <r>   22.6223    0.0000 </r>
       <r>   23.3897    0.0000 </r>
      </set>
      <set comment="kpoint 6">
       <r>   -4.9121    1.0000 </r>
       <r>    0.5146    1.0000 </r>
       <r>    4.4682    1.0000 </r>
       <r>    4.7396    1.0000 </r>
       <r>    7.4359   -0.0000 </r>
       <r>    9.0699   -0.0000 </r>
       <r>    9.2173   -0.0000 </r>
       <r>   13.0646    0.0000 </r>
       <r>   13.1466    0.0000 </r>
       <r>   14.0244    0.0000 </r>
       <r>   14.6083    0.0000 </r>
       <r>   18.8300    0.0000 </r>
       <r>   19.9311    0.0000 </r>
       <r>   20.5873    0.0000 </r>
       <r>   22.2968    0.0000 </r>
       <r>   22.7137    0.0000 </r>
      </set>
      <set comment="kpoint 7">
       <r>   -4.4498    1.0000 </r>
       <r>   -0.3839    1.0000 </r>
       <r>    4.3665    1.0000 </r>
       <r>    4.5803    1.0000 </r>
       <r>    7.2917   -0.0000 </r>
       <r>    9.0331   -0.0000 </r>
       <r>    9.1090   -0.0000 </r>
       <r>   13.4188    0.0000 </r>
       <r>   14.0099    0.0000 </r>
       <r>   14.5434    0.0000 </r>
       <r>   15.4997    0.0000 </r>
       <r>   18.5437    0.0000 </r>
       <r>   19.3559    0.0000 </r>
       <r>   19.6235    0.0000 </r>
       <r>   22.1815    0.0000 </r>
       <r>   23.9308    0.0000 </r>
      </set>
      <set comment="kpoint 8">
       <r>   -4.0467    1.0000 </r>
       <r>   -1.0390    1.0000 </r>
       <r>    4.3247    1.0000 </r>
       <r>    4.4707    1.0000 </r>
       <r>    7.2079   -0.0000 </r>
       <r>    9.0018   -0.0000 </r>
       <r>    9.0031   -0.0000 </r>
       <r>   13.3960    0.0000 </r>
       <r>   15.0771    0.0000 </r>
       <r>   15.4640    0.0000 </r>
       <r>   16.5638    0.0000 </r>
       <r>   17.2656    0.0000 </r>
       <r>   17.9829    0.0000 </r>
       <r>   18.9301    0.0000 </r>
       <r>   23.4943    0.0000 </r>
       <r>   25.5338    0.0000 </r>
      </set>
      <set comment="kpoint 9">
       <r>   -3.9127    1.0000 </r>
       <r>   -1.2362    1.0000 </r>
       <r>    4.3418    1.0000 </r>
       <r>    4.4150    1.0000 </r>
       <r>    7.1873   -0.0000 </r>
       <r>    8.9458   -0.0000 </r>
       <r>    9.0198   -0.0000 </r>
       <r>   13.3717    0.0000 </r>
       <r>   15.6372    0.0000 </r>
       <r>   16.1071    0.0000 </r>
       <r>   16.8320    0.0000 </r>
       <r>   16.8669    0.0000 </r>
       <r>   17.2162    0.0000 </r>
       <r>   18.4965    0.0000 </r>
       <r>   24.6172    0.0000 </r>
       <r>   25.4849    0.0000 </r>
      </set>
      <set comment="kpoint 10">
       <r>   -4.1638    1.0000 </r>
       <r>   -0.8588    1.0000 </r>
       <r>    4.4155    1.0000 </r>
       <r>    4.4159    1.0000 </r>
       <r>    7.2305   -0.0000 </r>
       <r>    8.9487   -0.0000 </r>
       <r>    9.0956   -0.0000 </r>
       <r>   13.3953    0.0000 </r>
       <r>   14.6157    0.0000 </r>
       <r>   15.3424    0.0000 </r>
       <r>   16.1240    0.0000 </r>
       <r>   17.7778    0.0000 </r>
       <r>   18.2540    0.0000 </r>
       <r>   19.2976    0.0000 </r>
       <r>   22.9691    0.0000 </r>
       <r>   25.0016    0.0000 </r>
      </set>
      <set comment="kpoint 11">
       <r>   -4.6040    1.0000 </r>
       <r>   -0.1046    1.0000 </r>
       <r>    4.4754    1.0000 </r>
       <r>    4.5428    1.0000 </r>
       <r>    7.3361   -0.0000 </r>
       <r>    8.9923   -0.0000 </r>
       <r>    9.2072   -0.0000 </r>
       <r>   13.2060    0.0000 </r>
       <r>   13.9122    0.0000 </r>
       <r>   14.3269    0.0000 </r>
       <r>   15.0877    0.0000 </r>
       <r>   19.1418    0.0000 </r>
       <r>   19.2685    0.0000 </r>
       <r>   19.9564    0.0000 </r>
       <r>   22.0747    0.0000 </r>
       <r>   23.4680    0.0000 </r>
      </set>
      <set comment="kpoint 12">
       <r>   -5.0603    1.0000 </r>
       <r>    0.8478    1.0000 </r>
       <r>    4.5939    1.0000 </r>
       <r>    4.7191    1.0000 </r>
       <r>    7.4998   -0.0000 </r>
       <r>    9.0182   -0.0000 </r>
       <r>    9.2958   -0.0000 </r>
       <r>   12.5541    0.0000 </r>
       <r>   13.5183    0.0000 </r>
       <r>   13.5250    0.0000 </r>
       <r>   14.5065    0.0000 </r>
       <r>   18.4387    0.0000 </r>
       <r>   20.1741    0.0000 </r>
       <r>   20.7483    0.0000 </r>
       <r>   22.4695    0.0000 </r>
       <r>   22.6035    0.0000 </r>
      </set>
      <set comment="kpoint 13">
       <r>   -5.4634    1.0000 </r>
       <r>    1.9182    1.0000 </r>
       <r>    4.7685    1.0000 </r>
       <r>    4.9359    1.0000 </r>
       <r>    7.7117   -0.0000 </r>
       <r>    8.9324   -0.0000 </r>
       <r>    9.2662   -0.0000 </r>
       <r>   11.9214    0.0000 </r>
       <r>   12.7522    0.0000 </r>
       <r>   13.0439    0.0000 </r>
       <r>   14.6602    0.0000 </r>
       <r>   17.1503    0.0000 </r>
       <r>   19.6989    0.0000 </r>
       <r>   20.2227    0.0000 </r>
       <r>   23.1890    0.0000 </r>
       <r>   23.3906    0.0000 </r>
      </set>
      <set comment="kpoint 14">
       <r>   -5.7865    1.0000 </r>
       <r>    3.0577    1.0000 </r>
       <r>    4.9904    1.0000 </r>
       <r>    5.1748    1.0017 </r>
       <r>    7.9496   -0.0000 </r>
       <r>    8.6897   -0.0000 </r>
       <r>    9.0517   -0.0000 </r>
       <r>   11.0563   -0.0000 </r>
       <r>   12.4665    0.0000 </r>
       <r>   12.9384    0.0000 </r>
       <r>   14.7266    0.0000 </r>
       <r>   16.3043    0.0000 </r>
       <r>   18.5957    0.0000 </r>
       <r>   19.0676    0.0000 </r>
       <r>   23.0638    0.0000 </r>
       <r>   24.7616    0.0000 </r>
      </set>
      <set comment="kpoint 15">
       <r>   -6.0177    1.0000 </r>
       <r>    4.2045    1.0000 </r>
       <r>    5.2379    1.0057 </r>
       <r>    5.3968    1.0345 </r>
       <r>    8.1510   -0.0000 </r>
       <r>    8.4052   -0.0000 </r>
       <r>    8.7097   -0.0000 </r>
       <r>   10.0044   -0.0000 </r>
       <r>   12.6713    0.0000 </r>
       <r>   13.1123    0.0000 </r>
       <r>   14.2165    0.0000 </r>
       <r>   16.3719    0.0000 </r>
       <r>   17.5970    0.0000 </r>
       <r>   17.9758    0.0000 </r>
       <r>   22.0216    0.0000 </r>
       <r>   26.5803    0.0000 </r>
      </set>
      <set comment="kpoint 16">
       <r>   -6.1514    1.0000 </r>
       <r>    5.2040    1.0030 </r>
       <r>    5.4659    1.0206 </r>
       <r>    5.5291    0.9391 </r>
       <r>    8.1295   -0.0000 </r>
       <r>    8.3351   -0.0000 </r>
       <r>    8.3814   -0.0000 </r>
       <r>    9.0954   -0.0000 </r>
       <r>   13.0382    0.0000 </r>
       <r>   13.3239    0.0000 </r>
       <r>   13.7013    0.0000 </r>
       <r>   16.7376    0.0000 </r>
       <r>   16.9466    0.0000 </r>
       <r>   17.1369    0.0000 </r>
       <r>   21.2240    0.0000 </r>
       <r>   27.8408    0.0000 </r>
      </set>
      <set comment="kpoint 17">
       <r>   -6.0843    1.0000 </r>
       <r>    4.8325    1.0000 </r>
       <r>    5.2434    1.0063 </r>
       <r>    5.3200    1.0190 </r>
       <r>    7.9834   -0.0000 </r>
       <r>    8.5990   -0.0000 </r>
       <r>    8.6849   -0.0000 </r>
       <r>    9.4620   -0.0000 </r>
       <r>   12.6479    0.0000 </r>
       <r>   13.4019    0.0000 </r>
       <r>   13.9790    0.0000 </r>
       <r>   16.8200    0.0000 </r>
       <r>   17.0617    0.0000 </r>
       <r>   17.4506    0.0000 </r>
       <r>   21.6828    0.0000 </r>
       <r>   27.1270    0.0000 </r>
      </set>
      <set comment="kpoint 18">
       <r>   -5.9508    1.0000 </r>
       <r>    4.0843    1.0000 </r>
       <r>    4.8579    1.0000 </r>
       <r>    5.2303    1.0050 </r>
       <r>    7.9652   -0.0000 </r>
       <r>    8.7390   -0.0000 </r>
       <r>    9.0241   -0.0000 </r>
       <r>   10.1422   -0.0000 </r>
       <r>   12.2901    0.0000 </r>
       <r>   13.3855    0.0000 </r>
       <r>   14.4739    0.0000 </r>
       <r>   16.7298    0.0000 </r>
       <r>   17.3534    0.0000 </r>
       <r>   18.2435    0.0000 </r>
       <r>   22.4651    0.0000 </r>
       <r>   25.6419    0.0000 </r>
      </set>
      <set comment="kpoint 19">
       <r>   -5.7198    1.0000 </r>
       <r>    3.0172    1.0000 </r>
       <r>    4.5608    1.0000 </r>
       <r>    5.0502    1.0001 </r>
       <r>    8.0887   -0.0000 </r>
       <r>    8.6947   -0.0000 </r>
       <r>    9.4038   -0.0000 </r>
       <r>   10.8124   -0.0000 </r>
       <r>   12.3248    0.0000 </r>
       <r>   13.3627    0.0000 </r>
       <r>   15.0350    0.0000 </r>
       <r>   16.5784    0.0000 </r>
       <r>   18.2386    0.0000 </r>
       <r>   19.3739    0.0000 </r>
       <r>   23.4545    0.0000 </r>
       <r>   24.0113    0.0000 </r>
      </set>
      <set comment="kpoint 20">
       <r>   -5.3971    1.0000 </r>
       <r>    1.9135    1.0000 </r>
       <r>    4.3230    1.0000 </r>
       <r>    4.8127    1.0000 </r>
       <r>    8.0436   -0.0000 </r>
       <r>    8.8077   -0.0000 </r>
       <r>    9.6274   -0.0000 </r>
       <r>   11.1574    0.0000 </r>
       <r>   12.8833    0.0000 </r>
       <r>   13.7120    0.0000 </r>
       <r>   15.0486    0.0000 </r>
       <r>   17.2710    0.0000 </r>
       <r>   19.2890    0.0000 </r>
       <r>   20.5519    0.0000 </r>
       <r>   22.4669    0.0000 </r>
       <r>   23.4362    0.0000 </r>
      </set>
      <set comment="kpoint 21">
       <r>   -4.9943    1.0000 </r>
       <r>    0.8624    1.0000 </r>
       <r>    4.1409    1.0000 </r>
       <r>    4.5830    1.0000 </r>
       <r>    7.8900   -0.0000 </r>
       <r>    8.9020   -0.0000 </r>
       <r>    9.6408   -0.0000 </r>
       <r>   11.6308    0.0000 </r>
       <r>   13.5688    0.0000 </r>
       <r>   14.4997    0.0000 </r>
       <r>   14.8461    0.0000 </r>
       <r>   18.4348    0.0000 </r>
       <r>   19.7000    0.0000 </r>
       <r>   21.0024    0.0000 </r>
       <r>   21.8847    0.0000 </r>
       <r>   22.8319    0.0000 </r>
      </set>
      <set comment="kpoint 22">
       <r>   -4.5381    1.0000 </r>
       <r>   -0.0794    1.0000 </r>
       <r>    4.0081    1.0000 </r>
       <r>    4.4022    1.0000 </r>
       <r>    7.7472   -0.0000 </r>
       <r>    8.8955   -0.0000 </r>
       <r>    9.5278   -0.0000 </r>
       <r>   12.3681    0.0000 </r>
       <r>   14.1706    0.0000 </r>
       <r>   14.7645    0.0000 </r>
       <r>   15.6826    0.0000 </r>
       <r>   18.4079    0.0000 </r>
       <r>   19.2809    0.0000 </r>
       <r>   20.5528    0.0000 </r>
       <r>   22.2779    0.0000 </r>
       <r>   23.0536    0.0000 </r>
      </set>
      <set comment="kpoint 23">
       <r>   -4.0974    1.0000 </r>
       <r>   -0.8283    1.0000 </r>
       <r>    3.9106    1.0000 </r>
       <r>    4.3002    1.0000 </r>
       <r>    7.6509   -0.0000 </r>
       <r>    8.8668   -0.0000 </r>
       <r>    9.3930   -0.0000 </r>
       <r>   13.1753    0.0000 </r>
       <r>   14.3098    0.0000 </r>
       <r>   15.5959    0.0000 </r>
       <r>   16.7907    0.0000 </r>
       <r>   17.1815    0.0000 </r>
       <r>   18.2850    0.0000 </r>
       <r>   20.0730    0.0000 </r>
       <r>   22.9338    0.0000 </r>
       <r>   24.5777    0.0000 </r>
      </set>
      <set comment="kpoint 24">
       <r>   -3.8455    1.0000 </r>
       <r>   -1.2042    1.0000 </r>
       <r>    3.8413    1.0000 </r>
       <r>    4.2915    1.0000 </r>
       <r>    7.6125   -0.0000 </r>
       <r>    8.8698   -0.0000 </r>
       <r>    9.3018   -0.0000 </r>
       <r>   13.5752    0.0000 </r>
       <r>   14.8029    0.0000 </r>
       <r>   15.6868    0.0000 </r>
       <r>   16.8756    0.0000 </r>
       <r>   17.1099    0.0000 </r>
       <r>   18.0603    0.0000 </r>
       <r>   19.0565    0.0000 </r>
       <r>   24.5410    0.0000 </r>
       <r>   25.2774    0.0000 </r>
      </set>
      <set comment="kpoint 25">
       <r>   -3.9804    1.0000 </r>
       <r>   -1.0068    1.0000 </r>
       <r>    3.8105    1.0000 </r>
       <r>    4.3677    1.0000 </r>
       <r>    7.6351   -0.0000 </r>
       <r>    8.9130   -0.0000 </r>
       <r>    9.2871   -0.0000 </r>
       <r>   13.5301    0.0000 </r>
       <r>   14.4919    0.0000 </r>
       <r>   15.3179    0.0000 </r>
       <r>   16.6865    0.0000 </r>
       <r>   17.4579    0.0000 </r>
       <r>   18.3470    0.0000 </r>
       <r>   19.4811    0.0000 </r>
       <r>   23.3727    0.0000 </r>
       <r>   25.1081    0.0000 </r>
      </set>
      <set comment="kpoint 26">
       <r>   -4.3845    1.0000 </r>
       <r>   -0.3549    1.0000 </r>
       <r>    3.8332    1.0000 </r>
       <r>    4.5128    1.0000 </r>
       <r>    7.7178   -0.0000 </r>
       <r>    8.9735   -0.0000 </r>
       <r>    9.3521   -0.0000 </r>
       <r>   12.9651    0.0000 </r>
       <r>   13.8811    0.0000 </r>
       <r>   14.7503    0.0000 </r>
       <r>   16.3275    0.0000 </r>
       <r>   17.7667    0.0000 </r>
       <r>   19.5333    0.0000 </r>
       <r>   20.2945    0.0000 </r>
       <r>   22.1600    0.0000 </r>
       <r>   23.4944    0.0000 </r>
      </set>
      <set comment="kpoint 27">
       <r>   -4.8467    1.0000 </r>
       <r>    0.5349    1.0000 </r>
       <r>    3.9195    1.0000 </r>
       <r>    4.7109    1.0000 </r>
       <r>    7.8558   -0.0000 </r>
       <r>    9.0038   -0.0000 </r>
       <r>    9.4512   -0.0000 </r>
       <r>   12.1855    0.0000 </r>
       <r>   13.1742    0.0000 </r>
       <r>   14.7350    0.0000 </r>
       <r>   15.2123    0.0000 </r>
       <r>   18.5566    0.0000 </r>
       <r>   19.5987    0.0000 </r>
       <r>   21.0363    0.0000 </r>
       <r>   21.8735    0.0000 </r>
       <r>   22.8252    0.0000 </r>
      </set>
      <set comment="kpoint 28">
       <r>   -5.2714    1.0000 </r>
       <r>    1.5545    1.0000 </r>
       <r>    4.0757    1.0000 </r>
       <r>    4.9443    1.0000 </r>
       <r>    8.0375   -0.0000 </r>
       <r>    8.9265   -0.0000 </r>
       <r>    9.4748   -0.0000 </r>
       <r>   11.5849    0.0000 </r>
       <r>   12.5443    0.0000 </r>
       <r>   14.2007    0.0000 </r>
       <r>   14.9981    0.0000 </r>
       <r>   17.6025    0.0000 </r>
       <r>   19.5091    0.0000 </r>
       <r>   21.0621    0.0000 </r>
       <r>   21.8095    0.0000 </r>
       <r>   23.5127    0.0000 </r>
      </set>
      <set comment="kpoint 29">
       <r>   -5.6224    1.0000 </r>
       <r>    2.6404    1.0000 </r>
       <r>    4.3070    1.0000 </r>
       <r>    5.1849    1.0021 </r>
       <r>    8.2284   -0.0000 </r>
       <r>    8.7070   -0.0000 </r>
       <r>    9.2908   -0.0000 </r>
       <r>   11.1498    0.0000 </r>
       <r>   12.2149    0.0000 </r>
       <r>   13.4865    0.0000 </r>
       <r>   15.1286    0.0000 </r>
       <r>   16.6872    0.0000 </r>
       <r>   18.4801    0.0000 </r>
       <r>   19.9836    0.0000 </r>
       <r>   23.1659    0.0000 </r>
       <r>   23.7058    0.0000 </r>
      </set>
      <set comment="kpoint 30">
       <r>   -5.8847    1.0000 </r>
       <r>    3.7034    1.0000 </r>
       <r>    4.6321    1.0000 </r>
       <r>    5.3825    1.0325 </r>
       <r>    8.2622   -0.0000 </r>
       <r>    8.5646   -0.0000 </r>
       <r>    8.9157   -0.0000 </r>
       <r>   10.5320   -0.0000 </r>
       <r>   12.2820    0.0000 </r>
       <r>   13.2464    0.0000 </r>
       <r>   14.6763    0.0000 </r>
       <r>   16.6067    0.0000 </r>
       <r>   17.5018    0.0000 </r>
       <r>   18.8269    0.0000 </r>
       <r>   22.7350    0.0000 </r>
       <r>   24.8309    0.0000 </r>
      </set>
      <set comment="kpoint 31">
       <r>   -6.0509    1.0000 </r>
       <r>    4.5065    1.0000 </r>
       <r>    5.1283    1.0006 </r>
       <r>    5.4645    1.0215 </r>
       <r>    8.1477   -0.0000 </r>
       <r>    8.4544   -0.0000 </r>
       <r>    8.6447   -0.0000 </r>
       <r>    9.7701   -0.0000 </r>
       <r>   12.6444    0.0000 </r>
       <r>   13.2585    0.0000 </r>
       <r>   14.1052    0.0000 </r>
       <r>   16.6224    0.0000 </r>
       <r>   17.1782    0.0000 </r>
       <r>   17.8418    0.0000 </r>
       <r>   21.8574    0.0000 </r>
       <r>   26.4777    0.0000 </r>
      </set>
      <set comment="kpoint 32">
       <r>   -5.8503    1.0000 </r>
       <r>    3.9132    1.0000 </r>
       <r>    4.6925    1.0000 </r>
       <r>    4.7313    1.0000 </r>
       <r>    7.5726   -0.0000 </r>
       <r>    9.3836   -0.0000 </r>
       <r>    9.5161   -0.0000 </r>
       <r>   10.0382   -0.0000 </r>
       <r>   12.0611    0.0000 </r>
       <r>   13.6745    0.0000 </r>
       <r>   14.8415    0.0000 </r>
       <r>   17.2012    0.0000 </r>
       <r>   17.4600    0.0000 </r>
       <r>   18.1263    0.0000 </r>
       <r>   23.1292    0.0000 </r>
       <r>   25.4155    0.0000 </r>
      </set>
      <set comment="kpoint 33">
       <r>   -5.6516    1.0000 </r>
       <r>    3.1730    1.0000 </r>
       <r>    4.2837    1.0000 </r>
       <r>    4.6047    1.0000 </r>
       <r>    7.5316   -0.0000 </r>
       <r>    9.4688   -0.0000 </r>
       <r>    9.9434   -0.0000 </r>
       <r>   10.2110   -0.0000 </r>
[...]
       </set>
       <set comment="band 12">
        <r>  0.0000  0.0478  0.0000  0.0478  0.0000  0.0000  0.0000  0.0000  0.0000 </r>
        <r>  0.0000  0.0478  0.0000  0.0478  0.0000  0.0000  0.0000  0.0000  0.0000 </r>
       </set>
       <set comment="band 13">
        <r>  0.0388  0.0239  0.0516  0.0239  0.0000  0.0000  0.0000  0.0000  0.0000 </r>
        <r>  0.0388  0.0239  0.0516  0.0239  0.0000  0.0000  0.0000  0.0000  0.0000 </r>
       </set>
       <set comment="band 14">
        <r>  0.0276  0.0697  0.0366  0.0697  0.0000  0.0000  0.0000  0.0000  0.0000 </r>
        <r>  0.0276  0.0697  0.0366  0.0697  0.0000  0.0000  0.0000  0.0000  0.0000 </r>
       </set>
       <set comment="band 15">
        <r>  0.0461  0.0036  0.0112  0.0036  0.0000  0.0000  0.0000  0.0000  0.0000 </r>
        <r>  0.0461  0.0036  0.0112  0.0036  0.0000  0.0000  0.0000  0.0000  0.0000 </r>
       </set>
       <set comment="band 16">
        <r>  0.0000  0.0118  0.0000  0.0114  0.0000  0.0000  0.0000  0.0000  0.0000 </r>
        <r>  0.0000  0.0117  0.0000  0.0114  0.0000  0.0000  0.0000  0.0000  0.0000 </r>
       </set>
      </set>
      <set comment="kpoint 404">
       <set comment="band 1">
        <r>  0.2206  0.0042  0.0069  0.0044  0.0000  0.0000  0.0000  0.0000  0.0000 </r>
        <r>  0.2206  0.0042  0.0069  0.0044  0.0000  0.0000  0.0000  0.0000  0.0000 </r>
       </set>
       <set comment="band 2">
        <r>  0.1084  0.0286  0.0293  0.0316  0.0000  0.0000  0.0000  0.0000  0.0000 </r>
        <r>  0.1084  0.0286  0.0293  0.0316  0.0000  0.0000  0.0000  0.0000  0.0000 </r>
       </set>
       <set comment="band 3">
        <r>  0.0344  0.0130  0.0718  0.0855  0.0000  0.0000  0.0000  0.0000  0.0000 </r>
        <r>  0.0344  0.0130  0.0718  0.0855  0.0000  0.0000  0.0000  0.0000  0.0000 </r>
       </set>
       <set comment="band 4">
        <r>  0.0004  0.1305  0.0469  0.0310  0.0000  0.0000  0.0000  0.0000  0.0000 </r>
        <r>  0.0004  0.1305  0.0469  0.0310  0.0000  0.0000  0.0000  0.0000  0.0000 </r>
       </set>
       <set comment="band 5">
        <r>  0.1321  0.0004  0.0306  0.0318  0.0000  0.0000  0.0000  0.0000  0.0000 </r>
        <r>  0.1321  0.0004  0.0306  0.0318  0.0000  0.0000  0.0000  0.0000  0.0000 </r>
       </set>
       <set comment="band 6">
        <r>  0.0043  0.0150  0.0368  0.0352  0.0000  0.0000  0.0000  0.0000  0.0000 </r>
        <r>  0.0043  0.0150  0.0368  0.0352  0.0000  0.0000  0.0000  0.0000  0.0000 </r>
       </set>
       <set comment="band 7">
        <r>  0.0076  0.0618  0.0174  0.0239  0.0000  0.0000  0.0000  0.0000  0.0000 </r>
        <r>  0.0076  0.0618  0.0174  0.0239  0.0000  0.0000  0.0000  0.0000  0.0000 </r>
       </set>
       <set comment="band 8">
        <r>  0.0032  0.0257  0.0339  0.0516  0.0000  0.0000  0.0000  0.0000  0.0000 </r>
        <r>  0.0032  0.0257  0.0339  0.0516  0.0000  0.0000  0.0000  0.0000  0.0000 </r>
       </set>
       <set comment="band 9">
        <r>  0.0106  0.0402  0.0098  0.0056  0.0000  0.0000  0.0000  0.0000  0.0000 </r>
        <r>  0.0106  0.0402  0.0098  0.0056  0.0000  0.0000  0.0000  0.0000  0.0000 </r>
       </set>
       <set comment="band 10">
        <r>  0.0069  0.0025  0.0307  0.0003  0.0000  0.0000  0.0000  0.0000  0.0000 </r>
        <r>  0.0069  0.0025  0.0307  0.0003  0.0000  0.0000  0.0000  0.0000  0.0000 </r>
       </set>
       <set comment="band 11">
        <r>  0.0284  0.0206  0.0134  0.0586  0.0000  0.0000  0.0000  0.0000  0.0000 </r>
        <r>  0.0284  0.0206  0.0134  0.0586  0.0000  0.0000  0.0000  0.0000  0.0000 </r>
       </set>
       <set comment="band 12">
        <r>  0.0182  0.0032  0.0630  0.0135  0.0000  0.0000  0.0000  0.0000  0.0000 </r>
        <r>  0.0182  0.0032  0.0630  0.0135  0.0000  0.0000  0.0000  0.0000  0.0000 </r>
       </set>
       <set comment="band 13">
        <r>  0.0318  0.0623  0.0360  0.0157  0.0000  0.0000  0.0000  0.0000  0.0000 </r>
        <r>  0.0318  0.0623  0.0360  0.0157  0.0000  0.0000  0.0000  0.0000  0.0000 </r>
       </set>
       <set comment="band 14">
        <r>  0.0243  0.0571  0.0377  0.0787  0.0000  0.0000  0.0000  0.0000  0.0000 </r>
        <r>  0.0243  0.0571  0.0377  0.0787  0.0000  0.0000  0.0000  0.0000  0.0000 </r>
       </set>
       <set comment="band 15">
        <r>  0.0379  0.0030  0.0140  0.0064  0.0000  0.0000  0.0000  0.0000  0.0000 </r>
        <r>  0.0379  0.0030  0.0140  0.0063  0.0000  0.0000  0.0000  0.0000  0.0000 </r>
       </set>
       <set comment="band 16">
        <r>  0.0113  0.0027  0.0020  0.0254  0.0000  0.0000  0.0000  0.0000  0.0000 </r>
        <r>  0.0109  0.0034  0.0027  0.0244  0.0000  0.0000  0.0000  0.0000  0.0000 </r>
       </set>
      </set>
      <set comment="kpoint 405">
       <set comment="band 1">
        <r>  0.2203  0.0039  0.0069  0.0070  0.0000  0.0000  0.0000  0.0000  0.0000 </r>
        <r>  0.2203  0.0039  0.0069  0.0070  0.0000  0.0000  0.0000  0.0000  0.0000 </r>
       </set>
       <set comment="band 2">
        <r>  0.1185  0.0253  0.0282  0.0317  0.0000  0.0000  0.0000  0.0000  0.0000 </r>
        <r>  0.1185  0.0253  0.0282  0.0317  0.0000  0.0000  0.0000  0.0000  0.0000 </r>
       </set>
       <set comment="band 3">
        <r>  0.0406  0.0237  0.0492  0.0811  0.0000  0.0000  0.0000  0.0000  0.0000 </r>
        <r>  0.0406  0.0237  0.0492  0.0811  0.0000  0.0000  0.0000  0.0000  0.0000 </r>
       </set>
       <set comment="band 4">
        <r>  0.0005  0.1153  0.0705  0.0160  0.0000  0.0000  0.0000  0.0000  0.0000 </r>
        <r>  0.0005  0.1153  0.0705  0.0160  0.0000  0.0000  0.0000  0.0000  0.0000 </r>
       </set>
       <set comment="band 5">
        <r>  0.0786  0.0069  0.0096  0.0523  0.0000  0.0000  0.0000  0.0000  0.0000 </r>
        <r>  0.0786  0.0069  0.0096  0.0523  0.0000  0.0000  0.0000  0.0000  0.0000 </r>
       </set>
       <set comment="band 6">
        <r>  0.0298  0.0273  0.0407  0.0205  0.0000  0.0000  0.0000  0.0000  0.0000 </r>
        <r>  0.0298  0.0273  0.0407  0.0205  0.0000  0.0000  0.0000  0.0000  0.0000 </r>
       </set>
       <set comment="band 7">
        <r>  0.0180  0.0527  0.0347  0.0232  0.0000  0.0000  0.0000  0.0000  0.0000 </r>
        <r>  0.0180  0.0527  0.0347  0.0232  0.0000  0.0000  0.0000  0.0000  0.0000 </r>
       </set>
       <set comment="band 8">
        <r>  0.0112  0.0397  0.0478  0.0246  0.0000  0.0000  0.0000  0.0000  0.0000 </r>
        <r>  0.0112  0.0397  0.0478  0.0246  0.0000  0.0000  0.0000  0.0000  0.0000 </r>
       </set>
       <set comment="band 9">
        <r>  0.0109  0.0370  0.0164  0.0470  0.0000  0.0000  0.0000  0.0000  0.0000 </r>
        <r>  0.0109  0.0370  0.0164  0.0470  0.0000  0.0000  0.0000  0.0000  0.0000 </r>
       </set>
       <set comment="band 10">
        <r>  0.0027  0.0070  0.0197  0.0145  0.0000  0.0000  0.0000  0.0000  0.0000 </r>
        <r>  0.0027  0.0070  0.0197  0.0145  0.0000  0.0000  0.0000  0.0000  0.0000 </r>
       </set>
       <set comment="band 11">
        <r>  0.0364  0.0067  0.0241  0.0300  0.0000  0.0000  0.0000  0.0000  0.0000 </r>
        <r>  0.0364  0.0067  0.0241  0.0300  0.0000  0.0000  0.0000  0.0000  0.0000 </r>
       </set>
       <set comment="band 12">
        <r>  0.0229  0.0160  0.0370  0.0288  0.0000  0.0000  0.0000  0.0000  0.0000 </r>
        <r>  0.0229  0.0160  0.0370  0.0288  0.0000  0.0000  0.0000  0.0000  0.0000 </r>
       </set>
       <set comment="band 13">
        <r>  0.0157  0.0481  0.0034  0.0386  0.0000  0.0000  0.0000  0.0000  0.0000 </r>
        <r>  0.0157  0.0481  0.0034  0.0386  0.0000  0.0000  0.0000  0.0000  0.0000 </r>
       </set>
       <set comment="band 14">
        <r>  0.0190  0.0554  0.0777  0.0540  0.0000  0.0000  0.0000  0.0000  0.0000 </r>
        <r>  0.0190  0.0554  0.0777  0.0540  0.0000  0.0000  0.0000  0.0000  0.0000 </r>
       </set>
       <set comment="band 15">
        <r>  0.0272  0.0016  0.0141  0.0100  0.0000  0.0000  0.0000  0.0000  0.0000 </r>
        <r>  0.0272  0.0016  0.0141  0.0100  0.0000  0.0000  0.0000  0.0000  0.0000 </r>
       </set>
       <set comment="band 16">
        <r>  0.0182  0.0009  0.0118  0.0336  0.0000  0.0000  0.0000  0.0000  0.0000 </r>
        <r>  0.0182  0.0008  0.0115  0.0340  0.0000  0.0000  0.0000  0.0000  0.0000 </r>
       </set>
      </set>
      <set comment="kpoint 406">
       <set comment="band 1">
        <r>  0.2216  0.0044  0.0072  0.0044  0.0000  0.0000  0.0000  0.0000  0.0000 </r>
        <r>  0.2216  0.0044  0.0072  0.0044  0.0000  0.0000  0.0000  0.0000  0.0000 </r>
       </set>
       <set comment="band 2">
        <r>  0.1098  0.0289  0.0307  0.0289  0.0000  0.0000  0.0000  0.0000  0.0000 </r>
        <r>  0.1098  0.0289  0.0307  0.0289  0.0000  0.0000  0.0000  0.0000  0.0000 </r>
       </set>
       <set comment="band 3">
        <r>  0.0376  0.0319  0.1001  0.0319  0.0000  0.0000  0.0000  0.0000  0.0000 </r>
        <r>  0.0376  0.0319  0.1001  0.0319  0.0000  0.0000  0.0000  0.0000  0.0000 </r>
       </set>
       <set comment="band 4">
        <r>  0.0000  0.1043  0.0000  0.1043  0.0000  0.0000  0.0000  0.0000  0.0000 </r>
        <r>  0.0000  0.1043  0.0000  0.1043  0.0000  0.0000  0.0000  0.0000  0.0000 </r>
       </set>
       <set comment="band 5">
        <r>  0.1017  0.0022  0.0566  0.0022  0.0000  0.0000  0.0000  0.0000  0.0000 </r>
        <r>  0.1017  0.0022  0.0566  0.0022  0.0000  0.0000  0.0000  0.0000  0.0000 </r>
       </set>
       <set comment="band 6">
        <r>  0.0373  0.0266  0.0385  0.0266  0.0000  0.0000  0.0000  0.0000  0.0000 </r>
        <r>  0.0373  0.0266  0.0385  0.0266  0.0000  0.0000  0.0000  0.0000  0.0000 </r>
       </set>
       <set comment="band 7">
        <r>  0.0000  0.0512  0.0000  0.0512  0.0000  0.0000  0.0000  0.0000  0.0000 </r>
        <r>  0.0000  0.0512  0.0000  0.0512  0.0000  0.0000  0.0000  0.0000  0.0000 </r>
       </set>
       <set comment="band 8">
        <r>  0.0063  0.0409  0.0336  0.0409  0.0000  0.0000  0.0000  0.0000  0.0000 </r>
        <r>  0.0063  0.0409  0.0336  0.0409  0.0000  0.0000  0.0000  0.0000  0.0000 </r>
       </set>
       <set comment="band 9">
        <r>  0.0097  0.0161  0.0307  0.0161  0.0000  0.0000  0.0000  0.0000  0.0000 </r>
        <r>  0.0097  0.0161  0.0307  0.0161  0.0000  0.0000  0.0000  0.0000  0.0000 </r>
       </set>
       <set comment="band 10">
        <r>  0.0000  0.0213  0.0000  0.0213  0.0000  0.0000  0.0000  0.0000  0.0000 </r>
        <r>  0.0000  0.0213  0.0000  0.0213  0.0000  0.0000  0.0000  0.0000  0.0000 </r>
       </set>
       <set comment="band 11">
        <r>  0.0402  0.0078  0.0588  0.0078  0.0000  0.0000  0.0000  0.0000  0.0000 </r>
        <r>  0.0402  0.0078  0.0588  0.0078  0.0000  0.0000  0.0000  0.0000  0.0000 </r>
       </set>
       <set comment="band 12">
        <r>  0.0000  0.0352  0.0000  0.0352  0.0000  0.0000  0.0000  0.0000  0.0000 </r>
        <r>  0.0000  0.0352  0.0000  0.0352  0.0000  0.0000  0.0000  0.0000  0.0000 </r>
       </set>
       <set comment="band 13">
        <r>  0.0455  0.0313  0.0729  0.0313  0.0000  0.0000  0.0000  0.0000  0.0000 </r>
        <r>  0.0455  0.0313  0.0729  0.0313  0.0000  0.0000  0.0000  0.0000  0.0000 </r>
       </set>
       <set comment="band 14">
        <r>  0.0211  0.0633  0.0364  0.0633  0.0000  0.0000  0.0000  0.0000  0.0000 </r>
        <r>  0.0211  0.0633  0.0364  0.0633  0.0000  0.0000  0.0000  0.0000  0.0000 </r>
       </set>
       <set comment="band 15">
        <r>  0.0449  0.0018  0.0098  0.0018  0.0000  0.0000  0.0000  0.0000  0.0000 </r>
        <r>  0.0449  0.0018  0.0098  0.0019  0.0000  0.0000  0.0000  0.0000  0.0000 </r>
       </set>
       <set comment="band 16">
        <r>  0.0097  0.0123  0.0352  0.0116  0.0000  0.0000  0.0000  0.0000  0.0000 </r>
        <r>  0.0097  0.0122  0.0353  0.0116  0.0000  0.0000  0.0000  0.0000  0.0000 </r>
       </set>
      </set>
      <set comment="kpoint 407">
       <set comment="band 1">
        <r>  0.2219  0.0045  0.0045  0.0045  0.0000  0.0000  0.0000  0.0000  0.0000 </r>
        <r>  0.2219  0.0045  0.0045  0.0045  0.0000  0.0000  0.0000  0.0000  0.0000 </r>
       </set>
       <set comment="band 2">
        <r>  0.1011  0.0307  0.0307  0.0307  0.0000  0.0000  0.0000  0.0000  0.0000 </r>
        <r>  0.1011  0.0307  0.0307  0.0307  0.0000  0.0000  0.0000  0.0000  0.0000 </r>
       </set>
       <set comment="band 3">
        <r>  0.0000  0.1072  0.0000  0.1081  0.0000  0.0000  0.0000  0.0000  0.0000 </r>
        <r>  0.0000  0.1072  0.0000  0.1081  0.0000  0.0000  0.0000  0.0000  0.0000 </r>
       </set>
       <set comment="band 4">
        <r>  0.0000  0.0363  0.1436  0.0355  0.0000  0.0000  0.0000  0.0000  0.0000 </r>
        <r>  0.0000  0.0363  0.1436  0.0355  0.0000  0.0000  0.0000  0.0000  0.0000 </r>
       </set>
       <set comment="band 5">
        <r>  0.1843  0.0071  0.0071  0.0071  0.0000  0.0000  0.0000  0.0000  0.0000 </r>
        <r>  0.1843  0.0071  0.0071  0.0071  0.0000  0.0000  0.0000  0.0000  0.0000 </r>
       </set>
       <set comment="band 6">
        <r>  0.0000  0.0461  0.0297  0.0200  0.0000  0.0000  0.0000  0.0000  0.0000 </r>
        <r>  0.0000  0.0461  0.0297  0.0200  0.0000  0.0000  0.0000  0.0000  0.0000 </r>
       </set>
       <set comment="band 7">
        <r>  0.0000  0.0177  0.0341  0.0438  0.0000  0.0000  0.0000  0.0000  0.0000 </r>
        <r>  0.0000  0.0177  0.0341  0.0438  0.0000  0.0000  0.0000  0.0000  0.0000 </r>
       </set>
       <set comment="band 8">
        <r>  0.0052  0.0186  0.0186  0.0186  0.0000  0.0000  0.0000  0.0000  0.0000 </r>
        <r>  0.0052  0.0186  0.0186  0.0186  0.0000  0.0000  0.0000  0.0000  0.0000 </r>
       </set>
       <set comment="band 9">
        <r>  0.0000  0.0150  0.0078  0.0059  0.0000  0.0000  0.0000  0.0000  0.0000 </r>
        <r>  0.0000  0.0150  0.0078  0.0059  0.0000  0.0000  0.0000  0.0000  0.0000 </r>
       </set>
       <set comment="band 10">
        <r>  0.0000  0.0042  0.0113  0.0132  0.0000  0.0000  0.0000  0.0000  0.0000 </r>
        <r>  0.0000  0.0042  0.0113  0.0132  0.0000  0.0000  0.0000  0.0000  0.0000 </r>
       </set>
       <set comment="band 11">
        <r>  0.0505  0.0492  0.0492  0.0492  0.0000  0.0000  0.0000  0.0000  0.0000 </r>
        <r>  0.0505  0.0492  0.0492  0.0492  0.0000  0.0000  0.0000  0.0000  0.0000 </r>
       </set>
       <set comment="band 12">
        <r>  0.0000  0.0386  0.0297  0.0176  0.0000  0.0000  0.0000  0.0000  0.0000 </r>
        <r>  0.0000  0.0386  0.0297  0.0176  0.0000  0.0000  0.0000  0.0000  0.0000 </r>
       </set>
       <set comment="band 13">
        <r>  0.0000  0.0187  0.0276  0.0397  0.0000  0.0000  0.0000  0.0000  0.0000 </r>
        <r>  0.0000  0.0187  0.0276  0.0397  0.0000  0.0000  0.0000  0.0000  0.0000 </r>
       </set>
       <set comment="band 14">
        <r>  0.0733  0.0705  0.0705  0.0705  0.0000  0.0000  0.0000  0.0000  0.0000 </r>
        <r>  0.0733  0.0705  0.0705  0.0705  0.0000  0.0000  0.0000  0.0000  0.0000 </r>
       </set>
       <set comment="band 15">
        <r>  0.0436  0.0076  0.0076  0.0076  0.0000  0.0000  0.0000  0.0000  0.0000 </r>
        <r>  0.0436  0.0076  0.0076  0.0076  0.0000  0.0000  0.0000  0.0000  0.0000 </r>
       </set>
       <set comment="band 16">
        <r>  0.0193  0.0256  0.0117  0.0139  0.0000  0.0000  0.0000  0.0000  0.0000 </r>
        <r>  0.0193  0.0188  0.0126  0.0196  0.0000  0.0000  0.0000  0.0000  0.0000 </r>
       </set>
      </set>
      <set comment="kpoint 408">
       <set comment="band 1">
        <r>  0.2229  0.0046  0.0046  0.0047  0.0000  0.0000  0.0000  0.0000  0.0000 </r>
        <r>  0.2229  0.0046  0.0046  0.0047  0.0000  0.0000  0.0000  0.0000  0.0000 </r>
       </set>
       <set comment="band 2">
        <r>  0.1022  0.0301  0.0301  0.0311  0.0000  0.0000  0.0000  0.0000  0.0000 </r>
        <r>  0.1022  0.0301  0.0301  0.0311  0.0000  0.0000  0.0000  0.0000  0.0000 </r>
       </set>
       <set comment="band 3">
        <r>  0.0195  0.0337  0.0337  0.1235  0.0000  0.0000  0.0000  0.0000  0.0000 </r>
        <r>  0.0195  0.0337  0.0337  0.1235  0.0000  0.0000  0.0000  0.0000  0.0000 </r>
       </set>
       <set comment="band 4">
        <r>  0.0000  0.1068  0.1068  0.0000  0.0000  0.0000  0.0000  0.0000  0.0000 </r>
        <r>  0.0000  0.1068  0.1068  0.0000  0.0000  0.0000  0.0000  0.0000  0.0000 </r>
       </set>
       <set comment="band 5">
        <r>  0.1607  0.0067  0.0067  0.0300  0.0000  0.0000  0.0000  0.0000  0.0000 </r>
        <r>  0.1607  0.0067  0.0067  0.0300  0.0000  0.0000  0.0000  0.0000  0.0000 </r>
       </set>
       <set comment="band 6">
        <r>  0.0031  0.0182  0.0182  0.0552  0.0000  0.0000  0.0000  0.0000  0.0000 </r>
        <r>  0.0031  0.0182  0.0182  0.0552  0.0000  0.0000  0.0000  0.0000  0.0000 </r>
       </set>
       <set comment="band 7">
        <r>  0.0000  0.0486  0.0486  0.0000  0.0000  0.0000  0.0000  0.0000  0.0000 </r>
        <r>  0.0000  0.0486  0.0486  0.0000  0.0000  0.0000  0.0000  0.0000  0.0000 </r>
       </set>
       <set comment="band 8">
        <r>  0.0025  0.0214  0.0214  0.0311  0.0000  0.0000  0.0000  0.0000  0.0000 </r>
        <r>  0.0025  0.0214  0.0214  0.0311  0.0000  0.0000  0.0000  0.0000  0.0000 </r>
       </set>
       <set comment="band 9">
        <r>  0.0119  0.0253  0.0253  0.0042  0.0000  0.0000  0.0000  0.0000  0.0000 </r>
        <r>  0.0119  0.0253  0.0253  0.0042  0.0000  0.0000  0.0000  0.0000  0.0000 </r>
       </set>
       <set comment="band 10">
        <r>  0.0000  0.0183  0.0183  0.0000  0.0000  0.0000  0.0000  0.0000  0.0000 </r>
        <r>  0.0000  0.0183  0.0183  0.0000  0.0000  0.0000  0.0000  0.0000  0.0000 </r>
       </set>
       <set comment="band 11">
        <r>  0.0270  0.0066  0.0066  0.0896  0.0000  0.0000  0.0000  0.0000  0.0000 </r>
        <r>  0.0270  0.0066  0.0066  0.0896  0.0000  0.0000  0.0000  0.0000  0.0000 </r>
       </set>
       <set comment="band 12">
        <r>  0.0000  0.0389  0.0389  0.0000  0.0000  0.0000  0.0000  0.0000  0.0000 </r>
        <r>  0.0000  0.0389  0.0389  0.0000  0.0000  0.0000  0.0000  0.0000  0.0000 </r>
       </set>
       <set comment="band 13">
        <r>  0.0215  0.0395  0.0395  0.0099  0.0000  0.0000  0.0000  0.0000  0.0000 </r>
        <r>  0.0215  0.0395  0.0395  0.0099  0.0000  0.0000  0.0000  0.0000  0.0000 </r>
       </set>
       <set comment="band 14">
        <r>  0.0646  0.0651  0.0651  0.0853  0.0000  0.0000  0.0000  0.0000  0.0000 </r>
        <r>  0.0646  0.0651  0.0651  0.0853  0.0000  0.0000  0.0000  0.0000  0.0000 </r>
       </set>
       <set comment="band 15">
        <r>  0.0434  0.0073  0.0073  0.0050  0.0000  0.0000  0.0000  0.0000  0.0000 </r>
        <r>  0.0434  0.0073  0.0073  0.0050  0.0000  0.0000  0.0000  0.0000  0.0000 </r>
       </set>
       <set comment="band 16">
        <r>  0.0182  0.0142  0.0141  0.0281  0.0000  0.0000  0.0000  0.0000  0.0000 </r>
        <r>  0.0182  0.0143  0.0141  0.0281  0.0000  0.0000  0.0000  0.0000  0.0000 </r>
       </set>
      </set>
     </set>
    </set>
   </array>
  </projected>
 </calculation>
 <structure name="finalpos" >
  <crystal>
   <varray name="basis" >
    <v>       0.00000000       2.73400000       2.73400000 </v>
    <v>       2.73400000       0.00000000       2.73400000 </v>
    <v>       2.73400000       2.73400000       0.00000000 </v>
   </varray>
   <i name="volume">     40.87196581 </i>
   <varray name="rec_basis" >
    <v>      -0.18288222       0.18288222       0.18288222 </v>
    <v>       0.18288222      -0.18288222       0.18288222 </v>
    <v>       0.18288222       0.18288222      -0.18288222 </v>
   </varray>
  </crystal>
  <varray name="positions" >
   <v>       0.87500000       0.87500000       0.87500000 </v>
   <v>       0.12500000       0.12500000       0.12500000 </v>
  </varray>
 </structure>
</modeling>
