[1537439333.193158] [r8n3:19993:0]         sys.c:744  MXM  WARN  Conflicting CPU frequencies detected, using: 2790.37
[1537439333.197163] [r8n3:19993:0]         mxm.c:196  MXM  WARN  The 'ulimit -s' on the system is set to 'unlimited'. This may have negative performance implications. Please set the stack size to the default value (10240) 
[1537439333.198812] [r8n3:19993:0]         mxm.c:196  MXM  WARN  The 'ulimit -s' on the system is set to 'unlimited'. This may have negative performance implications. Please set the stack size to the default value (10240) 
 argument  1 = -
                                         
                                         


              Northwest Computational Chemistry Package (NWChem) 6.6
              ------------------------------------------------------


                    Environmental Molecular Sciences Laboratory
                       Pacific Northwest National Laboratory
                                Richland, WA 99352

                              Copyright (c) 1994-2015
                       Pacific Northwest National Laboratory
                            Battelle Memorial Institute

             NWChem is an open-source computational chemistry package
                        distributed under the terms of the
                      Educational Community License (ECL) 2.0
             A copy of the license is included with this distribution
                              in the LICENSE.TXT file

                                  ACKNOWLEDGMENT
                                  --------------

            This software and its documentation were developed at the
            EMSL at Pacific Northwest National Laboratory, a multiprogram
            national laboratory, operated for the U.S. Department of Energy
            by Battelle under Contract Number DE-AC05-76RL01830. Support
            for this work was provided by the Department of Energy Office
            of Biological and Environmental Research, Office of Basic
            Energy Sciences, and the Office of Advanced Scientific Computing.


           Job information
           ---------------

    hostname        = r8n3.niserhpc.org
    program         = /home/bikashp/Code/nwchem-6.6_tpssloc/bin/LINUX64/nwchem
    date            = Thu Sep 20 15:58:53 2018

    compiled        = Tue_Sep_18_16:24:59_2018
    source          = /home/bikashp/Code/nwchem-6.6_tpssloc
    nwchem branch   = 6.6
    nwchem revision = 27746
    ga revision     = 10594
    input           = nwchem.nw
    prefix          = C4H8_Cyclobutane.
    data base       = ./C4H8_Cyclobutane.db
    status          = startup
    nproc           =        1
    time left       =     -1s



           Memory information
           ------------------

    heap     =   13107196 doubles =    100.0 Mbytes
    stack    =   13107201 doubles =    100.0 Mbytes
    global   =   26214400 doubles =    200.0 Mbytes (distinct from heap & stack)
    total    =   52428797 doubles =    400.0 Mbytes
    verify   = yes
    hardfail = no 


           Directory information
           ---------------------

  0 permanent = .
  0 scratch   = .




                                NWChem Input Module
                                -------------------



 Scaling coordinates for geometry "geometry" by  1.889725989
 (inverse scale =  0.529177249)

 D2D symmetry detected

          ------
          auto-z
          ------


                             Geometry "geometry" -> ""
                             -------------------------

 Output coordinates in angstroms (scale by  1.889725989 to convert to a.u.)

  No.       Tag          Charge          X              Y              Z
 ---- ---------------- ---------- -------------- -------------- --------------
    1 C                    6.0000     0.75741177     0.75741177     0.14762600
    2 C                    6.0000    -0.75741177    -0.75741177     0.14762600
    3 C                    6.0000    -0.75741177     0.75741177    -0.14762600
    4 C                    6.0000     0.75741177    -0.75741177    -0.14762600
    5 H                    1.0000     1.40492077     1.40492077    -0.45007700
    6 H                    1.0000     0.94958855     0.94958855     1.20752000
    7 H                    1.0000    -1.40492077    -1.40492077    -0.45007700
    8 H                    1.0000    -0.94958855    -0.94958855     1.20752000
    9 H                    1.0000    -1.40492077     1.40492077     0.45007700
   10 H                    1.0000    -0.94958855     0.94958855    -1.20752000
   11 H                    1.0000     1.40492077    -1.40492077     0.45007700
   12 H                    1.0000     0.94958855    -0.94958855    -1.20752000

      Atomic Mass 
      ----------- 

      C                 12.000000
      H                  1.007825


 Effective nuclear repulsion energy (a.u.)     127.5462305520

            Nuclear Dipole moment (a.u.) 
            ----------------------------
        X                 Y               Z
 ---------------- ---------------- ----------------
     0.0000000000    -0.0000000000     0.0000000000

      Symmetry information
      --------------------

 Group name             D2d       
 Group number             32
 Group order               8
 No. of unique centers     3

      Symmetry unique atoms

     1    5    6



                                Z-matrix (autoz)
                                -------- 

 Units are Angstrom for bonds and degrees for angles

      Type          Name      I     J     K     L     M      Value
      ----------- --------  ----- ----- ----- ----- ----- ----------
    1 Stretch                  1     3                       1.54333
    2 Stretch                  1     4                       1.54333
    3 Stretch                  1     5                       1.09352
    4 Stretch                  1     6                       1.09418
    5 Stretch                  2     3                       1.54333
    6 Stretch                  2     4                       1.54333
    7 Stretch                  2     7                       1.09352
    8 Stretch                  2     8                       1.09418
    9 Stretch                  3     9                       1.09352
   10 Stretch                  3    10                       1.09418
   11 Stretch                  4    11                       1.09352
   12 Stretch                  4    12                       1.09418
   13 Bend                     1     3     2                87.90257
   14 Bend                     1     3     9               118.46551
   15 Bend                     1     3    10               110.95926
   16 Bend                     1     4     2                87.90257
   17 Bend                     1     4    11               118.46551
   18 Bend                     1     4    12               110.95926
   19 Bend                     2     3     9               118.46551
   20 Bend                     2     3    10               110.95926
   21 Bend                     2     4    11               118.46551
   22 Bend                     2     4    12               110.95926
   23 Bend                     3     1     4                87.90257
   24 Bend                     3     1     5               118.46551
   25 Bend                     3     1     6               110.95926
   26 Bend                     3     2     4                87.90257
   27 Bend                     3     2     7               118.46551
   28 Bend                     3     2     8               110.95926
   29 Bend                     4     1     5               118.46551
   30 Bend                     4     1     6               110.95926
   31 Bend                     4     2     7               118.46551
   32 Bend                     4     2     8               110.95926
   33 Bend                     5     1     6               108.75118
   34 Bend                     7     2     8               108.75118
   35 Bend                     9     3    10               108.75118
   36 Bend                    11     4    12               108.75118
   37 Torsion                  1     3     2     4         -21.66062
   38 Torsion                  1     3     2     7        -143.17306
   39 Torsion                  1     3     2     8          90.01039
   40 Torsion                  1     4     2     3          21.66062
   41 Torsion                  1     4     2     7         143.17306
   42 Torsion                  1     4     2     8         -90.01039
   43 Torsion                  2     3     1     4          21.66062
   44 Torsion                  2     3     1     5         143.17306
   45 Torsion                  2     3     1     6         -90.01039
   46 Torsion                  2     4     1     3         -21.66062
   47 Torsion                  2     4     1     5        -143.17306
   48 Torsion                  2     4     1     6          90.01039
   49 Torsion                  3     1     4    11        -143.17306
   50 Torsion                  3     1     4    12          90.01039
   51 Torsion                  3     2     4    11         143.17306
   52 Torsion                  3     2     4    12         -90.01039
   53 Torsion                  4     1     3     9         143.17306
   54 Torsion                  4     1     3    10         -90.01039
   55 Torsion                  4     2     3     9        -143.17306
   56 Torsion                  4     2     3    10          90.01039
   57 Torsion                  5     1     3     9         -95.31450
   58 Torsion                  5     1     3    10          31.50205
   59 Torsion                  5     1     4    11          95.31450
   60 Torsion                  5     1     4    12         -31.50205
   61 Torsion                  6     1     3     9          31.50205
   62 Torsion                  6     1     3    10         158.31861
   63 Torsion                  6     1     4    11         -31.50205
   64 Torsion                  6     1     4    12        -158.31861
   65 Torsion                  7     2     3     9          95.31450
   66 Torsion                  7     2     3    10         -31.50205
   67 Torsion                  7     2     4    11         -95.31450
   68 Torsion                  7     2     4    12          31.50205
   69 Torsion                  8     2     3     9         -31.50205
   70 Torsion                  8     2     3    10        -158.31861
   71 Torsion                  8     2     4    11          31.50205
   72 Torsion                  8     2     4    12         158.31861


            XYZ format geometry
            -------------------
    12
 geometry
 C                     0.75741177     0.75741177     0.14762600
 C                    -0.75741177    -0.75741177     0.14762600
 C                    -0.75741177     0.75741177    -0.14762600
 C                     0.75741177    -0.75741177    -0.14762600
 H                     1.40492077     1.40492077    -0.45007700
 H                     0.94958855     0.94958855     1.20752000
 H                    -1.40492077    -1.40492077    -0.45007700
 H                    -0.94958855    -0.94958855     1.20752000
 H                    -1.40492077     1.40492077     0.45007700
 H                    -0.94958855     0.94958855    -1.20752000
 H                     1.40492077    -1.40492077     0.45007700
 H                     0.94958855    -0.94958855    -1.20752000

 ==============================================================================
                                internuclear distances
 ------------------------------------------------------------------------------
       center one      |      center two      | atomic units |  angstroms
 ------------------------------------------------------------------------------
    3 C                |   1 C                |     2.91647  |     1.54333
    3 C                |   2 C                |     2.91647  |     1.54333
    4 C                |   1 C                |     2.91647  |     1.54333
    4 C                |   2 C                |     2.91647  |     1.54333
    5 H                |   1 C                |     2.06645  |     1.09352
    6 H                |   1 C                |     2.06771  |     1.09418
    7 H                |   2 C                |     2.06645  |     1.09352
    8 H                |   2 C                |     2.06771  |     1.09418
    9 H                |   3 C                |     2.06645  |     1.09352
   10 H                |   3 C                |     2.06771  |     1.09418
   11 H                |   4 C                |     2.06645  |     1.09352
   12 H                |   4 C                |     2.06771  |     1.09418
 ------------------------------------------------------------------------------
                         number of included internuclear distances:         12
 ==============================================================================



 ==============================================================================
                                 internuclear angles
 ------------------------------------------------------------------------------
        center 1       |       center 2       |       center 3       |  degrees
 ------------------------------------------------------------------------------
    3 C                |   1 C                |   4 C                |    87.90
    3 C                |   1 C                |   5 H                |   118.47
    3 C                |   1 C                |   6 H                |   110.96
    4 C                |   1 C                |   5 H                |   118.47
    4 C                |   1 C                |   6 H                |   110.96
    5 H                |   1 C                |   6 H                |   108.75
    3 C                |   2 C                |   4 C                |    87.90
    3 C                |   2 C                |   7 H                |   118.47
    3 C                |   2 C                |   8 H                |   110.96
    4 C                |   2 C                |   7 H                |   118.47
    4 C                |   2 C                |   8 H                |   110.96
    7 H                |   2 C                |   8 H                |   108.75
    1 C                |   3 C                |   2 C                |    87.90
    1 C                |   3 C                |   9 H                |   118.47
    1 C                |   3 C                |  10 H                |   110.96
    2 C                |   3 C                |   9 H                |   118.47
    2 C                |   3 C                |  10 H                |   110.96
    9 H                |   3 C                |  10 H                |   108.75
    1 C                |   4 C                |   2 C                |    87.90
    1 C                |   4 C                |  11 H                |   118.47
    1 C                |   4 C                |  12 H                |   110.96
    2 C                |   4 C                |  11 H                |   118.47
    2 C                |   4 C                |  12 H                |   110.96
   11 H                |   4 C                |  12 H                |   108.75
 ------------------------------------------------------------------------------
                            number of included internuclear angles:         24
 ==============================================================================





 Summary of "ao basis" -> "" (cartesian)
 ------------------------------------------------------------------------------
       Tag                 Description            Shells   Functions and Types
 ---------------- ------------------------------  ------  ---------------------
 *                     6-311++G(3df,3pd)              on all atoms 



                                 NWChem DFT Module
                                 -----------------


                      Basis "ao basis" -> "ao basis" (cartesian)
                      -----
  C (Carbon)
  ----------
            Exponent  Coefficients 
       -------------- ---------------------------------------------------------
  1 S  4.56324000E+03  0.001967
  1 S  6.82024000E+02  0.015231
  1 S  1.54973000E+02  0.076127
  1 S  4.44553000E+01  0.260801
  1 S  1.30290000E+01  0.616462
  1 S  1.82773000E+00  0.221006

  2 S  2.09642000E+01  0.114660
  2 S  4.80331000E+00  0.919999
  2 S  1.45933000E+00 -0.003031

  3 P  2.09642000E+01  0.040249
  3 P  4.80331000E+00  0.237594
  3 P  1.45933000E+00  0.815854

  4 S  4.83456000E-01  1.000000

  5 P  4.83456000E-01  1.000000

  6 S  1.45585000E-01  1.000000

  7 P  1.45585000E-01  1.000000

  8 S  4.38000000E-02  1.000000

  9 P  4.38000000E-02  1.000000

 10 D  2.50400000E+00  1.000000

 11 D  6.26000000E-01  1.000000

 12 D  1.56500000E-01  1.000000

 13 F  8.00000000E-01  1.000000

  H (Hydrogen)
  ------------
            Exponent  Coefficients 
       -------------- ---------------------------------------------------------
  1 S  3.38650000E+01  0.025494
  1 S  5.09479000E+00  0.190373
  1 S  1.15879000E+00  0.852161

  2 S  3.25840000E-01  1.000000

  3 S  1.02741000E-01  1.000000

  4 S  3.60000000E-02  1.000000

  5 P  3.00000000E+00  1.000000

  6 P  7.50000000E-01  1.000000

  7 P  1.87500000E-01  1.000000

  8 D  1.00000000E+00  1.000000



 Summary of "ao basis" -> "ao basis" (cartesian)
 ------------------------------------------------------------------------------
       Tag                 Description            Shells   Functions and Types
 ---------------- ------------------------------  ------  ---------------------
 C                     6-311++G(3df,3pd)            13       45   5s4p3d1f
 H                     6-311++G(3df,3pd)             8       19   4s3p1d




 Summary of "ao basis" -> "ao basis" (cartesian)
 ------------------------------------------------------------------------------
       Tag                 Description            Shells   Functions and Types
 ---------------- ------------------------------  ------  ---------------------
 C                     6-311++G(3df,3pd)            13       45   5s4p3d1f
 H                     6-311++G(3df,3pd)             8       19   4s3p1d


      Symmetry analysis of basis
      --------------------------

        a1         59
        a2         24
        b1         24
        b2         59
        e         166

  Caching 1-el integrals 

            General Information
            -------------------
          SCF calculation type: DFT
          Wavefunction type:  closed shell.
          No. of atoms     :    12
          No. of electrons :    32
           Alpha electrons :    16
            Beta electrons :    16
          Charge           :     0
          Spin multiplicity:     1
          Use of symmetry is: on ; symmetry adaption is: on 
          Maximum number of iterations: ***
          AO basis - number of functions:   332
                     number of shells:   116
          Convergence on energy requested: 1.00D-06
          Convergence on density requested: 1.00D-05
          Convergence on gradient requested: 5.00D-04

              XC Information
              --------------
                  TPSS metaGGA Exchange Functional  1.000          
             TPSS03 metaGGA Correlation Functional  1.000          

             Grid Information
             ----------------
          Grid used for XC integration:  medium    
          Radial quadrature: Mura-Knowles        
          Angular quadrature: Lebedev. 
          Tag              B.-S. Rad. Rad. Pts. Rad. Cut. Ang. Pts.
          ---              ---------- --------- --------- ---------
          C                   0.70       49          13.0       434
          H                   0.35       45          14.0       434
          Grid pruning is: on 
          Number of quadrature shells:   139
          Spatial weights used:  Erf1

          Convergence Information
          -----------------------
          Convergence aids based upon iterative change in 
          total energy or number of iterations. 
          Levelshifting, if invoked, occurs when the 
          HOMO/LUMO gap drops below (HL_TOL): 1.00D-02
          DIIS, if invoked, will attempt to extrapolate 
          using up to (NFOCK): 10 stored Fock matrices.

                    Damping( 0%)  Levelshifting(0.5)       DIIS
                  --------------- ------------------- ---------------
          dE  on:    start            ASAP                start   
          dE off:    2 iters        *** iters           *** iters 


      Screening Tolerance Information
      -------------------------------
          Density screening/tol_rho: 1.00D-10
          AO Gaussian exp screening on grid/accAOfunc:  14
          CD Gaussian exp screening on grid/accCDfunc:  20
          XC Gaussian exp screening on grid/accXCfunc:  20
          Schwarz screening/accCoul: 1.00D-08


 WARNING : Found     2 linear dependencies 
 S eigenvalue threshold:     1.00000E-05
 Smallest S eigenvalue :     2.54304E-06
 Largest  S eigenvalue :     5.68245E-06


 !! The overlap matrix has   2 vectors deemed linearly dependent with
    eigenvalues:
 2.54D-06 5.68D-06


      Superposition of Atomic Density Guess
      -------------------------------------

 Sum of atomic energies:        -154.67501682

      Non-variational initial energy
      ------------------------------

 Total energy =    -157.781826
 1-e energy   =    -457.739334
 2-e energy   =     172.411278
 HOMO         =      -0.375598
 LUMO         =       0.025360


      Symmetry analysis of molecular orbitals - initial
      -------------------------------------------------

  Numbering of irreducible representations: 

     1 a1          2 a2          3 b1          4 b2          5 e       

  Orbital symmetries:

     1 a1          2 e           3 e           4 b2          5 a1      
     6 e           7 e           8 b2          9 b2         10 a1      
    11 e          12 e          13 b1         14 a1         15 e       
    16 e          17 a1         18 e          19 e          20 b2      
    21 b2         22 a1         23 e          24 e          25 e       
    26 e       

   Time after variat. SCF:     11.8
   Time prior to 1st pass:     11.8

 Integral file          = ./C4H8_Cyclobutane.aoints.0
 Record size in doubles =    65536    No. of integs per rec  =    32766
 Max. records in memory =        0    Max. records in file   = ********
 No. of bits per label  =       16    No. of bits per value  =       64


 #quartets = 3.346D+06 #integrals = 2.121D+08 #direct =  0.0% #cached =100.0%


 Grid_pts file          = ./C4H8_Cyclobutane.gridpts.0
 Record size in doubles =  12289        No. of grid_pts per rec  =   3070
 Max. records in memory =     23        Max. recs in file   = 994610248

 Grid integrated density:      31.981839768241
 Requested integration accuracy:   0.10E-05

           Memory utilization after 1st SCF pass: 
           Heap Space remaining (MW):       12.76            12764236
          Stack Space remaining (MW):       13.11            13105244

   convergence    iter        energy       DeltaE   RMS-Dens  Diis-err    time
 ---------------- ----- ----------------- --------- --------- ---------  ------
 d= 0,ls=0.0,diis     1   -157.2399917325 -2.85D+02  1.70D-02  8.28D-01    32.5
 Grid integrated density:      32.000142699575
 Requested integration accuracy:   0.10E-05
 d= 0,ls=0.0,diis     2   -157.1751378152  6.49D-02  3.25D-03  3.31D-01    40.2
 Grid integrated density:      32.000137312499
 Requested integration accuracy:   0.10E-05
 d= 0,ls=0.0,diis     3   -157.2321430839 -5.70D-02  1.56D-03  2.02D-01    47.9
 Grid integrated density:      32.000136131120
 Requested integration accuracy:   0.10E-05
 d= 0,ls=0.0,diis     4   -157.2348129486 -2.67D-03  4.75D-04  1.23D-03    55.7
 Grid integrated density:      32.000138053861
 Requested integration accuracy:   0.10E-05
 d= 0,ls=0.0,diis     5   -157.2337346787  1.08D-03  2.25D-04  1.47D-04    63.4
 Grid integrated density:      32.000137571052
 Requested integration accuracy:   0.10E-05
  Resetting Diis
 d= 0,ls=0.0,diis     6   -157.2341521959 -4.18D-04  3.62D-05  2.51D-06    71.2
 Grid integrated density:      32.000137516230
 Requested integration accuracy:   0.10E-05
 d= 0,ls=0.0,diis     7   -157.2342136652 -6.15D-05  4.41D-06  1.53D-07    79.0
 Grid integrated density:      32.000137527736
 Requested integration accuracy:   0.10E-05
 d= 0,ls=0.0,diis     8   -157.2342486843 -3.50D-05  1.65D-06  3.69D-07    86.7
 Grid integrated density:      32.000137526719
 Requested integration accuracy:   0.10E-05
 d= 0,ls=0.0,diis     9   -157.2342201283  2.86D-05  4.58D-07  5.15D-09    94.6
 Grid integrated density:      32.000137525696
 Requested integration accuracy:   0.10E-05
 d= 0,ls=0.0,diis    10   -157.2342217246 -1.60D-06  2.90D-07  1.14D-09   102.3
 Grid integrated density:      32.000137525309
 Requested integration accuracy:   0.10E-05
 d= 0,ls=0.0,diis    11   -157.2342221952 -4.71D-07  6.08D-08  9.99D-10   110.1


         Total DFT energy =     -157.234222195167
      One electron energy =     -461.297509247912
           Coulomb energy =      201.053841344357
          Exchange energy =      -23.494208930397
       Correlation energy =       -1.042575913242
 Nuclear repulsion energy =      127.546230552026

 Numeric. integr. density =       32.000137525309

     Total iterative time =     98.3s



                  Occupations of the irreducible representations
                  ----------------------------------------------

                     irrep           alpha         beta
                     --------     --------     --------
                     a1                4.0          4.0
                     a2                0.0          0.0
                     b1                1.0          1.0
                     b2                3.0          3.0
                     e                 8.0          8.0


                       DFT Final Molecular Orbital Analysis
                       ------------------------------------

 Vector    4  Occ=2.000000D+00  E=-1.005384D+01  Symmetry=b2
              MO Center=  1.9D-11,  1.0D-11,  5.7D-17, r^2= 1.2D+00
   Bfn.  Coefficient  Atom+Function         Bfn.  Coefficient  Atom+Function  
  ----- ------------  ---------------      ----- ------------  ---------------
     1      0.281074   1 C  s                46      0.281074   2 C  s         
    91     -0.281074   3 C  s               136     -0.281074   4 C  s         
     2      0.232851   1 C  s                47      0.232851   2 C  s         
    92     -0.232851   3 C  s               137     -0.232851   4 C  s         

 Vector    5  Occ=2.000000D+00  E=-8.451893D-01  Symmetry=a1
              MO Center=  4.7D-17, -1.7D-18, -1.2D-17, r^2= 1.5D+00
   Bfn.  Coefficient  Atom+Function         Bfn.  Coefficient  Atom+Function  
  ----- ------------  ---------------      ----- ------------  ---------------
    10      0.226945   1 C  s                55      0.226945   2 C  s         
   100      0.226945   3 C  s               145      0.226945   4 C  s         
     6      0.210672   1 C  s                51      0.210672   2 C  s         
    96      0.210672   3 C  s               141      0.210672   4 C  s         

 Vector    6  Occ=2.000000D+00  E=-6.597225D-01  Symmetry=e
              MO Center= -1.5D-15, -2.6D-15,  1.4D-01, r^2= 2.6D+00
   Bfn.  Coefficient  Atom+Function         Bfn.  Coefficient  Atom+Function  
  ----- ------------  ---------------      ----- ------------  ---------------
     6      0.270103   1 C  s                51     -0.270103   2 C  s         
    11      0.201656   1 C  px               56      0.201656   2 C  px        
   101      0.182724   3 C  px              146      0.182724   4 C  px        
    12      0.151197   1 C  py               57      0.151197   2 C  py        

 Vector    7  Occ=2.000000D+00  E=-6.597225D-01  Symmetry=e
              MO Center= -6.8D-15,  5.9D-15, -1.4D-01, r^2= 2.6D+00
   Bfn.  Coefficient  Atom+Function         Bfn.  Coefficient  Atom+Function  
  ----- ------------  ---------------      ----- ------------  ---------------
    96      0.270103   3 C  s               141     -0.270103   4 C  s         
   102      0.201656   3 C  py              147      0.201656   4 C  py        
    12      0.182724   1 C  py               57      0.182724   2 C  py        
   101     -0.151197   3 C  px              146     -0.151197   4 C  px        

 Vector    8  Occ=2.000000D+00  E=-5.579656D-01  Symmetry=b2
              MO Center=  8.8D-15,  3.5D-16, -1.7D-16, r^2= 3.0D+00
   Bfn.  Coefficient  Atom+Function         Bfn.  Coefficient  Atom+Function  
  ----- ------------  ---------------      ----- ------------  ---------------
     6      0.135348   1 C  s                51      0.135348   2 C  s         
    96     -0.135348   3 C  s               141     -0.135348   4 C  s         

 Vector    9  Occ=2.000000D+00  E=-4.990580D-01  Symmetry=b2
              MO Center= -2.6D-15,  2.7D-15, -1.1D-16, r^2= 3.0D+00
   Bfn.  Coefficient  Atom+Function         Bfn.  Coefficient  Atom+Function  
  ----- ------------  ---------------      ----- ------------  ---------------
   182     -0.103847   5 H  s               220     -0.103847   7 H  s         
   258      0.103847   9 H  s               296      0.103847  11 H  s         
     9      0.096903   1 C  pz               54      0.096903   2 C  pz        
    99      0.096903   3 C  pz              144      0.096903   4 C  pz        

 Vector   10  Occ=2.000000D+00  E=-4.961410D-01  Symmetry=a1
              MO Center=  1.5D-15, -8.8D-15, -6.0D-17, r^2= 2.9D+00
   Bfn.  Coefficient  Atom+Function         Bfn.  Coefficient  Atom+Function  
  ----- ------------  ---------------      ----- ------------  ---------------
    10      0.280953   1 C  s                55      0.280953   2 C  s         
   100      0.280953   3 C  s               145      0.280953   4 C  s         

 Vector   11  Occ=2.000000D+00  E=-3.992289D-01  Symmetry=e
              MO Center=  5.9D-15, -5.0D-15, -3.1D-01, r^2= 2.9D+00
   Bfn.  Coefficient  Atom+Function         Bfn.  Coefficient  Atom+Function  
  ----- ------------  ---------------      ----- ------------  ---------------
   104     -0.227557   3 C  s               149      0.227557   4 C  s         
   103      0.213699   3 C  pz              148     -0.213699   4 C  pz        
    99      0.167772   3 C  pz              144     -0.167772   4 C  pz        

 Vector   12  Occ=2.000000D+00  E=-3.992289D-01  Symmetry=e
              MO Center= -1.8D-14,  1.3D-14,  3.1D-01, r^2= 2.9D+00
   Bfn.  Coefficient  Atom+Function         Bfn.  Coefficient  Atom+Function  
  ----- ------------  ---------------      ----- ------------  ---------------
    14      0.227557   1 C  s                59     -0.227557   2 C  s         
    13      0.213699   1 C  pz               58     -0.213699   2 C  pz        
     9      0.167772   1 C  pz               54     -0.167772   2 C  pz        

 Vector   13  Occ=2.000000D+00  E=-3.858014D-01  Symmetry=b1
              MO Center=  3.7D-14, -1.7D-14,  1.9D-16, r^2= 2.2D+00
   Bfn.  Coefficient  Atom+Function         Bfn.  Coefficient  Atom+Function  
  ----- ------------  ---------------      ----- ------------  ---------------
    11      0.157330   1 C  px               12     -0.157330   1 C  py        
    56     -0.157330   2 C  px               57      0.157330   2 C  py        
   101     -0.157330   3 C  px              102     -0.157330   3 C  py        
   146      0.157330   4 C  px              147      0.157330   4 C  py        

 Vector   14  Occ=2.000000D+00  E=-3.274886D-01  Symmetry=a1
              MO Center= -7.9D-15,  7.5D-15,  8.3D-17, r^2= 3.4D+00
   Bfn.  Coefficient  Atom+Function         Bfn.  Coefficient  Atom+Function  
  ----- ------------  ---------------      ----- ------------  ---------------
    13      0.259302   1 C  pz               58      0.259302   2 C  pz        
   103     -0.259302   3 C  pz              148     -0.259302   4 C  pz        

 Vector   15  Occ=2.000000D+00  E=-3.270622D-01  Symmetry=e
              MO Center= -2.5D-15,  4.6D-15, -8.1D-03, r^2= 2.7D+00
   Bfn.  Coefficient  Atom+Function         Bfn.  Coefficient  Atom+Function  
  ----- ------------  ---------------      ----- ------------  ---------------
    12     -0.371025   1 C  py               57     -0.371025   2 C  py        
    11     -0.368055   1 C  px               56     -0.368055   2 C  px        
    10      0.363127   1 C  s                55     -0.363127   2 C  s         
   102     -0.317949   3 C  py              147     -0.317949   4 C  py        
   101      0.314478   3 C  px              146      0.314478   4 C  px        

 Vector   16  Occ=2.000000D+00  E=-3.270622D-01  Symmetry=e
              MO Center= -2.0D-14, -1.3D-15,  8.1D-03, r^2= 2.7D+00
   Bfn.  Coefficient  Atom+Function         Bfn.  Coefficient  Atom+Function  
  ----- ------------  ---------------      ----- ------------  ---------------
   101      0.371025   3 C  px              146      0.371025   4 C  px        
   102     -0.368055   3 C  py              147     -0.368055   4 C  py        
   100      0.363127   3 C  s               145     -0.363127   4 C  s         
    11      0.317949   1 C  px               56      0.317949   2 C  px        
    12      0.314478   1 C  py               57      0.314478   2 C  py        

 Vector   17  Occ=0.000000D+00  E=-3.574391D-02  Symmetry=a1
              MO Center=  3.5D-15,  8.7D-16,  2.0D-15, r^2= 9.4D+00
   Bfn.  Coefficient  Atom+Function         Bfn.  Coefficient  Atom+Function  
  ----- ------------  ---------------      ----- ------------  ---------------
    14      0.822345   1 C  s                59      0.822345   2 C  s         
   104      0.822345   3 C  s               149      0.822345   4 C  s         
   203     -0.537468   6 H  s               241     -0.537468   8 H  s         
   279     -0.537468  10 H  s               317     -0.537468  12 H  s         
   184     -0.375054   5 H  s               222     -0.375054   7 H  s         

 Vector   18  Occ=0.000000D+00  E=-1.662197D-02  Symmetry=b2
              MO Center=  3.8D-14,  6.7D-14,  7.5D-14, r^2= 1.1D+01
   Bfn.  Coefficient  Atom+Function         Bfn.  Coefficient  Atom+Function  
  ----- ------------  ---------------      ----- ------------  ---------------
   203      0.879844   6 H  s               241      0.879844   8 H  s         
   279     -0.879844  10 H  s               317     -0.879844  12 H  s         
   184     -0.604653   5 H  s               222     -0.604653   7 H  s         
   260      0.604653   9 H  s               298      0.604653  11 H  s         
    17     -0.316103   1 C  pz               62     -0.316103   2 C  pz        

 Vector   19  Occ=0.000000D+00  E=-1.311091D-02  Symmetry=e
              MO Center= -1.5D-13, -2.6D-15,  2.5D-04, r^2= 1.1D+01
   Bfn.  Coefficient  Atom+Function         Bfn.  Coefficient  Atom+Function  
  ----- ------------  ---------------      ----- ------------  ---------------
    14      3.439585   1 C  s                59     -3.439585   2 C  s         
   104     -1.144882   3 C  s               149      1.144882   4 C  s         
    10      0.971536   1 C  s                55     -0.971536   2 C  s         
   184     -0.936912   5 H  s               222      0.936912   7 H  s         
   203     -0.591131   6 H  s               241      0.591131   8 H  s         

 Vector   20  Occ=0.000000D+00  E=-1.311091D-02  Symmetry=e
              MO Center= -1.2D-13,  5.9D-14, -2.5D-04, r^2= 1.1D+01
   Bfn.  Coefficient  Atom+Function         Bfn.  Coefficient  Atom+Function  
  ----- ------------  ---------------      ----- ------------  ---------------
   104      3.439585   3 C  s               149     -3.439585   4 C  s         
    14      1.144882   1 C  s                59     -1.144882   2 C  s         
   100      0.971536   3 C  s               145     -0.971536   4 C  s         
   260     -0.936912   9 H  s               298      0.936912  11 H  s         
   279     -0.591131  10 H  s               317      0.591131  12 H  s         

 Vector   21  Occ=0.000000D+00  E= 2.364079D-02  Symmetry=a1
              MO Center=  1.5D-13,  1.2D-14, -2.8D-16, r^2= 1.5D+01
   Bfn.  Coefficient  Atom+Function         Bfn.  Coefficient  Atom+Function  
  ----- ------------  ---------------      ----- ------------  ---------------
   184      2.005022   5 H  s               222      2.005022   7 H  s         
   260      2.005022   9 H  s               298      2.005022  11 H  s         
    17      1.962759   1 C  pz               62      1.962759   2 C  pz        
   107     -1.962759   3 C  pz              152     -1.962759   4 C  pz        
   203     -1.465959   6 H  s               241     -1.465959   8 H  s         

 Vector   22  Occ=0.000000D+00  E= 2.906711D-02  Symmetry=b2
              MO Center=  8.8D-13,  1.1D-13,  2.2D-13, r^2= 1.6D+01
   Bfn.  Coefficient  Atom+Function         Bfn.  Coefficient  Atom+Function  
  ----- ------------  ---------------      ----- ------------  ---------------
   184      1.546483   5 H  s               222      1.546483   7 H  s         
   260     -1.546483   9 H  s               298     -1.546483  11 H  s         
   203      1.103456   6 H  s               241      1.103456   8 H  s         
   279     -1.103456  10 H  s               317     -1.103456  12 H  s         
    15     -0.430450   1 C  px               16     -0.430450   1 C  py        

 Vector   23  Occ=0.000000D+00  E= 4.347470D-02  Symmetry=e
              MO Center= -1.6D-12, -4.8D-13, -3.5D-01, r^2= 1.7D+01
   Bfn.  Coefficient  Atom+Function         Bfn.  Coefficient  Atom+Function  
  ----- ------------  ---------------      ----- ------------  ---------------
    14      4.569010   1 C  s                59     -4.569010   2 C  s         
   184      3.478949   5 H  s               222     -3.478949   7 H  s         
   104     -2.890385   3 C  s               149      2.890385   4 C  s         
    15     -2.258493   1 C  px               60     -2.258493   2 C  px        
   260     -2.200805   9 H  s               298      2.200805  11 H  s         

 Vector   24  Occ=0.000000D+00  E= 4.347470D-02  Symmetry=e
              MO Center=  2.5D-13, -6.8D-13,  3.5D-01, r^2= 1.7D+01
   Bfn.  Coefficient  Atom+Function         Bfn.  Coefficient  Atom+Function  
  ----- ------------  ---------------      ----- ------------  ---------------
   104      4.569010   3 C  s               149     -4.569010   4 C  s         
   260      3.478949   9 H  s               298     -3.478949  11 H  s         
    14      2.890385   1 C  s                59     -2.890385   2 C  s         
   106     -2.258493   3 C  py              151     -2.258493   4 C  py        
   184      2.200805   5 H  s               222     -2.200805   7 H  s         

 Vector   25  Occ=0.000000D+00  E= 4.933049D-02  Symmetry=e
              MO Center=  3.8D-13, -6.2D-13, -5.4D-01, r^2= 1.3D+01
   Bfn.  Coefficient  Atom+Function         Bfn.  Coefficient  Atom+Function  
  ----- ------------  ---------------      ----- ------------  ---------------
   279      3.033626  10 H  s               317     -3.033626  12 H  s         
   203      2.105767   6 H  s               241     -2.105767   8 H  s         
   104     -1.449388   3 C  s               149      1.449388   4 C  s         
   100      1.186888   3 C  s               145     -1.186888   4 C  s         
   107      1.079755   3 C  pz              152     -1.079755   4 C  pz        

 Vector   26  Occ=0.000000D+00  E= 4.933049D-02  Symmetry=e
              MO Center=  1.2D-13, -1.6D-13,  5.4D-01, r^2= 1.3D+01
   Bfn.  Coefficient  Atom+Function         Bfn.  Coefficient  Atom+Function  
  ----- ------------  ---------------      ----- ------------  ---------------
   203      3.033626   6 H  s               241     -3.033626   8 H  s         
   279     -2.105767  10 H  s               317      2.105767  12 H  s         
    14     -1.449388   1 C  s                59      1.449388   2 C  s         
    10      1.186888   1 C  s                55     -1.186888   2 C  s         
    17     -1.079755   1 C  pz               62      1.079755   2 C  pz        

 Vector   27  Occ=0.000000D+00  E= 5.912052D-02  Symmetry=b1
              MO Center=  7.9D-15,  1.7D-14, -5.6D-17, r^2= 1.2D+01
   Bfn.  Coefficient  Atom+Function         Bfn.  Coefficient  Atom+Function  
  ----- ------------  ---------------      ----- ------------  ---------------
    15      0.471612   1 C  px               16     -0.471612   1 C  py        
    60     -0.471612   2 C  px               61      0.471612   2 C  py        
   105     -0.471612   3 C  px              106     -0.471612   3 C  py        
   150      0.471612   4 C  px              151      0.471612   4 C  py        

 Vector   28  Occ=0.000000D+00  E= 7.044777D-02  Symmetry=a1
              MO Center=  6.4D-13,  8.1D-13, -6.4D-13, r^2= 2.0D+01
   Bfn.  Coefficient  Atom+Function         Bfn.  Coefficient  Atom+Function  
  ----- ------------  ---------------      ----- ------------  ---------------
   203      4.865359   6 H  s               241      4.865359   8 H  s         
   279      4.865359  10 H  s               317      4.865359  12 H  s         
    17     -4.067017   1 C  pz               62     -4.067017   2 C  pz        
   107      4.067017   3 C  pz              152      4.067017   4 C  pz        
   184     -3.734120   5 H  s               222     -3.734120   7 H  s         

 Vector   29  Occ=0.000000D+00  E= 7.354489D-02  Symmetry=b2
              MO Center= -4.5D-13,  6.4D-14,  8.4D-14, r^2= 1.3D+01
   Bfn.  Coefficient  Atom+Function         Bfn.  Coefficient  Atom+Function  
  ----- ------------  ---------------      ----- ------------  ---------------
   203      1.837601   6 H  s               241      1.837601   8 H  s         
   279     -1.837601  10 H  s               317     -1.837601  12 H  s         
   183      1.374005   5 H  s               221      1.374005   7 H  s         
   259     -1.374005   9 H  s               297     -1.374005  11 H  s         
    15     -0.954030   1 C  px               16     -0.954030   1 C  py        

 Vector   30  Occ=0.000000D+00  E= 8.207962D-02  Symmetry=e
              MO Center= -2.4D-13, -1.1D-13, -1.8D-01, r^2= 1.2D+01
   Bfn.  Coefficient  Atom+Function         Bfn.  Coefficient  Atom+Function  
  ----- ------------  ---------------      ----- ------------  ---------------
    14      7.456991   1 C  s                59     -7.456991   2 C  s         
   104      4.555164   3 C  s               149     -4.555164   4 C  s         
    17     -2.035911   1 C  pz               62      2.035911   2 C  pz        
   184     -1.781606   5 H  s               222      1.781606   7 H  s         
    16     -1.593935   1 C  py               61     -1.593935   2 C  py        

 Vector   31  Occ=0.000000D+00  E= 8.207962D-02  Symmetry=e
              MO Center= -4.0D-13,  2.2D-13,  1.8D-01, r^2= 1.2D+01
   Bfn.  Coefficient  Atom+Function         Bfn.  Coefficient  Atom+Function  
  ----- ------------  ---------------      ----- ------------  ---------------
   104      7.456991   3 C  s               149     -7.456991   4 C  s         
    14     -4.555164   1 C  s                59      4.555164   2 C  s         
   107      2.035911   3 C  pz              152     -2.035911   4 C  pz        
   260     -1.781606   9 H  s               298      1.781606  11 H  s         
   105      1.593935   3 C  px              150      1.593935   4 C  px        

 Vector   32  Occ=0.000000D+00  E= 8.597080D-02  Symmetry=a2
              MO Center=  2.2D-13, -1.0D-12,  1.9D-15, r^2= 7.2D+00
   Bfn.  Coefficient  Atom+Function         Bfn.  Coefficient  Atom+Function  
  ----- ------------  ---------------      ----- ------------  ---------------
    15      2.718160   1 C  px               16     -2.718160   1 C  py        
    60     -2.718160   2 C  px               61      2.718160   2 C  py        
   105      2.718160   3 C  px              106      2.718160   3 C  py        
   150     -2.718160   4 C  px              151     -2.718160   4 C  py        
    11      1.109008   1 C  px               12     -1.109008   1 C  py        

 Vector   33  Occ=0.000000D+00  E= 1.008270D-01  Symmetry=b2
              MO Center= -1.5D-12, -1.9D-12, -7.4D-13, r^2= 1.6D+01
   Bfn.  Coefficient  Atom+Function         Bfn.  Coefficient  Atom+Function  
  ----- ------------  ---------------      ----- ------------  ---------------
   184      3.140323   5 H  s               222      3.140323   7 H  s         
   260     -3.140323   9 H  s               298     -3.140323  11 H  s         
    15     -1.487688   1 C  px               16     -1.487688   1 C  py        
    60      1.487688   2 C  px               61      1.487688   2 C  py        
   105     -1.487688   3 C  px              106      1.487688   3 C  py        

 Vector   34  Occ=0.000000D+00  E= 1.080747D-01  Symmetry=a1
              MO Center= -1.6D-13,  8.8D-13,  7.1D-13, r^2= 2.0D+01
   Bfn.  Coefficient  Atom+Function         Bfn.  Coefficient  Atom+Function  
  ----- ------------  ---------------      ----- ------------  ---------------
    14      4.262092   1 C  s                59      4.262092   2 C  s         
   104      4.262092   3 C  s               149      4.262092   4 C  s         
   184     -2.733536   5 H  s               222     -2.733536   7 H  s         
   260     -2.733536   9 H  s               298     -2.733536  11 H  s         
    17      1.225716   1 C  pz               62      1.225716   2 C  pz        

 Vector   35  Occ=0.000000D+00  E= 1.178255D-01  Symmetry=e
              MO Center= -8.5D-13, -3.2D-13,  8.2D-03, r^2= 1.9D+01
   Bfn.  Coefficient  Atom+Function         Bfn.  Coefficient  Atom+Function  
  ----- ------------  ---------------      ----- ------------  ---------------
    14     14.365515   1 C  s                59    -14.365515   2 C  s         
   104     13.145907   3 C  s               149    -13.145907   4 C  s         
   105     -2.771083   3 C  px              150     -2.771083   4 C  px        
    15      2.617102   1 C  px               60      2.617102   2 C  px        
   184     -2.348597   5 H  s               222      2.348597   7 H  s         

 Vector   36  Occ=0.000000D+00  E= 1.178255D-01  Symmetry=e
              MO Center= -6.1D-14, -6.4D-12, -8.2D-03, r^2= 1.9D+01
   Bfn.  Coefficient  Atom+Function         Bfn.  Coefficient  Atom+Function  
  ----- ------------  ---------------      ----- ------------  ---------------
   104    -14.365515   3 C  s               149     14.365515   4 C  s         
    14     13.145907   1 C  s                59    -13.145907   2 C  s         
    16      2.771083   1 C  py               61      2.771083   2 C  py        
   106     -2.617102   3 C  py              151     -2.617102   4 C  py        
   260      2.348597   9 H  s               298     -2.348597  11 H  s         

 Vector   37  Occ=0.000000D+00  E= 1.290441D-01  Symmetry=b2
              MO Center= -3.9D-12,  8.3D-12, -2.9D-12, r^2= 2.0D+01
   Bfn.  Coefficient  Atom+Function         Bfn.  Coefficient  Atom+Function  
  ----- ------------  ---------------      ----- ------------  ---------------
   203      3.945054   6 H  s               241      3.945054   8 H  s         
   279     -3.945054  10 H  s               317     -3.945054  12 H  s         
   184      2.935152   5 H  s               222      2.935152   7 H  s         
   260     -2.935152   9 H  s               298     -2.935152  11 H  s         
    15     -1.916367   1 C  px               16     -1.916367   1 C  py        

 Vector   38  Occ=0.000000D+00  E= 1.386375D-01  Symmetry=e
              MO Center=  2.0D-12, -1.4D-12, -8.4D-02, r^2= 1.9D+01
   Bfn.  Coefficient  Atom+Function         Bfn.  Coefficient  Atom+Function  
  ----- ------------  ---------------      ----- ------------  ---------------
   104     22.777794   3 C  s               149    -22.777794   4 C  s         
    14      8.514754   1 C  s                59     -8.514754   2 C  s         
   260      8.025444   9 H  s               298     -8.025444  11 H  s         
   106     -7.114843   3 C  py              151     -7.114843   4 C  py        
   279     -6.928843  10 H  s               317      6.928843  12 H  s         

 Vector   39  Occ=0.000000D+00  E= 1.386375D-01  Symmetry=e
              MO Center=  7.9D-13,  2.4D-12,  8.4D-02, r^2= 1.9D+01
   Bfn.  Coefficient  Atom+Function         Bfn.  Coefficient  Atom+Function  
  ----- ------------  ---------------      ----- ------------  ---------------
    14     22.777794   1 C  s                59    -22.777794   2 C  s         
   104     -8.514754   3 C  s               149      8.514754   4 C  s         
   184      8.025444   5 H  s               222     -8.025444   7 H  s         
    15     -7.114843   1 C  px               60     -7.114843   2 C  px        
   203     -6.928843   6 H  s               241      6.928843   8 H  s         

 Vector   40  Occ=0.000000D+00  E= 1.400169D-01  Symmetry=a1
              MO Center= -2.8D-12, -7.0D-12,  1.8D-12, r^2= 1.8D+01
   Bfn.  Coefficient  Atom+Function         Bfn.  Coefficient  Atom+Function  
  ----- ------------  ---------------      ----- ------------  ---------------
    17     10.568586   1 C  pz               62     10.568586   2 C  pz        
   107    -10.568586   3 C  pz              152    -10.568586   4 C  pz        
   203     -6.692913   6 H  s               241     -6.692913   8 H  s         
   279     -6.692913  10 H  s               317     -6.692913  12 H  s         
   184      6.594500   5 H  s               222      6.594500   7 H  s         

 Vector   41  Occ=0.000000D+00  E= 1.580993D-01  Symmetry=e
              MO Center=  4.4D-13, -1.4D-12,  6.5D-02, r^2= 1.5D+01
   Bfn.  Coefficient  Atom+Function         Bfn.  Coefficient  Atom+Function  
  ----- ------------  ---------------      ----- ------------  ---------------
    14     13.606657   1 C  s                59    -13.606657   2 C  s         
   104    -11.854552   3 C  s               149     11.854552   4 C  s         
    15     -5.545716   1 C  px               60     -5.545716   2 C  px        
   105     -5.459977   3 C  px              150     -5.459977   4 C  px        
   203      2.932829   6 H  s               241     -2.932829   8 H  s         

 Vector   42  Occ=0.000000D+00  E= 1.580993D-01  Symmetry=e
              MO Center=  1.4D-12,  1.2D-12, -6.5D-02, r^2= 1.5D+01
   Bfn.  Coefficient  Atom+Function         Bfn.  Coefficient  Atom+Function  
  ----- ------------  ---------------      ----- ------------  ---------------
   104     13.606657   3 C  s               149    -13.606657   4 C  s         
    14     11.854552   1 C  s                59    -11.854552   2 C  s         
   106     -5.545716   3 C  py              151     -5.545716   4 C  py        
    16     -5.459977   1 C  py               61     -5.459977   2 C  py        
   279      2.932829  10 H  s               317     -2.932829  12 H  s         

 Vector   43  Occ=0.000000D+00  E= 1.730186D-01  Symmetry=b2
              MO Center=  7.3D-13, -3.7D-13,  4.7D-12, r^2= 1.2D+01
   Bfn.  Coefficient  Atom+Function         Bfn.  Coefficient  Atom+Function  
  ----- ------------  ---------------      ----- ------------  ---------------
   202      3.438953   6 H  s               240      3.438953   8 H  s         
   278     -3.438953  10 H  s               316     -3.438953  12 H  s         
   203      2.217145   6 H  s               241      2.217145   8 H  s         
   279     -2.217145  10 H  s               317     -2.217145  12 H  s         
    17     -2.026752   1 C  pz               62     -2.026752   2 C  pz        

 Vector   44  Occ=0.000000D+00  E= 1.763825D-01  Symmetry=a2
              MO Center= -8.6D-14,  9.7D-13,  4.9D-17, r^2= 1.1D+01
   Bfn.  Coefficient  Atom+Function         Bfn.  Coefficient  Atom+Function  
  ----- ------------  ---------------      ----- ------------  ---------------
    15      4.794241   1 C  px               16     -4.794241   1 C  py        
    60     -4.794241   2 C  px               61      4.794241   2 C  py        
   105      4.794241   3 C  px              106      4.794241   3 C  py        
   150     -4.794241   4 C  px              151     -4.794241   4 C  py        
    11      0.862789   1 C  px               12     -0.862789   1 C  py        

 Vector   45  Occ=0.000000D+00  E= 1.803159D-01  Symmetry=a1
              MO Center=  2.7D-13,  2.8D-13, -4.3D-12, r^2= 1.0D+01
   Bfn.  Coefficient  Atom+Function         Bfn.  Coefficient  Atom+Function  
  ----- ------------  ---------------      ----- ------------  ---------------
    14      3.833577   1 C  s                17     -3.837239   1 C  pz        
    59      3.833577   2 C  s                62     -3.837239   2 C  pz        
   104      3.833577   3 C  s               107      3.837239   3 C  pz        
   149      3.833577   4 C  s               152      3.837239   4 C  pz        
   183     -3.760436   5 H  s               221     -3.760436   7 H  s         

 Vector   46  Occ=0.000000D+00  E= 1.976331D-01  Symmetry=e
              MO Center= -1.3D-12,  3.3D-12, -1.5D-01, r^2= 1.2D+01
   Bfn.  Coefficient  Atom+Function         Bfn.  Coefficient  Atom+Function  
  ----- ------------  ---------------      ----- ------------  ---------------
   104     13.207121   3 C  s               149    -13.207121   4 C  s         
    14      8.305246   1 C  s                59     -8.305246   2 C  s         
   106     -6.318930   3 C  py              151     -6.318930   4 C  py        
   105      5.667153   3 C  px              150      5.667153   4 C  px        
   260      5.164437   9 H  s               298     -5.164437  11 H  s         

 Vector   47  Occ=0.000000D+00  E= 1.976331D-01  Symmetry=e
              MO Center=  3.3D-12,  1.9D-12,  1.5D-01, r^2= 1.2D+01
   Bfn.  Coefficient  Atom+Function         Bfn.  Coefficient  Atom+Function  
  ----- ------------  ---------------      ----- ------------  ---------------
    14     13.207121   1 C  s                59    -13.207121   2 C  s         
   104     -8.305246   3 C  s               149      8.305246   4 C  s         
    15     -6.318930   1 C  px               60     -6.318930   2 C  px        
    16     -5.667153   1 C  py               61     -5.667153   2 C  py        
   184      5.164437   5 H  s               222     -5.164437   7 H  s         

 Vector   48  Occ=0.000000D+00  E= 2.226169D-01  Symmetry=a2
              MO Center=  2.6D-13,  7.9D-14,  1.8D-14, r^2= 9.1D+00
   Bfn.  Coefficient  Atom+Function         Bfn.  Coefficient  Atom+Function  
  ----- ------------  ---------------      ----- ------------  ---------------
    15      3.596810   1 C  px               16     -3.596810   1 C  py        
    60     -3.596810   2 C  px               61      3.596810   2 C  py        
   105      3.596810   3 C  px              106      3.596810   3 C  py        
   150     -3.596810   4 C  px              151     -3.596810   4 C  py        
    11      0.918592   1 C  px               12     -0.918592   1 C  py        

 Vector   49  Occ=0.000000D+00  E= 2.429961D-01  Symmetry=b2
              MO Center= -6.5D-12,  4.1D-11, -2.7D-12, r^2= 1.1D+01
   Bfn.  Coefficient  Atom+Function         Bfn.  Coefficient  Atom+Function  
  ----- ------------  ---------------      ----- ------------  ---------------
   183      3.591485   5 H  s               221      3.591485   7 H  s         
   259     -3.591485   9 H  s               297     -3.591485  11 H  s         
   184      2.598443   5 H  s               222      2.598443   7 H  s         
   260     -2.598443   9 H  s               298     -2.598443  11 H  s         
    15     -2.556301   1 C  px               16     -2.556301   1 C  py        

 Vector   50  Occ=0.000000D+00  E= 2.505040D-01  Symmetry=e
              MO Center= -5.8D-12, -3.2D-11, -5.0D-02, r^2= 1.3D+01
   Bfn.  Coefficient  Atom+Function         Bfn.  Coefficient  Atom+Function  
  ----- ------------  ---------------      ----- ------------  ---------------
    14     39.335311   1 C  s                59    -39.335311   2 C  s         
   104    -22.589819   3 C  s               149     22.589819   4 C  s         
    15     -6.765727   1 C  px               60     -6.765727   2 C  px        
   105     -6.525809   3 C  px              150     -6.525809   4 C  px        
   183     -5.390435   5 H  s               221      5.390435   7 H  s         

 Vector   51  Occ=0.000000D+00  E= 2.505040D-01  Symmetry=e
              MO Center=  1.3D-11,  2.1D-12,  5.0D-02, r^2= 1.3D+01
   Bfn.  Coefficient  Atom+Function         Bfn.  Coefficient  Atom+Function  
  ----- ------------  ---------------      ----- ------------  ---------------
   104     39.335311   3 C  s               149    -39.335311   4 C  s         
    14     22.589819   1 C  s                59    -22.589819   2 C  s         
   106     -6.765727   3 C  py              151     -6.765727   4 C  py        
    16     -6.525809   1 C  py               61     -6.525809   2 C  py        
   259     -5.390435   9 H  s               297      5.390435  11 H  s         

 Vector   52  Occ=0.000000D+00  E= 2.595637D-01  Symmetry=a1
              MO Center= -9.7D-13, -2.0D-12,  8.4D-13, r^2= 1.2D+01
   Bfn.  Coefficient  Atom+Function         Bfn.  Coefficient  Atom+Function  
  ----- ------------  ---------------      ----- ------------  ---------------
   184      2.986451   5 H  s               222      2.986451   7 H  s         
   260      2.986451   9 H  s               298      2.986451  11 H  s         
    10     -2.203312   1 C  s                55     -2.203312   2 C  s         
   100     -2.203312   3 C  s               145     -2.203312   4 C  s         
   203     -2.178279   6 H  s               241     -2.178279   8 H  s         

 Vector   53  Occ=0.000000D+00  E= 2.840059D-01  Symmetry=a1
              MO Center=  4.8D-13, -3.0D-12,  1.7D-12, r^2= 1.3D+01
   Bfn.  Coefficient  Atom+Function         Bfn.  Coefficient  Atom+Function  
  ----- ------------  ---------------      ----- ------------  ---------------
    17     12.562042   1 C  pz               62     12.562042   2 C  pz        
   107    -12.562042   3 C  pz              152    -12.562042   4 C  pz        
   202     -7.962891   6 H  s               240     -7.962891   8 H  s         
   278     -7.962891  10 H  s               316     -7.962891  12 H  s         
   203     -7.389823   6 H  s               241     -7.389823   8 H  s         

 Vector   54  Occ=0.000000D+00  E= 2.930554D-01  Symmetry=b1
              MO Center=  3.9D-14, -2.2D-14, -1.5D-14, r^2= 9.8D+00
   Bfn.  Coefficient  Atom+Function         Bfn.  Coefficient  Atom+Function  
  ----- ------------  ---------------      ----- ------------  ---------------
    15      0.524317   1 C  px               16     -0.524317   1 C  py        
    60     -0.524317   2 C  px               61      0.524317   2 C  py        
   105     -0.524317   3 C  px              106     -0.524317   3 C  py        
   150      0.524317   4 C  px              151      0.524317   4 C  py        
    30     -0.506795   1 C  dxx              33      0.506795   1 C  dyy       

 Vector   55  Occ=0.000000D+00  E= 2.938754D-01  Symmetry=e
              MO Center=  2.8D-12, -6.4D-12, -1.2D-02, r^2= 1.2D+01
   Bfn.  Coefficient  Atom+Function         Bfn.  Coefficient  Atom+Function  
  ----- ------------  ---------------      ----- ------------  ---------------
    14     16.132754   1 C  s                59    -16.132754   2 C  s         
   104    -15.290868   3 C  s               149     15.290868   4 C  s         
   202     -5.873655   6 H  s               240      5.873655   8 H  s         
   278      5.567139  10 H  s               316     -5.567139  12 H  s         
    15     -3.990071   1 C  px               60     -3.990071   2 C  px        

 Vector   56  Occ=0.000000D+00  E= 2.938754D-01  Symmetry=e
              MO Center= -1.2D-12, -2.6D-12,  1.2D-02, r^2= 1.2D+01
   Bfn.  Coefficient  Atom+Function         Bfn.  Coefficient  Atom+Function  
  ----- ------------  ---------------      ----- ------------  ---------------
   104     16.132754   3 C  s               149    -16.132754   4 C  s         
    14     15.290868   1 C  s                59    -15.290868   2 C  s         
   278     -5.873655  10 H  s               316      5.873655  12 H  s         
   202     -5.567139   6 H  s               240      5.567139   8 H  s         
   106     -3.990071   3 C  py              151     -3.990071   4 C  py        

 Vector   57  Occ=0.000000D+00  E= 3.188787D-01  Symmetry=b2
              MO Center=  1.8D-12,  3.4D-12, -2.8D-12, r^2= 1.2D+01
   Bfn.  Coefficient  Atom+Function         Bfn.  Coefficient  Atom+Function  
  ----- ------------  ---------------      ----- ------------  ---------------
   202      5.632445   6 H  s               240      5.632445   8 H  s         
   278     -5.632445  10 H  s               316     -5.632445  12 H  s         
   203      3.957515   6 H  s               241      3.957515   8 H  s         
   279     -3.957515  10 H  s               317     -3.957515  12 H  s         
   183     -3.554254   5 H  s               221     -3.554254   7 H  s         

 Vector   58  Occ=0.000000D+00  E= 3.529540D-01  Symmetry=a1
              MO Center= -2.3D-12,  5.8D-12,  2.2D-12, r^2= 1.1D+01
   Bfn.  Coefficient  Atom+Function         Bfn.  Coefficient  Atom+Function  
  ----- ------------  ---------------      ----- ------------  ---------------
   183      6.904463   5 H  s               221      6.904463   7 H  s         
   259      6.904463   9 H  s               297      6.904463  11 H  s         
    17      6.212513   1 C  pz               62      6.212513   2 C  pz        
   107     -6.212513   3 C  pz              152     -6.212513   4 C  pz        
    14     -5.221181   1 C  s                59     -5.221181   2 C  s         

 Vector   59  Occ=0.000000D+00  E= 3.590398D-01  Symmetry=e
              MO Center=  7.5D-13,  1.7D-12,  2.3D-01, r^2= 1.1D+01
   Bfn.  Coefficient  Atom+Function         Bfn.  Coefficient  Atom+Function  
  ----- ------------  ---------------      ----- ------------  ---------------
    14     13.218979   1 C  s                59    -13.218979   2 C  s         
   184      7.031752   5 H  s               222     -7.031752   7 H  s         
    15     -6.812322   1 C  px               60     -6.812322   2 C  px        
    16     -6.627379   1 C  py               61     -6.627379   2 C  py        
    17      6.507503   1 C  pz               62     -6.507503   2 C  pz        

 Vector   60  Occ=0.000000D+00  E= 3.590398D-01  Symmetry=e
              MO Center= -1.3D-13,  2.6D-13, -2.3D-01, r^2= 1.1D+01
   Bfn.  Coefficient  Atom+Function         Bfn.  Coefficient  Atom+Function  
  ----- ------------  ---------------      ----- ------------  ---------------
   104     13.218979   3 C  s               149    -13.218979   4 C  s         
   260      7.031752   9 H  s               298     -7.031752  11 H  s         
   106     -6.812322   3 C  py              151     -6.812322   4 C  py        
   105      6.627379   3 C  px              150      6.627379   4 C  px        
   107     -6.507503   3 C  pz              152      6.507503   4 C  pz        

 Vector   61  Occ=0.000000D+00  E= 4.078860D-01  Symmetry=b1
              MO Center=  6.7D-15,  1.2D-14, -1.2D-14, r^2= 6.5D+00
   Bfn.  Coefficient  Atom+Function         Bfn.  Coefficient  Atom+Function  
  ----- ------------  ---------------      ----- ------------  ---------------
    32      1.636115   1 C  dxz              34     -1.636115   1 C  dyz       
    77     -1.636115   2 C  dxz              79      1.636115   2 C  dyz       
   122      1.636115   3 C  dxz             124      1.636115   3 C  dyz       
   167     -1.636115   4 C  dxz             169     -1.636115   4 C  dyz       
   210     -0.943660   6 H  px              211      0.943660   6 H  py        

 Vector   62  Occ=0.000000D+00  E= 4.122826D-01  Symmetry=a1
              MO Center= -1.8D-12, -5.8D-13, -4.1D-13, r^2= 9.2D+00
   Bfn.  Coefficient  Atom+Function         Bfn.  Coefficient  Atom+Function  
  ----- ------------  ---------------      ----- ------------  ---------------
    14      3.370808   1 C  s                59      3.370808   2 C  s         
   104      3.370808   3 C  s               149      3.370808   4 C  s         
    17      3.101156   1 C  pz               62      3.101156   2 C  pz        
   107     -3.101156   3 C  pz              152     -3.101156   4 C  pz        
   203     -2.231076   6 H  s               241     -2.231076   8 H  s         

 Vector   63  Occ=0.000000D+00  E= 4.216308D-01  Symmetry=b2
              MO Center=  1.0D-11,  2.7D-12,  2.5D-12, r^2= 1.2D+01
   Bfn.  Coefficient  Atom+Function         Bfn.  Coefficient  Atom+Function  
  ----- ------------  ---------------      ----- ------------  ---------------
   183      3.768347   5 H  s               221      3.768347   7 H  s         
   259     -3.768347   9 H  s               297     -3.768347  11 H  s         
   202      2.111215   6 H  s               240      2.111215   8 H  s         
   278     -2.111215  10 H  s               316     -2.111215  12 H  s         
   184     -1.985064   5 H  s               222     -1.985064   7 H  s         

 Vector   64  Occ=0.000000D+00  E= 4.299700D-01  Symmetry=e
              MO Center= -7.4D-12,  3.5D-12, -4.7D-01, r^2= 1.0D+01
   Bfn.  Coefficient  Atom+Function         Bfn.  Coefficient  Atom+Function  
  ----- ------------  ---------------      ----- ------------  ---------------
   104     11.342704   3 C  s               149    -11.342704   4 C  s         
   259     -6.889130   9 H  s               297      6.889130  11 H  s         
   100      3.551679   3 C  s               145     -3.551679   4 C  s         
    14      3.152787   1 C  s                59     -3.152787   2 C  s         
   279     -3.123295  10 H  s               317      3.123295  12 H  s         

 Vector   65  Occ=0.000000D+00  E= 4.299700D-01  Symmetry=e
              MO Center= -4.5D-12, -7.8D-12,  4.7D-01, r^2= 1.0D+01
   Bfn.  Coefficient  Atom+Function         Bfn.  Coefficient  Atom+Function  
  ----- ------------  ---------------      ----- ------------  ---------------
    14     11.342704   1 C  s                59    -11.342704   2 C  s         
   183     -6.889130   5 H  s               221      6.889130   7 H  s         
    10      3.551679   1 C  s                55     -3.551679   2 C  s         
   104     -3.152787   3 C  s               149      3.152787   4 C  s         
   203     -3.123295   6 H  s               241      3.123295   8 H  s         

 Vector   66  Occ=0.000000D+00  E= 4.410296D-01  Symmetry=b2
              MO Center=  9.1D-13, -8.3D-13, -2.1D-12, r^2= 1.0D+01
   Bfn.  Coefficient  Atom+Function         Bfn.  Coefficient  Atom+Function  
  ----- ------------  ---------------      ----- ------------  ---------------
   202      4.950978   6 H  s               240      4.950978   8 H  s         
   278     -4.950978  10 H  s               316     -4.950978  12 H  s         
    13     -2.065163   1 C  pz               58     -2.065163   2 C  pz        
   103     -2.065163   3 C  pz              148     -2.065163   4 C  pz        
    35     -1.677465   1 C  dzz              80     -1.677465   2 C  dzz       

 Vector   67  Occ=0.000000D+00  E= 4.511349D-01  Symmetry=a1
              MO Center= -2.6D-11,  3.2D-11, -4.5D-13, r^2= 1.1D+01
   Bfn.  Coefficient  Atom+Function         Bfn.  Coefficient  Atom+Function  
  ----- ------------  ---------------      ----- ------------  ---------------
   183      4.585797   5 H  s               221      4.585797   7 H  s         
   259      4.585797   9 H  s               297      4.585797  11 H  s         
   202      2.307364   6 H  s               240      2.307364   8 H  s         
   278      2.307364  10 H  s               316      2.307364  12 H  s         
   184     -2.026627   5 H  s               222     -2.026627   7 H  s         

 Vector   68  Occ=0.000000D+00  E= 4.597766D-01  Symmetry=e
              MO Center=  2.1D-12, -2.4D-11,  1.4D-02, r^2= 1.0D+01
   Bfn.  Coefficient  Atom+Function         Bfn.  Coefficient  Atom+Function  
  ----- ------------  ---------------      ----- ------------  ---------------
   259      5.876969   9 H  s               297     -5.876969  11 H  s         
   183      5.569693   5 H  s               221     -5.569693   7 H  s         
   100     -2.143598   3 C  s               145      2.143598   4 C  s         
    10     -2.031520   1 C  s                55      2.031520   2 C  s         
   121      1.970650   3 C  dxy             166     -1.970650   4 C  dxy       

 Vector   69  Occ=0.000000D+00  E= 4.597766D-01  Symmetry=e
              MO Center=  1.5D-11, -1.2D-12, -1.4D-02, r^2= 1.0D+01
   Bfn.  Coefficient  Atom+Function         Bfn.  Coefficient  Atom+Function  
  ----- ------------  ---------------      ----- ------------  ---------------
   183      5.876969   5 H  s               221     -5.876969   7 H  s         
   259     -5.569693   9 H  s               297      5.569693  11 H  s         
    10     -2.143598   1 C  s                55      2.143598   2 C  s         
   100      2.031520   3 C  s               145     -2.031520   4 C  s         
    31     -1.970650   1 C  dxy              76      1.970650   2 C  dxy       

 Vector   70  Occ=0.000000D+00  E= 4.859285D-01  Symmetry=e
              MO Center=  5.7D-12,  1.4D-12, -1.7D-02, r^2= 7.5D+00
   Bfn.  Coefficient  Atom+Function         Bfn.  Coefficient  Atom+Function  
  ----- ------------  ---------------      ----- ------------  ---------------
    10     17.737501   1 C  s                55    -17.737501   2 C  s         
    14    -11.031396   1 C  s                59     11.031396   2 C  s         
    11    -10.526812   1 C  px               56    -10.526812   2 C  px        
   101    -10.184177   3 C  px              146    -10.184177   4 C  px        
   100     -7.910389   3 C  s               145      7.910389   4 C  s         

 Vector   71  Occ=0.000000D+00  E= 4.859285D-01  Symmetry=e
              MO Center= -4.1D-12, -9.5D-12,  1.7D-02, r^2= 7.5D+00
   Bfn.  Coefficient  Atom+Function         Bfn.  Coefficient  Atom+Function  
  ----- ------------  ---------------      ----- ------------  ---------------
   100     17.737501   3 C  s               145    -17.737501   4 C  s         
   104    -11.031396   3 C  s               149     11.031396   4 C  s         
   102    -10.526812   3 C  py              147    -10.526812   4 C  py        
    12    -10.184177   1 C  py               57    -10.184177   2 C  py        
    10      7.910389   1 C  s                55     -7.910389   2 C  s         

 Vector   72  Occ=0.000000D+00  E= 5.040880D-01  Symmetry=a2
              MO Center=  1.7D-12,  2.6D-11,  1.5D-14, r^2= 7.2D+00
   Bfn.  Coefficient  Atom+Function         Bfn.  Coefficient  Atom+Function  
  ----- ------------  ---------------      ----- ------------  ---------------
    11     12.202148   1 C  px               12    -12.202148   1 C  py        
    56    -12.202148   2 C  px               57     12.202148   2 C  py        
   101     12.202148   3 C  px              102     12.202148   3 C  py        
   146    -12.202148   4 C  px              147    -12.202148   4 C  py        
    30     -3.839595   1 C  dxx              33      3.839595   1 C  dyy       


 center of mass
 --------------
 x =  -0.00000000 y =  -0.00000000 z =   0.00000000

 moments of inertia (a.u.)
 ------------------
         167.372680000624          -0.000000000000           0.000000000000
          -0.000000000000         167.372680000624           0.000000000000
           0.000000000000           0.000000000000         279.459860441310

     Multipole analysis of the density
     ---------------------------------

     L   x y z        total         alpha         beta         nuclear
     -   - - -        -----         -----         ----         -------
     0   0 0 0      0.000000    -16.000000    -16.000000     32.000000

     1   1 0 0     -0.000000     -0.000000     -0.000000      0.000000
     1   0 1 0      0.000000      0.000000      0.000000     -0.000000
     1   0 0 1     -0.000000     -0.000000     -0.000000      0.000000

     2   2 0 0    -21.251923    -55.746761    -55.746761     90.241600
     2   1 1 0      0.000000      0.000000      0.000000      0.000000
     2   1 0 1      0.000000      0.000000      0.000000      0.000000
     2   0 2 0    -21.251923    -55.746761    -55.746761     90.241600
     2   0 1 1     -0.000000     -0.000000     -0.000000      0.000000
     2   0 0 2    -20.265831    -22.927571    -22.927571     25.589311


------------------------------------------------------------
EAF file 0: "./C4H8_Cyclobutane.aoints.0" size=3393716224 bytes
------------------------------------------------------------
               write      read    awrite     aread      wait
               -----      ----    ------     -----      ----
     calls:     6473        10         0     64720     64720
   data(b): 3.39e+09  5.24e+06  0.00e+00  3.39e+10
   time(s): 0.00e+00  0.00e+00  0.00e+00  0.00e+00  0.00e+00
rate(mb/s): 0.00e+00  0.00e+00
------------------------------------------------------------


 Parallel integral file used    6473 records with       0 large values


 Task  times  cpu:      111.8s     wall:      120.3s


                                NWChem Input Module
                                -------------------


 Summary of allocated global arrays
-----------------------------------
  No active global arrays



                         GA Statistics for process    0
                         ------------------------------

       create   destroy   get      put      acc     scatter   gather  read&inc
calls:  306      306     1.49e+05 4.15e+04 7.43e+04    0        0     4772     
number of processes/call 1.00e+00 1.00e+00 1.00e+00 0.00e+00 0.00e+00
bytes total:             1.14e+09 2.92e+08 7.49e+08 0.00e+00 0.00e+00 3.82e+04
bytes remote:            0.00e+00 0.00e+00 0.00e+00 0.00e+00 0.00e+00 0.00e+00
Max memory consumed for GA by this process: 34389888 bytes

MA_summarize_allocated_blocks: starting scan ...
MA_summarize_allocated_blocks: scan completed: 0 heap blocks, 0 stack blocks
MA usage statistics:

	allocation statistics:
					      heap	     stack
					      ----	     -----
	current number of blocks	         0	         0
	maximum number of blocks	        23	        55
	current total bytes		         0	         0
	maximum total bytes		   2742432	  34562280
	maximum total K-bytes		      2743	     34563
	maximum total M-bytes		         3	        35


                                     CITATION
                                     --------
                Please cite the following reference when publishing
                           results obtained with NWChem:

                 M. Valiev, E.J. Bylaska, N. Govind, K. Kowalski,
              T.P. Straatsma, H.J.J. van Dam, D. Wang, J. Nieplocha,
                        E. Apra, T.L. Windus, W.A. de Jong
                 "NWChem: a comprehensive and scalable open-source
                  solution for large scale molecular simulations"
                      Comput. Phys. Commun. 181, 1477 (2010)
                           doi:10.1016/j.cpc.2010.04.018

                                      AUTHORS
                                      -------
          E. Apra, E. J. Bylaska, W. A. de Jong, N. Govind, K. Kowalski,
       T. P. Straatsma, M. Valiev, H. J. J. van Dam, D. Wang, T. L. Windus,
        J. Hammond, J. Autschbach, K. Bhaskaran-Nair, J. Brabec, K. Lopata,
       S. A. Fischer, S. Krishnamoorthy, W. Ma, M. Klemm, O. Villa, Y. Chen,
    V. Anisimov, F. Aquino, S. Hirata, M. T. Hackler, T. Risthaus, M. Malagoli,
       A. Marenich, A. Otero-de-la-Roza, J. Mullin, P. Nichols, R. Peverati,
     J. Pittner, Y. Zhao, P.-D. Fan, A. Fonari, M. Williamson, R. J. Harrison,
       J. R. Rehr, M. Dupuis, D. Silverstein, D. M. A. Smith, J. Nieplocha,
        V. Tipparaju, M. Krishnan, B. E. Van Kuiken, A. Vazquez-Mayagoitia,
        L. Jensen, M. Swart, Q. Wu, T. Van Voorhis, A. A. Auer, M. Nooijen,
      L. D. Crosby, E. Brown, G. Cisneros, G. I. Fann, H. Fruchtl, J. Garza,
        K. Hirao, R. A. Kendall, J. A. Nichols, K. Tsemekhman, K. Wolinski,
     J. Anchell, D. E. Bernholdt, P. Borowski, T. Clark, D. Clerc, H. Dachsel,
   M. J. O. Deegan, K. Dyall, D. Elwood, E. Glendening, M. Gutowski, A. C. Hess,
         J. Jaffe, B. G. Johnson, J. Ju, R. Kobayashi, R. Kutteh, Z. Lin,
   R. Littlefield, X. Long, B. Meng, T. Nakajima, S. Niu, L. Pollack, M. Rosing,
   K. Glaesemann, G. Sandrone, M. Stave, H. Taylor, G. Thomas, J. H. van Lenthe,
                               A. T. Wong, Z. Zhang.

 Total times  cpu:      111.8s     wall:      120.5s
