[1537439495.723717] [r8n3:20164:0]         sys.c:744  MXM  WARN  Conflicting CPU frequencies detected, using: 2693.25
[1537439495.727127] [r8n3:20164:0]         mxm.c:196  MXM  WARN  The 'ulimit -s' on the system is set to 'unlimited'. This may have negative performance implications. Please set the stack size to the default value (10240) 
[1537439495.728565] [r8n3:20164:0]         mxm.c:196  MXM  WARN  The 'ulimit -s' on the system is set to 'unlimited'. This may have negative performance implications. Please set the stack size to the default value (10240) 
 argument  1 = -
                                         
                                         


              Northwest Computational Chemistry Package (NWChem) 6.6
              ------------------------------------------------------


                    Environmental Molecular Sciences Laboratory
                       Pacific Northwest National Laboratory
                                Richland, WA 99352

                              Copyright (c) 1994-2015
                       Pacific Northwest National Laboratory
                            Battelle Memorial Institute

             NWChem is an open-source computational chemistry package
                        distributed under the terms of the
                      Educational Community License (ECL) 2.0
             A copy of the license is included with this distribution
                              in the LICENSE.TXT file

                                  ACKNOWLEDGMENT
                                  --------------

            This software and its documentation were developed at the
            EMSL at Pacific Northwest National Laboratory, a multiprogram
            national laboratory, operated for the U.S. Department of Energy
            by Battelle under Contract Number DE-AC05-76RL01830. Support
            for this work was provided by the Department of Energy Office
            of Biological and Environmental Research, Office of Basic
            Energy Sciences, and the Office of Advanced Scientific Computing.


           Job information
           ---------------

    hostname        = r8n3.niserhpc.org
    program         = /home/bikashp/Code/nwchem-6.6_tpssloc/bin/LINUX64/nwchem
    date            = Thu Sep 20 16:01:35 2018

    compiled        = Tue_Sep_18_16:24:59_2018
    source          = /home/bikashp/Code/nwchem-6.6_tpssloc
    nwchem branch   = 6.6
    nwchem revision = 27746
    ga revision     = 10594
    input           = nwchem.nw
    prefix          = S2.
    data base       = ./S2.db
    status          = startup
    nproc           =        1
    time left       =     -1s



           Memory information
           ------------------

    heap     =   13107196 doubles =    100.0 Mbytes
    stack    =   13107201 doubles =    100.0 Mbytes
    global   =   26214400 doubles =    200.0 Mbytes (distinct from heap & stack)
    total    =   52428797 doubles =    400.0 Mbytes
    verify   = yes
    hardfail = no 


           Directory information
           ---------------------

  0 permanent = .
  0 scratch   = .




                                NWChem Input Module
                                -------------------



 Scaling coordinates for geometry "geometry" by  1.889725989
 (inverse scale =  0.529177249)

 ORDER OF PRIMARY AXIS IS BEING SET TO 4
 D4H symmetry detected

          ------
          auto-z
          ------


                             Geometry "geometry" -> ""
                             -------------------------

 Output coordinates in angstroms (scale by  1.889725989 to convert to a.u.)

  No.       Tag          Charge          X              Y              Z
 ---- ---------------- ---------- -------------- -------------- --------------
    1 S                   16.0000     0.00000000     0.00000000     0.96011300
    2 S                   16.0000     0.00000000     0.00000000    -0.96011300

      Atomic Mass 
      ----------- 

      S                 31.972070


 Effective nuclear repulsion energy (a.u.)      70.5486623678

            Nuclear Dipole moment (a.u.) 
            ----------------------------
        X                 Y               Z
 ---------------- ---------------- ----------------
     0.0000000000     0.0000000000     0.0000000000

      Symmetry information
      --------------------

 Group name             D4h       
 Group number             28
 Group order              16
 No. of unique centers     1

      Symmetry unique atoms

     1



                                Z-matrix (autoz)
                                -------- 

 Units are Angstrom for bonds and degrees for angles

      Type          Name      I     J     K     L     M      Value
      ----------- --------  ----- ----- ----- ----- ----- ----------
    1 Stretch                  1     2                       1.92023


            XYZ format geometry
            -------------------
     2
 geometry
 S                     0.00000000     0.00000000     0.96011300
 S                     0.00000000     0.00000000    -0.96011300

 ==============================================================================
                                internuclear distances
 ------------------------------------------------------------------------------
       center one      |      center two      | atomic units |  angstroms
 ------------------------------------------------------------------------------
    2 S                |   1 S                |     3.62870  |     1.92023
 ------------------------------------------------------------------------------
                         number of included internuclear distances:          1
 ==============================================================================





 Summary of "ao basis" -> "" (cartesian)
 ------------------------------------------------------------------------------
       Tag                 Description            Shells   Functions and Types
 ---------------- ------------------------------  ------  ---------------------
 *                     6-311++G(3df,3pd)              on all atoms 



                                 NWChem DFT Module
                                 -----------------


                      Basis "ao basis" -> "ao basis" (cartesian)
                      -----
  S (Sulphur)
  -----------
            Exponent  Coefficients 
       -------------- ---------------------------------------------------------
  1 S  9.34134000E+04  0.000743
  1 S  1.39617000E+04  0.005793
  1 S  3.16991000E+03  0.029954
  1 S  9.02456000E+02  0.119028
  1 S  2.97158000E+02  0.368432
  1 S  1.08702000E+02  0.577299

  2 S  1.08702000E+02  0.143186
  2 S  4.31553000E+01  0.624465
  2 S  1.81079000E+01  0.283366

  3 S  5.56009000E+00  1.000000

  4 S  2.13183000E+00  1.000000

  5 S  4.20403000E-01  1.000000

  6 S  1.36045000E-01  1.000000

  7 P  4.95040000E+02  0.008309
  7 P  1.17221000E+02  0.064024
  7 P  3.77749000E+01  0.277614
  7 P  1.40584000E+01  0.745076

  8 P  5.56574000E+00  0.613712
  8 P  2.26297000E+00  0.443818

  9 P  8.07994000E-01  1.000000

 10 P  2.77460000E-01  1.000000

 11 P  7.71410000E-02  1.000000

 12 S  4.05000000E-02  1.000000

 13 P  4.05000000E-02  1.000000

 14 D  2.60000000E+00  1.000000

 15 D  6.50000000E-01  1.000000

 16 D  1.62500000E-01  1.000000

 17 F  5.50000000E-01  1.000000



 Summary of "ao basis" -> "ao basis" (cartesian)
 ------------------------------------------------------------------------------
       Tag                 Description            Shells   Functions and Types
 ---------------- ------------------------------  ------  ---------------------
 S                     6-311++G(3df,3pd)            17       53   7s6p3d1f




 Summary of "ao basis" -> "ao basis" (cartesian)
 ------------------------------------------------------------------------------
       Tag                 Description            Shells   Functions and Types
 ---------------- ------------------------------  ------  ---------------------
 S                     6-311++G(3df,3pd)            17       53   7s6p3d1f


      Symmetry analysis of basis
      --------------------------

        a1g        21
        a1u         0
        a2g         0
        a2u        21
        b1g         4
        b1u         4
        b2g         4
        b2u         4
        eg         24
        eu         24

  Caching 1-el integrals 

            General Information
            -------------------
          SCF calculation type: DFT
          Wavefunction type:  spin polarized.
          No. of atoms     :     2
          No. of electrons :    32
           Alpha electrons :    17
            Beta electrons :    15
          Charge           :     0
          Spin multiplicity:     3
          Use of symmetry is: on ; symmetry adaption is: on 
          Maximum number of iterations: ***
          AO basis - number of functions:   106
                     number of shells:    34
          Convergence on energy requested: 1.00D-06
          Convergence on density requested: 1.00D-05
          Convergence on gradient requested: 5.00D-04

              XC Information
              --------------
                  TPSS metaGGA Exchange Functional  1.000          
             TPSS03 metaGGA Correlation Functional  1.000          

             Grid Information
             ----------------
          Grid used for XC integration:  medium    
          Radial quadrature: Mura-Knowles        
          Angular quadrature: Lebedev. 
          Tag              B.-S. Rad. Rad. Pts. Rad. Cut. Ang. Pts.
          ---              ---------- --------- --------- ---------
          S                   1.00       88          11.0       590
          Grid pruning is: on 
          Number of quadrature shells:    88
          Spatial weights used:  Erf1

          Convergence Information
          -----------------------
          Convergence aids based upon iterative change in 
          total energy or number of iterations. 
          Levelshifting, if invoked, occurs when the 
          HOMO/LUMO gap drops below (HL_TOL): 1.00D-02
          DIIS, if invoked, will attempt to extrapolate 
          using up to (NFOCK): 10 stored Fock matrices.

                    Damping( 0%)  Levelshifting(0.5)       DIIS
                  --------------- ------------------- ---------------
          dE  on:    start            ASAP                start   
          dE off:    2 iters        *** iters           *** iters 


      Screening Tolerance Information
      -------------------------------
          Density screening/tol_rho: 1.00D-10
          AO Gaussian exp screening on grid/accAOfunc:  14
          CD Gaussian exp screening on grid/accCDfunc:  20
          XC Gaussian exp screening on grid/accXCfunc:  20
          Schwarz screening/accCoul: 1.00D-08


      Superposition of Atomic Density Guess
      -------------------------------------

 Sum of atomic energies:        -794.96050201

      Non-variational initial energy
      ------------------------------

 Total energy =    -795.115808
 1-e energy   =   -1239.395424
 2-e energy   =     373.730953
 HOMO         =      -0.191445
 LUMO         =      -0.191445


 !!!!!!!!!!!!!!!!!!!!!!!!!!!!!!!!!!!!!!!!!!!!!!!!!!!!!!!!!!!!!!!!!!!!!!
 Warning - the HOMO and LUMO are degenerate and you are using symmetry.
 This can lead to non-variational energies and poor convergence.
 Modify the initial guess, or use an open-shell wavefunction, or turn
 off symmetry.
 !!!!!!!!!!!!!!!!!!!!!!!!!!!!!!!!!!!!!!!!!!!!!!!!!!!!!!!!!!!!!!!!!!!!!!


   Symmetry analysis of molecular orbitals - initial alpha
   -------------------------------------------------------

  Numbering of irreducible representations: 

     1 a1g         2 a1u         3 a2g         4 a2u         5 b1g     
     6 b1u         7 b2g         8 b2u         9 eg         10 eu      

  Orbital symmetries:

     1 a2u         2 a1g         3 a1g         4 a2u         5 a1g     
     6 a2u         7 eu          8 eu          9 eg         10 eg      
    11 a1g        12 a2u        13 a1g        14 eu         15 eu      
    16 eg         17 eg         18 a2u        19 a1g        20 eu      
    21 eu         22 a2u        23 a1g        24 eg         25 eg      
    26 a2u        27 b1g     


   Symmetry analysis of molecular orbitals - initial beta
   ------------------------------------------------------

  Numbering of irreducible representations: 

     1 a1g         2 a1u         3 a2g         4 a2u         5 b1g     
     6 b1u         7 b2g         8 b2u         9 eg         10 eu      

  Orbital symmetries:

     1 a2u         2 a1g         3 a1g         4 a2u         5 a1g     
     6 a2u         7 eu          8 eu          9 eg         10 eg      
    11 a1g        12 a2u        13 a1g        14 eu         15 eu      
    16 eg         17 eg         18 a2u        19 a1g        20 eu      
    21 eu         22 a2u        23 a1g        24 eg         25 eg      
    26 a2u        27 b1g     

   Time after variat. SCF:      0.6
   Time prior to 1st pass:      0.6

 Integral file          = ./S2.aoints.0
 Record size in doubles =    65536    No. of integs per rec  =    43688
 Max. records in memory =       42    Max. records in file   = ********
 No. of bits per label  =        8    No. of bits per value  =       64


 #quartets = 1.053D+05 #integrals = 2.538D+06 #direct =  0.0% #cached =100.0%


 Grid_pts file          = ./S2.gridpts.0
 Record size in doubles =  12289        No. of grid_pts per rec  =   3070
 Max. records in memory =     20        Max. recs in file   = 994641274


           Memory utilization after 1st SCF pass: 
           Heap Space remaining (MW):       10.11            10105132
          Stack Space remaining (MW):       13.11            13106236

   convergence    iter        energy       DeltaE   RMS-Dens  Diis-err    time
 ---------------- ----- ----------------- --------- --------- ---------  ------
 d= 0,ls=0.0,diis     1   -796.5088433852 -8.67D+02  1.12D-02  3.88D-01     1.7
                                                     1.03D-02  3.75D-01
 d= 0,ls=0.0,diis     2   -796.5197760421 -1.09D-02  2.24D-03  1.50D-02     2.1
                                                     2.12D-03  1.23D-02
 d= 0,ls=0.0,diis     3   -796.5077151442  1.21D-02  1.29D-03  1.93D-02     2.5
                                                     1.13D-03  1.65D-02
 d= 0,ls=0.0,diis     4   -796.5215097750 -1.38D-02  7.07D-05  9.71D-05     2.9
                                                     8.84D-05  1.04D-04
 d= 0,ls=0.0,diis     5   -796.5208432791  6.66D-04  4.79D-05  4.94D-06     3.3
                                                     4.95D-05  3.55D-06
  Resetting Diis
 d= 0,ls=0.0,diis     6   -796.5209791937 -1.36D-04  1.08D-05  4.04D-07     3.7
                                                     1.14D-05  3.70D-07
 d= 0,ls=0.0,diis     7   -796.5209307478  4.84D-05  1.14D-06  2.71D-09     4.1
                                                     1.08D-06  2.20D-09
 d= 0,ls=0.0,diis     8   -796.5209370982 -6.35D-06  5.91D-07  1.05D-09     4.5
                                                     6.05D-07  1.05D-09
 d= 0,ls=0.0,diis     9   -796.5209337503  3.35D-06  1.80D-07  2.22D-10     4.9
                                                     1.39D-07  1.65D-10
 d= 0,ls=0.0,diis    10   -796.5209344257 -6.75D-07  6.64D-08  2.40D-11     5.3
                                                     5.91D-08  2.17D-11


         Total DFT energy =     -796.520934425690
      One electron energy =    -1238.462859069502
           Coulomb energy =      422.742031972977
          Exchange energy =      -50.028593259729
       Correlation energy =       -1.320176437263
 Nuclear repulsion energy =       70.548662367827

 Numeric. integr. density =       32.000000399858

     Total iterative time =      4.7s



                  Occupations of the irreducible representations
                  ----------------------------------------------

                     irrep           alpha         beta
                     --------     --------     --------
                     a1g               5.0          5.0
                     a1u               0.0          0.0
                     a2g               0.0          0.0
                     a2u               4.0          4.0
                     b1g               0.0          0.0
                     b1u               0.0          0.0
                     b2g               0.0          0.0
                     b2u               0.0          0.0
                     eg                4.0          2.0
                     eu                4.0          4.0


                    DFT Final Alpha Molecular Orbital Analysis
                    ------------------------------------------

 Vector    5  Occ=1.000000D+00  E=-5.865211D+00  Symmetry=a1g
              MO Center=  7.6D-34,  1.6D-34,  5.0D-16, r^2= 9.9D-01
   Bfn.  Coefficient  Atom+Function         Bfn.  Coefficient  Atom+Function  
  ----- ------------  ---------------      ----- ------------  ---------------
    12      0.499111  1 S  pz                65     -0.499111  2 S  pz         
     9      0.266269  1 S  pz                62     -0.266269  2 S  pz         

 Vector    6  Occ=1.000000D+00  E=-5.864552D+00  Symmetry=a2u
              MO Center= -8.7D-16, -2.1D-15, -1.9D-16, r^2= 9.9D-01
   Bfn.  Coefficient  Atom+Function         Bfn.  Coefficient  Atom+Function  
  ----- ------------  ---------------      ----- ------------  ---------------
    12      0.499263  1 S  pz                65      0.499263  2 S  pz         
     9      0.266359  1 S  pz                62      0.266359  2 S  pz         

 Vector    7  Occ=1.000000D+00  E=-5.864217D+00  Symmetry=eu
              MO Center=  1.5D-17, -9.6D-19,  1.2D-11, r^2= 9.9D-01
   Bfn.  Coefficient  Atom+Function         Bfn.  Coefficient  Atom+Function  
  ----- ------------  ---------------      ----- ------------  ---------------
    10      0.499160  1 S  px                63      0.499160  2 S  px         
     7      0.266440  1 S  px                60      0.266440  2 S  px         

 Vector    8  Occ=1.000000D+00  E=-5.864217D+00  Symmetry=eu
              MO Center= -4.5D-18,  3.1D-16, -2.8D-11, r^2= 9.9D-01
   Bfn.  Coefficient  Atom+Function         Bfn.  Coefficient  Atom+Function  
  ----- ------------  ---------------      ----- ------------  ---------------
    11      0.499160  1 S  py                64      0.499160  2 S  py         
     8      0.266440  1 S  py                61      0.266440  2 S  py         

 Vector    9  Occ=1.000000D+00  E=-5.864166D+00  Symmetry=eg
              MO Center=  6.9D-16,  2.6D-15,  1.3D-11, r^2= 9.9D-01
   Bfn.  Coefficient  Atom+Function         Bfn.  Coefficient  Atom+Function  
  ----- ------------  ---------------      ----- ------------  ---------------
    11      0.482843  1 S  py                64     -0.482843  2 S  py         
     8      0.257741  1 S  py                61     -0.257741  2 S  py         

 Vector   10  Occ=1.000000D+00  E=-5.864166D+00  Symmetry=eg
              MO Center=  3.6D-16, -9.4D-17,  3.0D-12, r^2= 9.9D-01
   Bfn.  Coefficient  Atom+Function         Bfn.  Coefficient  Atom+Function  
  ----- ------------  ---------------      ----- ------------  ---------------
    10      0.482843  1 S  px                63     -0.482843  2 S  px         
     7      0.257741  1 S  px                60     -0.257741  2 S  px         

 Vector   11  Occ=1.000000D+00  E=-8.309459D-01  Symmetry=a1g
              MO Center= -1.8D-17, -2.2D-17, -4.2D-17, r^2= 1.2D+00
   Bfn.  Coefficient  Atom+Function         Bfn.  Coefficient  Atom+Function  
  ----- ------------  ---------------      ----- ------------  ---------------
     5      0.490094  1 S  s                 58      0.490094  2 S  s          
     6      0.405018  1 S  s                 59      0.405018  2 S  s          
     4     -0.279499  1 S  s                 57     -0.279499  2 S  s          
     3     -0.151869  1 S  s                 56     -0.151869  2 S  s          

 Vector   12  Occ=1.000000D+00  E=-6.431386D-01  Symmetry=a2u
              MO Center= -5.1D-19, -1.9D-18,  2.7D-16, r^2= 2.4D+00
   Bfn.  Coefficient  Atom+Function         Bfn.  Coefficient  Atom+Function  
  ----- ------------  ---------------      ----- ------------  ---------------
     6      0.591613  1 S  s                 59     -0.591613  2 S  s          
     5      0.544977  1 S  s                 58     -0.544977  2 S  s          
     4     -0.309703  1 S  s                 57      0.309703  2 S  s          
     3     -0.166469  1 S  s                 56      0.166469  2 S  s          

 Vector   13  Occ=1.000000D+00  E=-4.250542D-01  Symmetry=a1g
              MO Center=  1.2D-18,  8.9D-19, -1.5D-16, r^2= 2.6D+00
   Bfn.  Coefficient  Atom+Function         Bfn.  Coefficient  Atom+Function  
  ----- ------------  ---------------      ----- ------------  ---------------
    18      0.463776  1 S  pz                71     -0.463776  2 S  pz         
     6      0.341163  1 S  s                 59      0.341163  2 S  s          
    15      0.196186  1 S  pz                68     -0.196186  2 S  pz         

 Vector   14  Occ=1.000000D+00  E=-4.054445D-01  Symmetry=eu
              MO Center= -3.2D-16,  8.7D-16, -3.0D-15, r^2= 2.0D+00
   Bfn.  Coefficient  Atom+Function         Bfn.  Coefficient  Atom+Function  
  ----- ------------  ---------------      ----- ------------  ---------------
    16      0.503800  1 S  px                69      0.503800  2 S  px         
    17      0.207629  1 S  py                70      0.207629  2 S  py         
    13      0.150832  1 S  px                66      0.150832  2 S  px         

 Vector   15  Occ=1.000000D+00  E=-4.054445D-01  Symmetry=eu
              MO Center=  6.0D-16, -3.9D-16,  6.0D-15, r^2= 2.0D+00
   Bfn.  Coefficient  Atom+Function         Bfn.  Coefficient  Atom+Function  
  ----- ------------  ---------------      ----- ------------  ---------------
    17      0.503800  1 S  py                70      0.503800  2 S  py         
    16     -0.207629  1 S  px                69     -0.207629  2 S  px         
    14      0.150832  1 S  py                67      0.150832  2 S  py         

 Vector   16  Occ=1.000000D+00  E=-2.796042D-01  Symmetry=eg
              MO Center=  1.0D-16, -8.2D-17,  2.9D-15, r^2= 2.7D+00
   Bfn.  Coefficient  Atom+Function         Bfn.  Coefficient  Atom+Function  
  ----- ------------  ---------------      ----- ------------  ---------------
    16      0.619730  1 S  px                69     -0.619730  2 S  px         
    19      0.216504  1 S  px                72     -0.216504  2 S  px         
    17     -0.215021  1 S  py                70      0.215021  2 S  py         
    13      0.168272  1 S  px                66     -0.168272  2 S  px         

 Vector   17  Occ=1.000000D+00  E=-2.796042D-01  Symmetry=eg
              MO Center= -2.6D-16, -4.7D-17, -4.6D-15, r^2= 2.7D+00
   Bfn.  Coefficient  Atom+Function         Bfn.  Coefficient  Atom+Function  
  ----- ------------  ---------------      ----- ------------  ---------------
    17      0.619730  1 S  py                70     -0.619730  2 S  py         
    20      0.216504  1 S  py                73     -0.216504  2 S  py         
    16      0.215021  1 S  px                69     -0.215021  2 S  px         
    14      0.168272  1 S  py                67     -0.168272  2 S  py         

 Vector   18  Occ=0.000000D+00  E=-1.080170D-01  Symmetry=a2u
              MO Center= -7.1D-17,  1.9D-16,  5.6D-15, r^2= 3.9D+00
   Bfn.  Coefficient  Atom+Function         Bfn.  Coefficient  Atom+Function  
  ----- ------------  ---------------      ----- ------------  ---------------
    18      0.683669  1 S  pz                71      0.683669  2 S  pz         
    22     -0.667960  1 S  s                 75      0.667960  2 S  s          
     6     -0.361129  1 S  s                 59      0.361129  2 S  s          
    25      0.325912  1 S  pz                78      0.325912  2 S  pz         
     5     -0.260417  1 S  s                 58      0.260417  2 S  s          

 Vector   19  Occ=0.000000D+00  E=-2.989988D-02  Symmetry=a1g
              MO Center=  2.2D-14, -4.8D-15, -1.3D-14, r^2= 6.3D+00
   Bfn.  Coefficient  Atom+Function         Bfn.  Coefficient  Atom+Function  
  ----- ------------  ---------------      ----- ------------  ---------------
    22      0.669306  1 S  s                 75      0.669306  2 S  s          
     5     -0.246509  1 S  s                 58     -0.246509  2 S  s          
    43     -0.204221  1 S  dzz               96     -0.204221  2 S  dzz        
     6     -0.200282  1 S  s                 59     -0.200282  2 S  s          

 Vector   20  Occ=0.000000D+00  E= 3.001297D-02  Symmetry=eu
              MO Center=  3.8D-14, -5.8D-14, -1.7D-15, r^2= 1.1D+01
   Bfn.  Coefficient  Atom+Function         Bfn.  Coefficient  Atom+Function  
  ----- ------------  ---------------      ----- ------------  ---------------
    24      0.664759  1 S  py                77      0.664759  2 S  py         
    23     -0.413721  1 S  px                76     -0.413721  2 S  px         
    20     -0.327282  1 S  py                73     -0.327282  2 S  py         
    42      0.248427  1 S  dyz               95     -0.248427  2 S  dyz        
    19      0.203688  1 S  px                72      0.203688  2 S  px         

 Vector   21  Occ=0.000000D+00  E= 3.001297D-02  Symmetry=eu
              MO Center= -1.3D-14, -8.0D-15,  5.4D-17, r^2= 1.1D+01
   Bfn.  Coefficient  Atom+Function         Bfn.  Coefficient  Atom+Function  
  ----- ------------  ---------------      ----- ------------  ---------------
    23      0.664759  1 S  px                76      0.664759  2 S  px         
    24      0.413721  1 S  py                77      0.413721  2 S  py         
    19     -0.327282  1 S  px                72     -0.327282  2 S  px         
    40      0.248427  1 S  dxz               93     -0.248427  2 S  dxz        
    20     -0.203688  1 S  py                73     -0.203688  2 S  py         

 Vector   22  Occ=0.000000D+00  E= 3.215593D-02  Symmetry=a1g
              MO Center= -4.2D-14,  6.8D-14, -6.5D-13, r^2= 1.4D+01
   Bfn.  Coefficient  Atom+Function         Bfn.  Coefficient  Atom+Function  
  ----- ------------  ---------------      ----- ------------  ---------------
    25      1.104969  1 S  pz                78     -1.104969  2 S  pz         
    22      0.615432  1 S  s                 75      0.615432  2 S  s          
    21     -0.324856  1 S  pz                74      0.324856  2 S  pz         
    18      0.167692  1 S  pz                71     -0.167692  2 S  pz         
     6     -0.164004  1 S  s                 59     -0.164004  2 S  s          

 Vector   23  Occ=0.000000D+00  E= 3.388816D-02  Symmetry=a2u
              MO Center=  5.2D-16, -7.7D-17,  6.7D-13, r^2= 1.5D+01
   Bfn.  Coefficient  Atom+Function         Bfn.  Coefficient  Atom+Function  
  ----- ------------  ---------------      ----- ------------  ---------------
    25     -1.418542  1 S  pz                78     -1.418542  2 S  pz         
    21      1.342511  1 S  pz                74      1.342511  2 S  pz         
    18      0.408082  1 S  pz                71      0.408082  2 S  pz         
     6     -0.351610  1 S  s                 59      0.351610  2 S  s          
    22      0.285077  1 S  s                 75     -0.285077  2 S  s          

 Vector   24  Occ=0.000000D+00  E= 5.154086D-02  Symmetry=b2g
              MO Center= -3.2D-15,  2.5D-16,  1.1D-16, r^2= 3.2D+00
   Bfn.  Coefficient  Atom+Function         Bfn.  Coefficient  Atom+Function  
  ----- ------------  ---------------      ----- ------------  ---------------
    39      0.923732  1 S  dxy               92      0.923732  2 S  dxy        
    33      0.247997  1 S  dxy               86      0.247997  2 S  dxy        

 Vector   25  Occ=0.000000D+00  E= 5.154108D-02  Symmetry=b1g
              MO Center=  1.9D-15, -3.7D-15,  8.9D-16, r^2= 3.2D+00
   Bfn.  Coefficient  Atom+Function         Bfn.  Coefficient  Atom+Function  
  ----- ------------  ---------------      ----- ------------  ---------------
    38      0.461866  1 S  dxx               41     -0.461866  1 S  dyy        
    91      0.461866  2 S  dxx               94     -0.461866  2 S  dyy        

 Vector   26  Occ=0.000000D+00  E= 7.140169D-02  Symmetry=eg
              MO Center= -5.7D-18,  1.3D-18,  6.2D-15, r^2= 1.6D+01
   Bfn.  Coefficient  Atom+Function         Bfn.  Coefficient  Atom+Function  
  ----- ------------  ---------------      ----- ------------  ---------------
    23      2.117524  1 S  px                76     -2.117524  2 S  px         
    19     -0.818122  1 S  px                72      0.818122  2 S  px         
    24     -0.481792  1 S  py                77      0.481792  2 S  py         
    40      0.202529  1 S  dxz               93      0.202529  2 S  dxz        
    20      0.186144  1 S  py                73     -0.186144  2 S  py         

 Vector   27  Occ=0.000000D+00  E= 7.140169D-02  Symmetry=eg
              MO Center=  5.3D-18,  2.3D-17, -6.5D-15, r^2= 1.6D+01
   Bfn.  Coefficient  Atom+Function         Bfn.  Coefficient  Atom+Function  
  ----- ------------  ---------------      ----- ------------  ---------------
    24      2.117524  1 S  py                77     -2.117524  2 S  py         
    20     -0.818122  1 S  py                73      0.818122  2 S  py         
    23      0.481792  1 S  px                76     -0.481792  2 S  px         
    42      0.202529  1 S  dyz               95      0.202529  2 S  dyz        
    19     -0.186144  1 S  px                72      0.186144  2 S  px         

 Vector   28  Occ=0.000000D+00  E= 8.722906D-02  Symmetry=eu
              MO Center= -1.6D-15, -3.0D-16, -9.8D-16, r^2= 4.9D+00
   Bfn.  Coefficient  Atom+Function         Bfn.  Coefficient  Atom+Function  
  ----- ------------  ---------------      ----- ------------  ---------------
    40      0.648763  1 S  dxz               93     -0.648763  2 S  dxz        
    42      0.533772  1 S  dyz               95     -0.533772  2 S  dyz        
    23     -0.338941  1 S  px                76     -0.338941  2 S  px         
    24     -0.278865  1 S  py                77     -0.278865  2 S  py         
    19      0.269856  1 S  px                72      0.269856  2 S  px         

 Vector   29  Occ=0.000000D+00  E= 8.722906D-02  Symmetry=eu
              MO Center= -6.9D-16,  3.2D-15, -1.3D-16, r^2= 4.9D+00
   Bfn.  Coefficient  Atom+Function         Bfn.  Coefficient  Atom+Function  
  ----- ------------  ---------------      ----- ------------  ---------------
    42      0.648763  1 S  dyz               95     -0.648763  2 S  dyz        
    40     -0.533772  1 S  dxz               93      0.533772  2 S  dxz        
    24     -0.338941  1 S  py                77     -0.338941  2 S  py         
    23      0.278865  1 S  px                76      0.278865  2 S  px         
    20      0.269856  1 S  py                73      0.269856  2 S  py         

 Vector   30  Occ=0.000000D+00  E= 1.215822D-01  Symmetry=a2u
              MO Center= -2.0D-16,  1.4D-16,  3.1D-13, r^2= 1.6D+01
   Bfn.  Coefficient  Atom+Function         Bfn.  Coefficient  Atom+Function  
  ----- ------------  ---------------      ----- ------------  ---------------
    22     15.371319  1 S  s                 75    -15.371319  2 S  s          
    25     -6.008431  1 S  pz                78     -6.008431  2 S  pz         
     6     -0.535437  1 S  s                 59      0.535437  2 S  s          
    43     -0.391339  1 S  dzz               96      0.391339  2 S  dzz        
    21      0.370821  1 S  pz                74      0.370821  2 S  pz         

 Vector   31  Occ=0.000000D+00  E= 1.690183D-01  Symmetry=a1g
              MO Center= -1.8D-16, -1.4D-16, -3.0D-13, r^2= 1.2D+01
   Bfn.  Coefficient  Atom+Function         Bfn.  Coefficient  Atom+Function  
  ----- ------------  ---------------      ----- ------------  ---------------
    25      1.814725  1 S  pz                78     -1.814725  2 S  pz         
    21     -1.236335  1 S  pz                74      1.236335  2 S  pz         
    38      0.487298  1 S  dxx               41      0.487298  1 S  dyy        
    91      0.487298  2 S  dxx               94      0.487298  2 S  dyy        
    18      0.354212  1 S  pz                71     -0.354212  2 S  pz         

 Vector   32  Occ=0.000000D+00  E= 1.828707D-01  Symmetry=b1u
              MO Center=  5.3D-18,  2.5D-16, -2.2D-16, r^2= 3.8D+00
   Bfn.  Coefficient  Atom+Function         Bfn.  Coefficient  Atom+Function  
  ----- ------------  ---------------      ----- ------------  ---------------
    39      1.278676  1 S  dxy               92     -1.278676  2 S  dxy        
    33      0.293455  1 S  dxy               86     -0.293455  2 S  dxy        

 Vector   33  Occ=0.000000D+00  E= 1.828713D-01  Symmetry=b2u
              MO Center= -2.3D-16, -2.4D-16, -9.0D-16, r^2= 3.8D+00
   Bfn.  Coefficient  Atom+Function         Bfn.  Coefficient  Atom+Function  
  ----- ------------  ---------------      ----- ------------  ---------------
    38      0.639337  1 S  dxx               41     -0.639337  1 S  dyy        
    91     -0.639337  2 S  dxx               94      0.639337  2 S  dyy        

 Vector   34  Occ=0.000000D+00  E= 2.312356D-01  Symmetry=a2u
              MO Center=  1.5D-17, -3.0D-16, -9.8D-13, r^2= 1.4D+01
   Bfn.  Coefficient  Atom+Function         Bfn.  Coefficient  Atom+Function  
  ----- ------------  ---------------      ----- ------------  ---------------
    22      5.801677  1 S  s                 75     -5.801677  2 S  s          
    21     -4.956464  1 S  pz                74     -4.956464  2 S  pz         
     6      2.496348  1 S  s                 59     -2.496348  2 S  s          
    43      1.369976  1 S  dzz               96     -1.369976  2 S  dzz        
    18     -0.558740  1 S  pz                71     -0.558740  2 S  pz         

 Vector   35  Occ=0.000000D+00  E= 2.515054D-01  Symmetry=eu
              MO Center= -3.9D-14, -1.3D-14, -2.6D-14, r^2= 9.4D+00
   Bfn.  Coefficient  Atom+Function         Bfn.  Coefficient  Atom+Function  
  ----- ------------  ---------------      ----- ------------  ---------------
    19      1.656239  1 S  px                72      1.656239  2 S  px         
    16     -1.117633  1 S  px                69     -1.117633  2 S  px         
    23     -1.045779  1 S  px                76     -1.045779  2 S  px         
    20      0.665947  1 S  py                73      0.665947  2 S  py         
    17     -0.449382  1 S  py                70     -0.449382  2 S  py         

 Vector   36  Occ=0.000000D+00  E= 2.515054D-01  Symmetry=eu
              MO Center=  3.2D-16,  8.8D-16,  5.8D-16, r^2= 9.4D+00
   Bfn.  Coefficient  Atom+Function         Bfn.  Coefficient  Atom+Function  
  ----- ------------  ---------------      ----- ------------  ---------------
    20      1.656239  1 S  py                73      1.656239  2 S  py         
    17     -1.117633  1 S  py                70     -1.117633  2 S  py         
    24     -1.045779  1 S  py                77     -1.045779  2 S  py         
    19     -0.665947  1 S  px                72     -0.665947  2 S  px         
    16      0.449382  1 S  px                69      0.449382  2 S  px         

 Vector   37  Occ=0.000000D+00  E= 2.678955D-01  Symmetry=a1g
              MO Center=  3.8D-14,  1.5D-14,  9.4D-13, r^2= 9.8D+00
   Bfn.  Coefficient  Atom+Function         Bfn.  Coefficient  Atom+Function  
  ----- ------------  ---------------      ----- ------------  ---------------
     6      1.160399  1 S  s                 59      1.160399  2 S  s          
    22      1.153188  1 S  s                 75      1.153188  2 S  s          
    21     -1.118362  1 S  pz                74      1.118362  2 S  pz         
    38     -1.012392  1 S  dxx               41     -1.012392  1 S  dyy        
    91     -1.012392  2 S  dxx               94     -1.012392  2 S  dyy        

 Vector   38  Occ=0.000000D+00  E= 2.798947D-01  Symmetry=eg
              MO Center=  4.3D-16, -2.1D-16,  2.8D-14, r^2= 1.0D+01
   Bfn.  Coefficient  Atom+Function         Bfn.  Coefficient  Atom+Function  
  ----- ------------  ---------------      ----- ------------  ---------------
    19      2.354957  1 S  px                72     -2.354957  2 S  px         
    23     -2.226816  1 S  px                76      2.226816  2 S  px         
    16     -1.259533  1 S  px                69      1.259533  2 S  px         
    40      0.576836  1 S  dxz               93      0.576836  2 S  dxz        
    49      0.287831  1 S  fxzz             102     -0.287831  2 S  fxzz       

 Vector   39  Occ=0.000000D+00  E= 2.798947D-01  Symmetry=eg
              MO Center=  2.4D-17, -4.5D-17, -6.2D-15, r^2= 1.0D+01
   Bfn.  Coefficient  Atom+Function         Bfn.  Coefficient  Atom+Function  
  ----- ------------  ---------------      ----- ------------  ---------------
    20      2.354957  1 S  py                73     -2.354957  2 S  py         
    24     -2.226816  1 S  py                77      2.226816  2 S  py         
    17     -1.259533  1 S  py                70      1.259533  2 S  py         
    42      0.576836  1 S  dyz               95      0.576836  2 S  dyz        
    52      0.287831  1 S  fyzz             105     -0.287831  2 S  fyzz       

 Vector   40  Occ=0.000000D+00  E= 3.735012D-01  Symmetry=a2u
              MO Center= -1.5D-16,  3.9D-16, -3.8D-14, r^2= 8.3D+00
   Bfn.  Coefficient  Atom+Function         Bfn.  Coefficient  Atom+Function  
  ----- ------------  ---------------      ----- ------------  ---------------
    22     11.632706  1 S  s                 75    -11.632706  2 S  s          
    25     -4.474549  1 S  pz                78     -4.474549  2 S  pz         
    38     -1.552317  1 S  dxx               41     -1.552317  1 S  dyy        
    91      1.552317  2 S  dxx               94      1.552317  2 S  dyy        
     6      1.196060  1 S  s                 59     -1.196060  2 S  s          

 Vector   41  Occ=0.000000D+00  E= 3.878019D-01  Symmetry=a1g
              MO Center=  4.7D-16,  3.0D-16,  3.6D-14, r^2= 5.8D+00
   Bfn.  Coefficient  Atom+Function         Bfn.  Coefficient  Atom+Function  
  ----- ------------  ---------------      ----- ------------  ---------------
     6      2.293205  1 S  s                 59      2.293205  2 S  s          
    21      2.189832  1 S  pz                74     -2.189832  2 S  pz         
    43     -1.604157  1 S  dzz               96     -1.604157  2 S  dzz        
    18     -1.383717  1 S  pz                71      1.383717  2 S  pz         
    25     -1.154192  1 S  pz                78      1.154192  2 S  pz         

 Vector   42  Occ=0.000000D+00  E= 3.908887D-01  Symmetry=eg
              MO Center= -6.7D-17,  1.8D-16,  2.5D-15, r^2= 5.4D+00
   Bfn.  Coefficient  Atom+Function         Bfn.  Coefficient  Atom+Function  
  ----- ------------  ---------------      ----- ------------  ---------------
    20      2.471430  1 S  py                73     -2.471430  2 S  py         
    42     -2.374205  1 S  dyz               95     -2.374205  2 S  dyz        
    24     -1.226033  1 S  py                77      1.226033  2 S  py         
    36     -0.274545  1 S  dyz               89     -0.274545  2 S  dyz        
    19     -0.251403  1 S  px                72      0.251403  2 S  px         

 Vector   43  Occ=0.000000D+00  E= 3.908887D-01  Symmetry=eg
              MO Center= -2.4D-16, -1.8D-16, -9.3D-17, r^2= 5.4D+00
   Bfn.  Coefficient  Atom+Function         Bfn.  Coefficient  Atom+Function  
  ----- ------------  ---------------      ----- ------------  ---------------
    19      2.471430  1 S  px                72     -2.471430  2 S  px         
    40     -2.374205  1 S  dxz               93     -2.374205  2 S  dxz        
    23     -1.226033  1 S  px                76      1.226033  2 S  px         
    34     -0.274545  1 S  dxz               87     -0.274545  2 S  dxz        
    20      0.251403  1 S  py                73     -0.251403  2 S  py         

 Vector   44  Occ=0.000000D+00  E= 6.043806D-01  Symmetry=a2u
              MO Center= -7.9D-18,  7.9D-18,  6.4D-14, r^2= 9.7D+00
   Bfn.  Coefficient  Atom+Function         Bfn.  Coefficient  Atom+Function  
  ----- ------------  ---------------      ----- ------------  ---------------
    21      6.017819  1 S  pz                74      6.017819  2 S  pz         
     6     -4.654583  1 S  s                 59      4.654583  2 S  s          
    43     -4.052867  1 S  dzz               96      4.052867  2 S  dzz        
    18      3.367044  1 S  pz                71      3.367044  2 S  pz         
    25     -1.728576  1 S  pz                78     -1.728576  2 S  pz         


                     DFT Final Beta Molecular Orbital Analysis
                     -----------------------------------------

 Vector    5  Occ=1.000000D+00  E=-5.862487D+00  Symmetry=a1g
              MO Center=  8.1D-34,  1.7D-33, -1.0D-16, r^2= 9.9D-01
   Bfn.  Coefficient  Atom+Function         Bfn.  Coefficient  Atom+Function  
  ----- ------------  ---------------      ----- ------------  ---------------
    12      0.499298  1 S  pz                65     -0.499298  2 S  pz         
     9      0.266186  1 S  pz                62     -0.266186  2 S  pz         

 Vector    6  Occ=1.000000D+00  E=-5.861823D+00  Symmetry=a2u
              MO Center=  1.0D-16,  1.2D-16,  6.7D-17, r^2= 9.9D-01
   Bfn.  Coefficient  Atom+Function         Bfn.  Coefficient  Atom+Function  
  ----- ------------  ---------------      ----- ------------  ---------------
    12      0.499453  1 S  pz                65      0.499453  2 S  pz         
     9      0.266276  1 S  pz                62      0.266276  2 S  pz         

 Vector    7  Occ=1.000000D+00  E=-5.855091D+00  Symmetry=eu
              MO Center= -1.2D-17,  3.1D-18, -3.8D-11, r^2= 9.9D-01
   Bfn.  Coefficient  Atom+Function         Bfn.  Coefficient  Atom+Function  
  ----- ------------  ---------------      ----- ------------  ---------------
    11      0.372773  1 S  py                64      0.372773  2 S  py         
    10     -0.332949  1 S  px                63     -0.332949  2 S  px         
     8      0.198581  1 S  py                61      0.198581  2 S  py         
     7     -0.177367  1 S  px                60     -0.177367  2 S  px         

 Vector    8  Occ=1.000000D+00  E=-5.855091D+00  Symmetry=eu
              MO Center=  3.0D-17,  3.8D-17, -8.0D-11, r^2= 9.9D-01
   Bfn.  Coefficient  Atom+Function         Bfn.  Coefficient  Atom+Function  
  ----- ------------  ---------------      ----- ------------  ---------------
    10      0.372773  1 S  px                63      0.372773  2 S  px         
    11      0.332949  1 S  py                64      0.332949  2 S  py         
     7      0.198581  1 S  px                60      0.198581  2 S  px         
     8      0.177367  1 S  py                61      0.177367  2 S  py         

 Vector    9  Occ=1.000000D+00  E=-5.855039D+00  Symmetry=eg
              MO Center= -3.5D-16, -5.6D-16,  6.2D-11, r^2= 9.9D-01
   Bfn.  Coefficient  Atom+Function         Bfn.  Coefficient  Atom+Function  
  ----- ------------  ---------------      ----- ------------  ---------------
    11      0.429225  1 S  py                64     -0.429225  2 S  py         
    10      0.256088  1 S  px                63     -0.256088  2 S  px         
     8      0.228662  1 S  py                61     -0.228662  2 S  py         

 Vector   10  Occ=1.000000D+00  E=-5.855039D+00  Symmetry=eg
              MO Center= -1.1D-16,  6.4D-17,  5.5D-11, r^2= 9.9D-01
   Bfn.  Coefficient  Atom+Function         Bfn.  Coefficient  Atom+Function  
  ----- ------------  ---------------      ----- ------------  ---------------
    10      0.429225  1 S  px                63     -0.429225  2 S  px         
    11     -0.256088  1 S  py                64      0.256088  2 S  py         
     7      0.228662  1 S  px                60     -0.228662  2 S  px         

 Vector   11  Occ=1.000000D+00  E=-8.118795D-01  Symmetry=a1g
              MO Center= -2.1D-17, -1.9D-17,  1.9D-16, r^2= 1.2D+00
   Bfn.  Coefficient  Atom+Function         Bfn.  Coefficient  Atom+Function  
  ----- ------------  ---------------      ----- ------------  ---------------
     5      0.458989  1 S  s                 58      0.458989  2 S  s          
     6      0.410410  1 S  s                 59      0.410410  2 S  s          
     4     -0.275303  1 S  s                 57     -0.275303  2 S  s          

 Vector   12  Occ=1.000000D+00  E=-6.031191D-01  Symmetry=a2u
              MO Center=  2.9D-15,  8.2D-17,  1.7D-15, r^2= 2.5D+00
   Bfn.  Coefficient  Atom+Function         Bfn.  Coefficient  Atom+Function  
  ----- ------------  ---------------      ----- ------------  ---------------
     6      0.609333  1 S  s                 59     -0.609333  2 S  s          
     5      0.524496  1 S  s                 58     -0.524496  2 S  s          
     4     -0.311136  1 S  s                 57      0.311136  2 S  s          
     3     -0.162129  1 S  s                 56      0.162129  2 S  s          
    18      0.156312  1 S  pz                71      0.156312  2 S  pz         

 Vector   13  Occ=1.000000D+00  E=-4.129452D-01  Symmetry=a1g
              MO Center= -3.3D-15,  8.7D-16, -3.5D-15, r^2= 2.8D+00
   Bfn.  Coefficient  Atom+Function         Bfn.  Coefficient  Atom+Function  
  ----- ------------  ---------------      ----- ------------  ---------------
    18      0.490882  1 S  pz                71     -0.490882  2 S  pz         
     6      0.352063  1 S  s                 59      0.352063  2 S  s          
    15      0.180945  1 S  pz                68     -0.180945  2 S  pz         
     5      0.163915  1 S  s                 58      0.163915  2 S  s          

 Vector   14  Occ=1.000000D+00  E=-3.756878D-01  Symmetry=eu
              MO Center=  2.1D-15,  1.4D-15,  4.4D-15, r^2= 2.0D+00
   Bfn.  Coefficient  Atom+Function         Bfn.  Coefficient  Atom+Function  
  ----- ------------  ---------------      ----- ------------  ---------------
    16      0.500116  1 S  px                69      0.500116  2 S  px         
    17      0.264204  1 S  py                70      0.264204  2 S  py         

 Vector   15  Occ=1.000000D+00  E=-3.756878D-01  Symmetry=eu
              MO Center=  9.5D-16, -1.8D-15, -2.6D-18, r^2= 2.0D+00
   Bfn.  Coefficient  Atom+Function         Bfn.  Coefficient  Atom+Function  
  ----- ------------  ---------------      ----- ------------  ---------------
    17      0.500116  1 S  py                70      0.500116  2 S  py         
    16     -0.264204  1 S  px                69     -0.264204  2 S  px         

 Vector   16  Occ=0.000000D+00  E=-2.347009D-01  Symmetry=eg
              MO Center=  1.2D-16, -6.2D-16, -1.0D-15, r^2= 2.8D+00
   Bfn.  Coefficient  Atom+Function         Bfn.  Coefficient  Atom+Function  
  ----- ------------  ---------------      ----- ------------  ---------------
    17      0.665613  1 S  py                70     -0.665613  2 S  py         
    20      0.238929  1 S  py                73     -0.238929  2 S  py         
    16      0.166669  1 S  px                69     -0.166669  2 S  px         
    14      0.152792  1 S  py                67     -0.152792  2 S  py         

 Vector   17  Occ=0.000000D+00  E=-2.347009D-01  Symmetry=eg
              MO Center= -2.3D-15,  5.8D-16, -2.0D-15, r^2= 2.8D+00
   Bfn.  Coefficient  Atom+Function         Bfn.  Coefficient  Atom+Function  
  ----- ------------  ---------------      ----- ------------  ---------------
    16      0.665613  1 S  px                69     -0.665613  2 S  px         
    19      0.238929  1 S  px                72     -0.238929  2 S  px         
    17     -0.166669  1 S  py                70      0.166669  2 S  py         
    13      0.152792  1 S  px                66     -0.152792  2 S  px         

 Vector   18  Occ=0.000000D+00  E=-9.701049D-02  Symmetry=a2u
              MO Center= -4.9D-16,  5.1D-17,  1.5D-15, r^2= 3.9D+00
   Bfn.  Coefficient  Atom+Function         Bfn.  Coefficient  Atom+Function  
  ----- ------------  ---------------      ----- ------------  ---------------
    22      0.803500  1 S  s                 75     -0.803500  2 S  s          
    18     -0.651889  1 S  pz                71     -0.651889  2 S  pz         
    25     -0.383225  1 S  pz                78     -0.383225  2 S  pz         
     6      0.351852  1 S  s                 59     -0.351852  2 S  s          
     5      0.259637  1 S  s                 58     -0.259637  2 S  s          

 Vector   19  Occ=0.000000D+00  E=-2.412857D-02  Symmetry=a1g
              MO Center=  3.6D-16,  1.9D-16, -2.3D-16, r^2= 6.2D+00
   Bfn.  Coefficient  Atom+Function         Bfn.  Coefficient  Atom+Function  
  ----- ------------  ---------------      ----- ------------  ---------------
    22      0.661104  1 S  s                 75      0.661104  2 S  s          
     5     -0.231473  1 S  s                 58     -0.231473  2 S  s          
     6     -0.209291  1 S  s                 59     -0.209291  2 S  s          
    43     -0.198425  1 S  dzz               96     -0.198425  2 S  dzz        
    21     -0.156117  1 S  pz                74      0.156117  2 S  pz         

 Vector   20  Occ=0.000000D+00  E= 3.664625D-02  Symmetry=eu
              MO Center=  1.3D-13,  3.0D-14,  1.1D-15, r^2= 1.1D+01
   Bfn.  Coefficient  Atom+Function         Bfn.  Coefficient  Atom+Function  
  ----- ------------  ---------------      ----- ------------  ---------------
    23      0.772150  1 S  px                76      0.772150  2 S  px         
    19     -0.393936  1 S  px                72     -0.393936  2 S  px         
    40      0.289038  1 S  dxz               93     -0.289038  2 S  dxz        
    24      0.189774  1 S  py                77      0.189774  2 S  py         

 Vector   21  Occ=0.000000D+00  E= 3.664625D-02  Symmetry=eu
              MO Center=  2.7D-17, -1.1D-16,  3.9D-16, r^2= 1.1D+01
   Bfn.  Coefficient  Atom+Function         Bfn.  Coefficient  Atom+Function  
  ----- ------------  ---------------      ----- ------------  ---------------
    24      0.772150  1 S  py                77      0.772150  2 S  py         
    20     -0.393936  1 S  py                73     -0.393936  2 S  py         
    42      0.289038  1 S  dyz               95     -0.289038  2 S  dyz        
    23     -0.189774  1 S  px                76     -0.189774  2 S  px         

 Vector   22  Occ=0.000000D+00  E= 3.980029D-02  Symmetry=a1g
              MO Center= -1.2D-13, -2.9D-14, -3.9D-15, r^2= 1.4D+01
   Bfn.  Coefficient  Atom+Function         Bfn.  Coefficient  Atom+Function  
  ----- ------------  ---------------      ----- ------------  ---------------
    25      1.151919  1 S  pz                78     -1.151919  2 S  pz         
    22      0.632690  1 S  s                 75      0.632690  2 S  s          
    21     -0.366764  1 S  pz                74      0.366764  2 S  pz         
     6     -0.182683  1 S  s                 59     -0.182683  2 S  s          
    18      0.172685  1 S  pz                71     -0.172685  2 S  pz         

 Vector   23  Occ=0.000000D+00  E= 4.089226D-02  Symmetry=a2u
              MO Center=  1.7D-16, -3.9D-16,  1.0D-15, r^2= 1.5D+01
   Bfn.  Coefficient  Atom+Function         Bfn.  Coefficient  Atom+Function  
  ----- ------------  ---------------      ----- ------------  ---------------
    25      1.643760  1 S  pz                78      1.643760  2 S  pz         
    21     -1.400343  1 S  pz                74     -1.400343  2 S  pz         
    22     -0.820531  1 S  s                 75      0.820531  2 S  s          
    18     -0.425977  1 S  pz                71     -0.425977  2 S  pz         
     6      0.389446  1 S  s                 59     -0.389446  2 S  s          

 Vector   24  Occ=0.000000D+00  E= 7.043425D-02  Symmetry=b2g
              MO Center=  2.4D-16, -4.0D-16,  3.9D-17, r^2= 3.3D+00
   Bfn.  Coefficient  Atom+Function         Bfn.  Coefficient  Atom+Function  
  ----- ------------  ---------------      ----- ------------  ---------------
    39      0.941617  1 S  dxy               92      0.941617  2 S  dxy        
    33      0.215434  1 S  dxy               86      0.215434  2 S  dxy        

 Vector   25  Occ=0.000000D+00  E= 7.043449D-02  Symmetry=b1g
              MO Center= -2.7D-15,  6.7D-16,  8.2D-17, r^2= 3.3D+00
   Bfn.  Coefficient  Atom+Function         Bfn.  Coefficient  Atom+Function  
  ----- ------------  ---------------      ----- ------------  ---------------
    38      0.470808  1 S  dxx               41     -0.470808  1 S  dyy        
    91      0.470808  2 S  dxx               94     -0.470808  2 S  dyy        

 Vector   26  Occ=0.000000D+00  E= 8.145114D-02  Symmetry=eg
              MO Center=  4.8D-21,  1.2D-20,  7.5D-17, r^2= 1.6D+01
   Bfn.  Coefficient  Atom+Function         Bfn.  Coefficient  Atom+Function  
  ----- ------------  ---------------      ----- ------------  ---------------
    24      2.087322  1 S  py                77     -2.087322  2 S  py         
    20     -0.857678  1 S  py                73      0.857678  2 S  py         
    23      0.799773  1 S  px                76     -0.799773  2 S  px         
    19     -0.328626  1 S  px                72      0.328626  2 S  px         
    42      0.194864  1 S  dyz               95      0.194864  2 S  dyz        

 Vector   27  Occ=0.000000D+00  E= 8.145114D-02  Symmetry=eg
              MO Center=  9.7D-21, -3.7D-21, -3.8D-15, r^2= 1.6D+01
   Bfn.  Coefficient  Atom+Function         Bfn.  Coefficient  Atom+Function  
  ----- ------------  ---------------      ----- ------------  ---------------
    23      2.087322  1 S  px                76     -2.087322  2 S  px         
    19     -0.857678  1 S  px                72      0.857678  2 S  px         
    24     -0.799773  1 S  py                77      0.799773  2 S  py         
    20      0.328626  1 S  py                73     -0.328626  2 S  py         
    40      0.194864  1 S  dxz               93      0.194864  2 S  dxz        

 Vector   28  Occ=0.000000D+00  E= 9.966503D-02  Symmetry=eu
              MO Center=  1.1D-15, -3.4D-16, -2.2D-15, r^2= 5.2D+00
   Bfn.  Coefficient  Atom+Function         Bfn.  Coefficient  Atom+Function  
  ----- ------------  ---------------      ----- ------------  ---------------
    40      0.702738  1 S  dxz               93     -0.702738  2 S  dxz        
    42     -0.480898  1 S  dyz               95      0.480898  2 S  dyz        
    23     -0.393418  1 S  px                76     -0.393418  2 S  px         
    19      0.335423  1 S  px                72      0.335423  2 S  px         
    24      0.269224  1 S  py                77      0.269224  2 S  py         

 Vector   29  Occ=0.000000D+00  E= 9.966503D-02  Symmetry=eu
              MO Center=  1.1D-15,  1.8D-15,  5.4D-16, r^2= 5.2D+00
   Bfn.  Coefficient  Atom+Function         Bfn.  Coefficient  Atom+Function  
  ----- ------------  ---------------      ----- ------------  ---------------
    42      0.702738  1 S  dyz               95     -0.702738  2 S  dyz        
    40      0.480898  1 S  dxz               93     -0.480898  2 S  dxz        
    24     -0.393418  1 S  py                77     -0.393418  2 S  py         
    20      0.335423  1 S  py                73      0.335423  2 S  py         
    23     -0.269224  1 S  px                76     -0.269224  2 S  px         

 Vector   30  Occ=0.000000D+00  E= 1.285085D-01  Symmetry=a2u
              MO Center= -1.2D-16, -1.5D-17, -5.9D-14, r^2= 1.5D+01
   Bfn.  Coefficient  Atom+Function         Bfn.  Coefficient  Atom+Function  
  ----- ------------  ---------------      ----- ------------  ---------------
    22     15.469280  1 S  s                 75    -15.469280  2 S  s          
    25     -6.000523  1 S  pz                78     -6.000523  2 S  pz         
     6     -0.521607  1 S  s                 59      0.521607  2 S  s          
    43     -0.392691  1 S  dzz               96      0.392691  2 S  dzz        
    21      0.346632  1 S  pz                74      0.346632  2 S  pz         

 Vector   31  Occ=0.000000D+00  E= 1.760216D-01  Symmetry=a1g
              MO Center= -5.2D-15, -9.7D-16, -8.9D-15, r^2= 1.2D+01
   Bfn.  Coefficient  Atom+Function         Bfn.  Coefficient  Atom+Function  
  ----- ------------  ---------------      ----- ------------  ---------------
    25      1.785378  1 S  pz                78     -1.785378  2 S  pz         
    21     -1.223484  1 S  pz                74      1.223484  2 S  pz         
    38      0.525757  1 S  dxx               41      0.525757  1 S  dyy        
    91      0.525757  2 S  dxx               94      0.525757  2 S  dyy        
    22     -0.385117  1 S  s                 75     -0.385117  2 S  s          

 Vector   32  Occ=0.000000D+00  E= 2.101884D-01  Symmetry=b1u
              MO Center= -1.0D-15, -5.0D-16,  1.8D-16, r^2= 3.8D+00
   Bfn.  Coefficient  Atom+Function         Bfn.  Coefficient  Atom+Function  
  ----- ------------  ---------------      ----- ------------  ---------------
    39      1.312421  1 S  dxy               92     -1.312421  2 S  dxy        
    33      0.254795  1 S  dxy               86     -0.254795  2 S  dxy        

 Vector   33  Occ=0.000000D+00  E= 2.101890D-01  Symmetry=b2u
              MO Center= -7.1D-16,  8.6D-16,  3.0D-16, r^2= 3.8D+00
   Bfn.  Coefficient  Atom+Function         Bfn.  Coefficient  Atom+Function  
  ----- ------------  ---------------      ----- ------------  ---------------
    38      0.656210  1 S  dxx               41     -0.656210  1 S  dyy        
    91     -0.656210  2 S  dxx               94      0.656210  2 S  dyy        

 Vector   34  Occ=0.000000D+00  E= 2.370055D-01  Symmetry=a2u
              MO Center=  3.6D-16,  1.6D-17,  8.3D-15, r^2= 1.4D+01
   Bfn.  Coefficient  Atom+Function         Bfn.  Coefficient  Atom+Function  
  ----- ------------  ---------------      ----- ------------  ---------------
    22      5.704448  1 S  s                 75     -5.704448  2 S  s          
    21     -4.980071  1 S  pz                74     -4.980071  2 S  pz         
     6      2.490775  1 S  s                 59     -2.490775  2 S  s          
    43      1.387972  1 S  dzz               96     -1.387972  2 S  dzz        
    18     -0.549511  1 S  pz                71     -0.549511  2 S  pz         

 Vector   35  Occ=0.000000D+00  E= 2.631382D-01  Symmetry=eu
              MO Center= -8.4D-14, -8.4D-14,  5.0D-15, r^2= 9.1D+00
   Bfn.  Coefficient  Atom+Function         Bfn.  Coefficient  Atom+Function  
  ----- ------------  ---------------      ----- ------------  ---------------
    20      1.265557  1 S  py                73      1.265557  2 S  py         
    19      1.254490  1 S  px                72      1.254490  2 S  px         
    17     -0.907828  1 S  py                70     -0.907828  2 S  py         
    16     -0.899889  1 S  px                69     -0.899889  2 S  px         
    24     -0.787023  1 S  py                77     -0.787023  2 S  py         

 Vector   36  Occ=0.000000D+00  E= 2.631382D-01  Symmetry=eu
              MO Center=  6.6D-16, -6.6D-16,  3.6D-16, r^2= 9.1D+00
   Bfn.  Coefficient  Atom+Function         Bfn.  Coefficient  Atom+Function  
  ----- ------------  ---------------      ----- ------------  ---------------
    19      1.265557  1 S  px                72      1.265557  2 S  px         
    20     -1.254490  1 S  py                73     -1.254490  2 S  py         
    16     -0.907828  1 S  px                69     -0.907828  2 S  px         
    17      0.899889  1 S  py                70      0.899889  2 S  py         
    23     -0.787023  1 S  px                76     -0.787023  2 S  px         

 Vector   37  Occ=0.000000D+00  E= 2.762009D-01  Symmetry=a1g
              MO Center=  8.2D-14,  8.3D-14, -3.8D-14, r^2= 1.0D+01
   Bfn.  Coefficient  Atom+Function         Bfn.  Coefficient  Atom+Function  
  ----- ------------  ---------------      ----- ------------  ---------------
    21     -1.208089  1 S  pz                74      1.208089  2 S  pz         
     6      1.144130  1 S  s                 59      1.144130  2 S  s          
    22      1.132336  1 S  s                 75      1.132336  2 S  s          
    38     -0.991549  1 S  dxx               41     -0.991549  1 S  dyy        
    91     -0.991549  2 S  dxx               94     -0.991549  2 S  dyy        

 Vector   38  Occ=0.000000D+00  E= 2.946933D-01  Symmetry=eg
              MO Center=  4.0D-16, -7.6D-16, -5.5D-15, r^2= 9.8D+00
   Bfn.  Coefficient  Atom+Function         Bfn.  Coefficient  Atom+Function  
  ----- ------------  ---------------      ----- ------------  ---------------
    20      2.303369  1 S  py                73     -2.303369  2 S  py         
    24     -2.147704  1 S  py                77      2.147704  2 S  py         
    17     -1.313369  1 S  py                70      1.313369  2 S  py         
    42      0.596806  1 S  dyz               95      0.596806  2 S  dyz        
    19     -0.375948  1 S  px                72      0.375948  2 S  px         

 Vector   39  Occ=0.000000D+00  E= 2.946933D-01  Symmetry=eg
              MO Center=  5.6D-16,  5.4D-16, -1.6D-15, r^2= 9.8D+00
   Bfn.  Coefficient  Atom+Function         Bfn.  Coefficient  Atom+Function  
  ----- ------------  ---------------      ----- ------------  ---------------
    19      2.303369  1 S  px                72     -2.303369  2 S  px         
    23     -2.147704  1 S  px                76      2.147704  2 S  px         
    16     -1.313369  1 S  px                69      1.313369  2 S  px         
    40      0.596806  1 S  dxz               93      0.596806  2 S  dxz        
    20      0.375948  1 S  py                73     -0.375948  2 S  py         

 Vector   40  Occ=0.000000D+00  E= 3.840682D-01  Symmetry=a2u
              MO Center= -3.5D-16,  6.4D-17, -5.1D-15, r^2= 8.1D+00
   Bfn.  Coefficient  Atom+Function         Bfn.  Coefficient  Atom+Function  
  ----- ------------  ---------------      ----- ------------  ---------------
    22     11.534501  1 S  s                 75    -11.534501  2 S  s          
    25     -4.404533  1 S  pz                78     -4.404533  2 S  pz         
    38     -1.546793  1 S  dxx               41     -1.546793  1 S  dyy        
    91      1.546793  2 S  dxx               94      1.546793  2 S  dyy        
     6      1.284615  1 S  s                 59     -1.284615  2 S  s          

 Vector   41  Occ=0.000000D+00  E= 3.942124D-01  Symmetry=a1g
              MO Center= -1.1D-15, -1.2D-15,  5.1D-14, r^2= 5.6D+00
   Bfn.  Coefficient  Atom+Function         Bfn.  Coefficient  Atom+Function  
  ----- ------------  ---------------      ----- ------------  ---------------
     6      2.391126  1 S  s                 59      2.391126  2 S  s          
    21      2.141531  1 S  pz                74     -2.141531  2 S  pz         
    43     -1.669504  1 S  dzz               96     -1.669504  2 S  dzz        
    18     -1.341176  1 S  pz                71      1.341176  2 S  pz         
    25     -1.102042  1 S  pz                78      1.102042  2 S  pz         

 Vector   42  Occ=0.000000D+00  E= 4.040875D-01  Symmetry=eg
              MO Center=  2.1D-16,  6.7D-17,  1.3D-15, r^2= 5.5D+00
   Bfn.  Coefficient  Atom+Function         Bfn.  Coefficient  Atom+Function  
  ----- ------------  ---------------      ----- ------------  ---------------
    20      2.500135  1 S  py                73     -2.500135  2 S  py         
    42     -2.398133  1 S  dyz               95     -2.398133  2 S  dyz        
    24     -1.231000  1 S  py                77      1.231000  2 S  py         
    19     -0.301269  1 S  px                72      0.301269  2 S  px         
    40      0.288977  1 S  dxz               93      0.288977  2 S  dxz        

 Vector   43  Occ=0.000000D+00  E= 4.040875D-01  Symmetry=eg
              MO Center= -2.1D-17, -1.6D-16, -2.5D-15, r^2= 5.5D+00
   Bfn.  Coefficient  Atom+Function         Bfn.  Coefficient  Atom+Function  
  ----- ------------  ---------------      ----- ------------  ---------------
    19      2.500135  1 S  px                72     -2.500135  2 S  px         
    40     -2.398133  1 S  dxz               93     -2.398133  2 S  dxz        
    23     -1.231000  1 S  px                76      1.231000  2 S  px         
    20      0.301269  1 S  py                73     -0.301269  2 S  py         
    42     -0.288977  1 S  dyz               95     -0.288977  2 S  dyz        

 Vector   44  Occ=0.000000D+00  E= 6.133647D-01  Symmetry=a2u
              MO Center=  2.4D-17, -7.9D-18,  1.0D-13, r^2= 9.7D+00
   Bfn.  Coefficient  Atom+Function         Bfn.  Coefficient  Atom+Function  
  ----- ------------  ---------------      ----- ------------  ---------------
    21      6.043745  1 S  pz                74      6.043745  2 S  pz         
     6     -4.709717  1 S  s                 59      4.709717  2 S  s          
    43     -4.086907  1 S  dzz               96      4.086907  2 S  dzz        
    18      3.435208  1 S  pz                71      3.435208  2 S  pz         
    25     -1.725046  1 S  pz                78     -1.725046  2 S  pz         


   alpha - beta orbital overlaps 
   ----------------------------- 


   alpha      1      2      3      4      5      6      7      8      9     10
    beta      1      2      3      4      5      6      8      7      9     10
 overlap   1.000  1.000  1.000  1.000  1.000  1.000  0.762  0.762  0.961  0.961


   alpha     11     12     13     14     15     16     17     18     19     20
    beta     11     12     13     14     15     17     16     18     19     21
 overlap   0.999  0.999  0.999  0.994  0.994  0.995  0.995  0.999  1.000  0.950


   alpha     21     22     23     24     25     26     27     28     29     30
    beta     20     22     23     24     25     27     26     29     28     30
 overlap   0.950  0.999  0.999  1.000  1.000  0.989  0.989  0.959  0.959  0.999


   alpha     31     32     33     34     35     36     37     38     39     40
    beta     31     32     33     34     35     36     37     39     38     40
 overlap   0.999  1.000  1.000  1.000  0.917  0.917  0.999  0.988  0.988  1.000


   alpha     41     42     43     44     45     46     47     48     49     50
    beta     41     42     43     44     45     47     46     48     49     50
 overlap   0.999  1.000  1.000  1.000  0.999  0.845  0.845  0.999  0.999  1.000


   alpha     51     52     53     54     55     56     57     58     59     60
    beta     51     53     52     54     56     55     57     59     58     60
 overlap   1.000  0.978  0.978  1.000  0.999  0.999  1.000  0.716  0.716  1.000


   alpha     61     62     63     64     65     66     67     68     69     70
    beta     61     63     62     64     65     66     68     67     69     70
 overlap   0.999  1.000  1.000  0.999  0.852  0.852  0.991  0.991  0.803  0.803


   alpha     71     72     73     74     75     76     77     78     79     80
    beta     72     71     73     74     76     75     77     78     79     81
 overlap   1.000  1.000  1.000  1.000  1.000  1.000  1.000  1.000  1.000  0.864


   alpha     81     82     83     84     85     86     87     88     89     90
    beta     80     82     83     84     85     86     87     88     89     90
 overlap   0.864  1.000  1.000  1.000  0.804  0.804  1.000  1.000  1.000  1.000


   alpha     91     92     93     94     95     96     97     98     99    100
    beta     91     93     92     94     95     96     98     97    100     99
 overlap   1.000  0.997  0.997  1.000  1.000  1.000  0.824  0.824  0.966  0.966


   alpha    101    102    103    104    105    106
    beta    101    102    103    104    105    106
 overlap   1.000  1.000  1.000  1.000  1.000  1.000

     --------------------------
     Expectation value of S2:  
     --------------------------
      <S2> =      2.0069 (Exact =     2.0000)


 center of mass
 --------------
 x =   0.00000000 y =   0.00000000 z =   0.00000000

 moments of inertia (a.u.)
 ------------------
         210.495648659283           0.000000000000           0.000000000000
           0.000000000000         210.495648659283           0.000000000000
           0.000000000000           0.000000000000           0.000000000000

     Multipole analysis of the density
     ---------------------------------

     L   x y z        total         alpha         beta         nuclear
     -   - - -        -----         -----         ----         -------
     0   0 0 0     -0.000000    -17.000000    -15.000000     32.000000

     1   1 0 0      0.000000      0.000000      0.000000      0.000000
     1   0 1 0      0.000000      0.000000      0.000000      0.000000
     1   0 0 1     -0.000000      0.000000     -0.000000      0.000000

     2   2 0 0    -19.718664    -11.733419     -7.985246      0.000000
     2   1 1 0      0.000000      0.000000      0.000000      0.000000
     2   1 0 1      0.000000      0.000000      0.000000      0.000000
     2   0 2 0    -19.718664    -11.733419     -7.985246      0.000000
     2   0 1 1      0.000000      0.000000      0.000000      0.000000
     2   0 0 2    -18.292186    -67.276457    -56.355495    105.339766


------------------------------------------------------------
EAF file 0: "./S2.aoints.0" size=8912896 bytes
------------------------------------------------------------
               write      read    awrite     aread      wait
               -----      ----    ------     -----      ----
     calls:       17         9         0       144       144
   data(b): 8.91e+06  4.72e+06  0.00e+00  7.55e+07
   time(s): 0.00e+00  0.00e+00  0.00e+00  0.00e+00  0.00e+00
rate(mb/s): 0.00e+00  0.00e+00
------------------------------------------------------------


 Parallel integral file used      59 records with       0 large values


 Task  times  cpu:        5.4s     wall:        5.7s


                                NWChem Input Module
                                -------------------


 Summary of allocated global arrays
-----------------------------------
  No active global arrays



                         GA Statistics for process    0
                         ------------------------------

       create   destroy   get      put      acc     scatter   gather  read&inc
calls:  535      535     7.95e+04 3.08e+04 4393        0        0      442     
number of processes/call 1.00e+00 1.00e+00 1.00e+00 0.00e+00 0.00e+00
bytes total:             1.95e+08 6.33e+07 1.28e+08 0.00e+00 0.00e+00 3.54e+03
bytes remote:            0.00e+00 0.00e+00 0.00e+00 0.00e+00 0.00e+00 0.00e+00
Max memory consumed for GA by this process: 5842720 bytes

MA_summarize_allocated_blocks: starting scan ...
MA_summarize_allocated_blocks: scan completed: 0 heap blocks, 0 stack blocks
MA usage statistics:

	allocation statistics:
					      heap	     stack
					      ----	     -----
	current number of blocks	         0	         0
	maximum number of blocks	        24	        55
	current total bytes		         0	         0
	maximum total bytes		  24016280	  25265192
	maximum total K-bytes		     24017	     25266
	maximum total M-bytes		        25	        26


                                     CITATION
                                     --------
                Please cite the following reference when publishing
                           results obtained with NWChem:

                 M. Valiev, E.J. Bylaska, N. Govind, K. Kowalski,
              T.P. Straatsma, H.J.J. van Dam, D. Wang, J. Nieplocha,
                        E. Apra, T.L. Windus, W.A. de Jong
                 "NWChem: a comprehensive and scalable open-source
                  solution for large scale molecular simulations"
                      Comput. Phys. Commun. 181, 1477 (2010)
                           doi:10.1016/j.cpc.2010.04.018

                                      AUTHORS
                                      -------
          E. Apra, E. J. Bylaska, W. A. de Jong, N. Govind, K. Kowalski,
       T. P. Straatsma, M. Valiev, H. J. J. van Dam, D. Wang, T. L. Windus,
        J. Hammond, J. Autschbach, K. Bhaskaran-Nair, J. Brabec, K. Lopata,
       S. A. Fischer, S. Krishnamoorthy, W. Ma, M. Klemm, O. Villa, Y. Chen,
    V. Anisimov, F. Aquino, S. Hirata, M. T. Hackler, T. Risthaus, M. Malagoli,
       A. Marenich, A. Otero-de-la-Roza, J. Mullin, P. Nichols, R. Peverati,
     J. Pittner, Y. Zhao, P.-D. Fan, A. Fonari, M. Williamson, R. J. Harrison,
       J. R. Rehr, M. Dupuis, D. Silverstein, D. M. A. Smith, J. Nieplocha,
        V. Tipparaju, M. Krishnan, B. E. Van Kuiken, A. Vazquez-Mayagoitia,
        L. Jensen, M. Swart, Q. Wu, T. Van Voorhis, A. A. Auer, M. Nooijen,
      L. D. Crosby, E. Brown, G. Cisneros, G. I. Fann, H. Fruchtl, J. Garza,
        K. Hirao, R. A. Kendall, J. A. Nichols, K. Tsemekhman, K. Wolinski,
     J. Anchell, D. E. Bernholdt, P. Borowski, T. Clark, D. Clerc, H. Dachsel,
   M. J. O. Deegan, K. Dyall, D. Elwood, E. Glendening, M. Gutowski, A. C. Hess,
         J. Jaffe, B. G. Johnson, J. Ju, R. Kobayashi, R. Kutteh, Z. Lin,
   R. Littlefield, X. Long, B. Meng, T. Nakajima, S. Niu, L. Pollack, M. Rosing,
   K. Glaesemann, G. Sandrone, M. Stave, H. Taylor, G. Thomas, J. H. van Lenthe,
                               A. T. Wong, Z. Zhang.

 Total times  cpu:        5.5s     wall:        5.8s
