[1537439506.858508] [r8n3:20215:0]         sys.c:744  MXM  WARN  Conflicting CPU frequencies detected, using: 2674.92
[1537439506.862267] [r8n3:20215:0]         mxm.c:196  MXM  WARN  The 'ulimit -s' on the system is set to 'unlimited'. This may have negative performance implications. Please set the stack size to the default value (10240) 
[1537439506.863767] [r8n3:20215:0]         mxm.c:196  MXM  WARN  The 'ulimit -s' on the system is set to 'unlimited'. This may have negative performance implications. Please set the stack size to the default value (10240) 
 argument  1 = -
                                         
                                         


              Northwest Computational Chemistry Package (NWChem) 6.6
              ------------------------------------------------------


                    Environmental Molecular Sciences Laboratory
                       Pacific Northwest National Laboratory
                                Richland, WA 99352

                              Copyright (c) 1994-2015
                       Pacific Northwest National Laboratory
                            Battelle Memorial Institute

             NWChem is an open-source computational chemistry package
                        distributed under the terms of the
                      Educational Community License (ECL) 2.0
             A copy of the license is included with this distribution
                              in the LICENSE.TXT file

                                  ACKNOWLEDGMENT
                                  --------------

            This software and its documentation were developed at the
            EMSL at Pacific Northwest National Laboratory, a multiprogram
            national laboratory, operated for the U.S. Department of Energy
            by Battelle under Contract Number DE-AC05-76RL01830. Support
            for this work was provided by the Department of Energy Office
            of Biological and Environmental Research, Office of Basic
            Energy Sciences, and the Office of Advanced Scientific Computing.


           Job information
           ---------------

    hostname        = r8n3.niserhpc.org
    program         = /home/bikashp/Code/nwchem-6.6_tpssloc/bin/LINUX64/nwchem
    date            = Thu Sep 20 16:01:47 2018

    compiled        = Tue_Sep_18_16:24:59_2018
    source          = /home/bikashp/Code/nwchem-6.6_tpssloc
    nwchem branch   = 6.6
    nwchem revision = 27746
    ga revision     = 10594
    input           = nwchem.nw
    prefix          = SiO.
    data base       = ./SiO.db
    status          = startup
    nproc           =        1
    time left       =     -1s



           Memory information
           ------------------

    heap     =   13107196 doubles =    100.0 Mbytes
    stack    =   13107201 doubles =    100.0 Mbytes
    global   =   26214400 doubles =    200.0 Mbytes (distinct from heap & stack)
    total    =   52428797 doubles =    400.0 Mbytes
    verify   = yes
    hardfail = no 


           Directory information
           ---------------------

  0 permanent = .
  0 scratch   = .




                                NWChem Input Module
                                -------------------



 Scaling coordinates for geometry "geometry" by  1.889725989
 (inverse scale =  0.529177249)

 ORDER OF PRIMARY AXIS IS BEING SET TO 4
 C4V symmetry detected

          ------
          auto-z
          ------


                             Geometry "geometry" -> ""
                             -------------------------

 Output coordinates in angstroms (scale by  1.889725989 to convert to a.u.)

  No.       Tag          Charge          X              Y              Z
 ---- ---------------- ---------- -------------- -------------- --------------
    1 Si                  14.0000     0.00000000     0.00000000     0.56084582
    2 O                    8.0000     0.00000000     0.00000000    -0.98148018

      Atomic Mass 
      ----------- 

      Si                27.976930
      O                 15.994910


 Effective nuclear repulsion energy (a.u.)      38.4275774953

            Nuclear Dipole moment (a.u.) 
            ----------------------------
        X                 Y               Z
 ---------------- ---------------- ----------------
     0.0000000000     0.0000000000     0.0000000000

      Symmetry information
      --------------------

 Group name             C4v       
 Group number             18
 Group order               8
 No. of unique centers     2

      Symmetry unique atoms

     1    2



                                Z-matrix (autoz)
                                -------- 

 Units are Angstrom for bonds and degrees for angles

      Type          Name      I     J     K     L     M      Value
      ----------- --------  ----- ----- ----- ----- ----- ----------
    1 Stretch                  1     2                       1.54233


            XYZ format geometry
            -------------------
     2
 geometry
 Si                    0.00000000     0.00000000     0.56084582
 O                     0.00000000     0.00000000    -0.98148018

 ==============================================================================
                                internuclear distances
 ------------------------------------------------------------------------------
       center one      |      center two      | atomic units |  angstroms
 ------------------------------------------------------------------------------
    2 O                |   1 Si               |     2.91457  |     1.54233
 ------------------------------------------------------------------------------
                         number of included internuclear distances:          1
 ==============================================================================





 Summary of "ao basis" -> "" (cartesian)
 ------------------------------------------------------------------------------
       Tag                 Description            Shells   Functions and Types
 ---------------- ------------------------------  ------  ---------------------
 *                     6-311++G(3df,3pd)              on all atoms 



                                 NWChem DFT Module
                                 -----------------


                      Basis "ao basis" -> "ao basis" (cartesian)
                      -----
  Si (Silicon)
  ------------
            Exponent  Coefficients 
       -------------- ---------------------------------------------------------
  1 S  6.93792300E+04  0.000757
  1 S  1.03549400E+04  0.005932
  1 S  2.33387960E+03  0.031088
  1 S  6.57142950E+02  0.124967
  1 S  2.14301130E+02  0.386897
  1 S  7.76291680E+01  0.554888

  2 S  7.76291680E+01  0.177881
  2 S  3.06308070E+01  0.627765
  2 S  1.28012950E+01  0.247623

  3 S  3.92686600E+00  1.000000

  4 S  1.45234300E+00  1.000000

  5 S  2.56234000E-01  1.000000

  6 S  9.42790000E-02  1.000000

  7 P  3.35483190E+02  0.008866
  7 P  7.89003660E+01  0.068299
  7 P  2.49881500E+01  0.290958
  7 P  9.21971100E+00  0.732117

  8 P  3.62114000E+00  0.619879
  8 P  1.45131000E+00  0.439148

  9 P  5.04977000E-01  1.000000

 10 P  1.86317000E-01  1.000000

 11 P  6.54320000E-02  1.000000

 12 S  3.31000000E-02  1.000000

 13 P  3.31000000E-02  1.000000

 14 D  1.80000000E+00  1.000000

 15 D  4.50000000E-01  1.000000

 16 D  1.12500000E-01  1.000000

 17 F  3.20000000E-01  1.000000

  O (Oxygen)
  ----------
            Exponent  Coefficients 
       -------------- ---------------------------------------------------------
  1 S  8.58850000E+03  0.001895
  1 S  1.29723000E+03  0.014386
  1 S  2.99296000E+02  0.070732
  1 S  8.73771000E+01  0.240001
  1 S  2.56789000E+01  0.594797
  1 S  3.74004000E+00  0.280802

  2 S  4.21175000E+01  0.113889
  2 S  9.62837000E+00  0.920811
  2 S  2.85332000E+00 -0.003274

  3 P  4.21175000E+01  0.036511
  3 P  9.62837000E+00  0.237153
  3 P  2.85332000E+00  0.819702

  4 S  9.05661000E-01  1.000000

  5 P  9.05661000E-01  1.000000

  6 S  2.55611000E-01  1.000000

  7 P  2.55611000E-01  1.000000

  8 S  8.45000000E-02  1.000000

  9 P  8.45000000E-02  1.000000

 10 D  5.16000000E+00  1.000000

 11 D  1.29200000E+00  1.000000

 12 D  3.22500000E-01  1.000000

 13 F  1.40000000E+00  1.000000



 Summary of "ao basis" -> "ao basis" (cartesian)
 ------------------------------------------------------------------------------
       Tag                 Description            Shells   Functions and Types
 ---------------- ------------------------------  ------  ---------------------
 Si                    6-311++G(3df,3pd)            17       53   7s6p3d1f
 O                     6-311++G(3df,3pd)            13       45   5s4p3d1f




 Summary of "ao basis" -> "ao basis" (cartesian)
 ------------------------------------------------------------------------------
       Tag                 Description            Shells   Functions and Types
 ---------------- ------------------------------  ------  ---------------------
 Si                    6-311++G(3df,3pd)            17       53   7s6p3d1f
 O                     6-311++G(3df,3pd)            13       45   5s4p3d1f


      Symmetry analysis of basis
      --------------------------

        a1         38
        a2          0
        b1          8
        b2          8
        e          44

  Caching 1-el integrals 

            General Information
            -------------------
          SCF calculation type: DFT
          Wavefunction type:  closed shell.
          No. of atoms     :     2
          No. of electrons :    22
           Alpha electrons :    11
            Beta electrons :    11
          Charge           :     0
          Spin multiplicity:     1
          Use of symmetry is: on ; symmetry adaption is: on 
          Maximum number of iterations: ***
          AO basis - number of functions:    98
                     number of shells:    30
          Convergence on energy requested: 1.00D-06
          Convergence on density requested: 1.00D-05
          Convergence on gradient requested: 5.00D-04

              XC Information
              --------------
                  TPSS metaGGA Exchange Functional  1.000          
             TPSS03 metaGGA Correlation Functional  1.000          

             Grid Information
             ----------------
          Grid used for XC integration:  medium    
          Radial quadrature: Mura-Knowles        
          Angular quadrature: Lebedev. 
          Tag              B.-S. Rad. Rad. Pts. Rad. Cut. Ang. Pts.
          ---              ---------- --------- --------- ---------
          Si                  1.10       88           9.0       590
          O                   0.60       49          10.0       434
          Grid pruning is: on 
          Number of quadrature shells:   137
          Spatial weights used:  Erf1

          Convergence Information
          -----------------------
          Convergence aids based upon iterative change in 
          total energy or number of iterations. 
          Levelshifting, if invoked, occurs when the 
          HOMO/LUMO gap drops below (HL_TOL): 1.00D-02
          DIIS, if invoked, will attempt to extrapolate 
          using up to (NFOCK): 10 stored Fock matrices.

                    Damping( 0%)  Levelshifting(0.5)       DIIS
                  --------------- ------------------- ---------------
          dE  on:    start            ASAP                start   
          dE off:    2 iters        *** iters           *** iters 


      Screening Tolerance Information
      -------------------------------
          Density screening/tol_rho: 1.00D-10
          AO Gaussian exp screening on grid/accAOfunc:  14
          CD Gaussian exp screening on grid/accCDfunc:  20
          XC Gaussian exp screening on grid/accXCfunc:  20
          Schwarz screening/accCoul: 1.00D-08


      Superposition of Atomic Density Guess
      -------------------------------------

 Sum of atomic energies:        -363.61453986

      Non-variational initial energy
      ------------------------------

 Total energy =    -363.624519
 1-e energy   =    -579.827530
 2-e energy   =     177.775433
 HOMO         =      -0.354421
 LUMO         =      -0.036450


      Symmetry analysis of molecular orbitals - initial
      -------------------------------------------------

  Numbering of irreducible representations: 

     1 a1          2 a2          3 b1          4 b2          5 e       

  Orbital symmetries:

     1 a1          2 a1          3 a1          4 a1          5 e       
     6 e           7 a1          8 a1          9 e          10 e       
    11 a1         12 e          13 e          14 a1         15 a1      
    16 e          17 e          18 a1         19 a1         20 e       
    21 e       

   Time after variat. SCF:      0.6
   Time prior to 1st pass:      0.6

 Integral file          = ./SiO.aoints.0
 Record size in doubles =    65536    No. of integs per rec  =    43688
 Max. records in memory =       61    Max. records in file   = ********
 No. of bits per label  =        8    No. of bits per value  =       64


 #quartets = 1.035D+05 #integrals = 2.974D+06 #direct =  0.0% #cached =100.0%


 Grid_pts file          = ./SiO.gridpts.0
 Record size in doubles =  12289        No. of grid_pts per rec  =   3070
 Max. records in memory =     30        Max. recs in file   = 994647809


           Memory utilization after 1st SCF pass: 
           Heap Space remaining (MW):        8.74             8736420
          Stack Space remaining (MW):       13.11            13106596

   convergence    iter        energy       DeltaE   RMS-Dens  Diis-err    time
 ---------------- ----- ----------------- --------- --------- ---------  ------
 d= 0,ls=0.0,diis     1   -364.6546572079 -4.03D+02  3.20D-02  2.21D+00     1.6
 d= 0,ls=0.0,diis     2   -360.5329779900  4.12D+00  2.54D-02  2.36D+01     1.8
 d= 0,ls=0.0,diis     3   -364.7937530934 -4.26D+00  8.03D-03  1.91D-01     2.0
 d= 0,ls=0.0,diis     4   -364.8178389360 -2.41D-02  2.83D-03  1.17D-02     2.3
 d= 0,ls=0.0,diis     5   -364.8154450024  2.39D-03  7.64D-04  3.73D-03     2.5
  Resetting Diis
 d= 0,ls=0.0,diis     6   -364.8166066836 -1.16D-03  2.55D-04  2.25D-04     2.7
 d= 0,ls=0.0,diis     7   -364.8167657060 -1.59D-04  9.77D-05  2.34D-05     2.9
 d= 0,ls=0.0,diis     8   -364.8169932323 -2.28D-04  6.96D-05  2.20D-04     3.1
 d= 0,ls=0.0,diis     9   -364.8167280701  2.65D-04  2.37D-05  7.67D-06     3.4
 d= 0,ls=0.0,diis    10   -364.8167844219 -5.64D-05  5.53D-06  9.83D-09     3.6
 d= 0,ls=0.0,diis    11   -364.8167843941  2.78D-08  1.45D-06  2.62D-09     3.8


         Total DFT energy =     -364.816784394059
      One electron energy =     -580.614303429413
           Coulomb energy =      206.771245922450
          Exchange energy =      -28.580303703727
       Correlation energy =       -0.821000678637
 Nuclear repulsion energy =       38.427577495268

 Numeric. integr. density =       21.999998877349

     Total iterative time =      3.2s



                  Occupations of the irreducible representations
                  ----------------------------------------------

                     irrep           alpha         beta
                     --------     --------     --------
                     a1                7.0          7.0
                     a2                0.0          0.0
                     b1                0.0          0.0
                     b2                0.0          0.0
                     e                 4.0          4.0


                       DFT Final Molecular Orbital Analysis
                       ------------------------------------

 Vector    1  Occ=2.000000D+00  E=-6.578091D+01  Symmetry=a1
              MO Center=  2.6D-27,  1.0D-26,  5.6D-01, r^2= 4.7D-03
   Bfn.  Coefficient  Atom+Function         Bfn.  Coefficient  Atom+Function  
  ----- ------------  ---------------      ----- ------------  ---------------
     2      0.645782  1 Si s                  1      0.417988  1 Si s          

 Vector    2  Occ=2.000000D+00  E=-1.895867D+01  Symmetry=a1
              MO Center=  7.2D-18, -4.1D-19, -9.8D-01, r^2= 1.5D-02
   Bfn.  Coefficient  Atom+Function         Bfn.  Coefficient  Atom+Function  
  ----- ------------  ---------------      ----- ------------  ---------------
    54      0.550775  2 O  s                 55      0.470964  2 O  s          

 Vector    3  Occ=2.000000D+00  E=-5.228723D+00  Symmetry=a1
              MO Center=  9.4D-19,  2.0D-16,  5.6D-01, r^2= 1.1D-01
   Bfn.  Coefficient  Atom+Function         Bfn.  Coefficient  Atom+Function  
  ----- ------------  ---------------      ----- ------------  ---------------
     4      0.577489  1 Si s                  3      0.528404  1 Si s          
     2     -0.302259  1 Si s          

 Vector    4  Occ=2.000000D+00  E=-3.609540D+00  Symmetry=e
              MO Center= -9.8D-17, -6.1D-17,  5.6D-01, r^2= 1.0D-01
   Bfn.  Coefficient  Atom+Function         Bfn.  Coefficient  Atom+Function  
  ----- ------------  ---------------      ----- ------------  ---------------
    10      0.599997  1 Si px                 7      0.348909  1 Si px         
    11      0.341853  1 Si py                 8      0.198793  1 Si py         

 Vector    5  Occ=2.000000D+00  E=-3.609540D+00  Symmetry=e
              MO Center=  1.2D-16, -2.2D-16,  5.6D-01, r^2= 1.0D-01
   Bfn.  Coefficient  Atom+Function         Bfn.  Coefficient  Atom+Function  
  ----- ------------  ---------------      ----- ------------  ---------------
    11      0.599997  1 Si py                 8      0.348909  1 Si py         
    10     -0.341853  1 Si px                 7     -0.198793  1 Si px         

 Vector    6  Occ=2.000000D+00  E=-3.602531D+00  Symmetry=a1
              MO Center=  4.6D-17,  5.7D-17,  5.6D-01, r^2= 1.0D-01
   Bfn.  Coefficient  Atom+Function         Bfn.  Coefficient  Atom+Function  
  ----- ------------  ---------------      ----- ------------  ---------------
    12      0.688698  1 Si pz                 9      0.401821  1 Si pz         

 Vector    7  Occ=2.000000D+00  E=-9.336016D-01  Symmetry=a1
              MO Center=  1.0D-17,  3.9D-16, -7.8D-01, r^2= 5.2D-01
   Bfn.  Coefficient  Atom+Function         Bfn.  Coefficient  Atom+Function  
  ----- ------------  ---------------      ----- ------------  ---------------
    63      0.621375  2 O  s                 59      0.545853  2 O  s          
     5      0.210843  1 Si s                 55     -0.207851  2 O  s          

 Vector    8  Occ=2.000000D+00  E=-4.619277D-01  Symmetry=a1
              MO Center= -3.5D-15,  4.0D-16, -1.3D-01, r^2= 1.9D+00
   Bfn.  Coefficient  Atom+Function         Bfn.  Coefficient  Atom+Function  
  ----- ------------  ---------------      ----- ------------  ---------------
     6      0.618711  1 Si s                  5      0.546287  1 Si s          
    63     -0.442526  2 O  s                  4     -0.277686  1 Si s          
    18      0.223950  1 Si pz                62      0.217225  2 O  pz         
     3     -0.192797  1 Si s                 59     -0.193551  2 O  s          
    58      0.173535  2 O  pz                66      0.167873  2 O  pz         

 Vector    9  Occ=2.000000D+00  E=-3.694009D-01  Symmetry=e
              MO Center=  4.7D-15, -4.7D-15, -7.0D-01, r^2= 1.1D+00
   Bfn.  Coefficient  Atom+Function         Bfn.  Coefficient  Atom+Function  
  ----- ------------  ---------------      ----- ------------  ---------------
    65     -0.275367  2 O  py                64      0.264372  2 O  px         
    61     -0.245080  2 O  py                60      0.235293  2 O  px         
    17     -0.208443  1 Si py                16      0.200119  1 Si px         
    57     -0.189764  2 O  py                56      0.182187  2 O  px         

 Vector   10  Occ=2.000000D+00  E=-3.694009D-01  Symmetry=e
              MO Center=  3.5D-15,  2.9D-15, -7.0D-01, r^2= 1.1D+00
   Bfn.  Coefficient  Atom+Function         Bfn.  Coefficient  Atom+Function  
  ----- ------------  ---------------      ----- ------------  ---------------
    64      0.275367  2 O  px                65      0.264372  2 O  py         
    60      0.245080  2 O  px                61      0.235293  2 O  py         
    16      0.208443  1 Si px                17      0.200119  1 Si py         
    56      0.189764  2 O  px                57      0.182187  2 O  py         

 Vector   11  Occ=2.000000D+00  E=-3.375533D-01  Symmetry=a1
              MO Center= -3.6D-15, -1.1D-15,  1.4D-01, r^2= 2.4D+00
   Bfn.  Coefficient  Atom+Function         Bfn.  Coefficient  Atom+Function  
  ----- ------------  ---------------      ----- ------------  ---------------
     6      0.625845  1 Si s                 18      0.404178  1 Si pz         
    66     -0.287818  2 O  pz                62     -0.282372  2 O  pz         
     5      0.239006  1 Si s                 58     -0.220952  2 O  pz         
    67      0.180388  2 O  s                 63      0.170308  2 O  s          
    21      0.154172  1 Si pz         

 Vector   12  Occ=0.000000D+00  E=-1.674452D-01  Symmetry=e
              MO Center=  1.5D-15,  1.9D-16,  5.8D-01, r^2= 2.7D+00
   Bfn.  Coefficient  Atom+Function         Bfn.  Coefficient  Atom+Function  
  ----- ------------  ---------------      ----- ------------  ---------------
    17      0.719120  1 Si py                16     -0.554000  1 Si px         
    20      0.239079  1 Si py                65     -0.191395  2 O  py         
    19     -0.184183  1 Si px                42      0.164754  1 Si dyz        
    61     -0.154190  2 O  py         

 Vector   13  Occ=0.000000D+00  E=-1.674452D-01  Symmetry=e
              MO Center=  4.3D-15,  3.5D-15,  5.8D-01, r^2= 2.7D+00
   Bfn.  Coefficient  Atom+Function         Bfn.  Coefficient  Atom+Function  
  ----- ------------  ---------------      ----- ------------  ---------------
    16      0.719120  1 Si px                17      0.554000  1 Si py         
    19      0.239079  1 Si px                64     -0.191395  2 O  px         
    20      0.184183  1 Si py                40      0.164754  1 Si dxz        
    60     -0.154190  2 O  px         

 Vector   14  Occ=0.000000D+00  E=-6.056036D-02  Symmetry=a1
              MO Center= -2.0D-15, -7.4D-16,  7.3D-01, r^2= 4.5D+00
   Bfn.  Coefficient  Atom+Function         Bfn.  Coefficient  Atom+Function  
  ----- ------------  ---------------      ----- ------------  ---------------
    18      0.796366  1 Si pz                 6     -0.579372  1 Si s          
    43      0.465628  1 Si dzz               63      0.405061  2 O  s          
    25      0.358926  1 Si pz                66      0.263296  2 O  pz         
    22     -0.250389  1 Si s                 21      0.217417  1 Si pz         
    53     -0.157515  1 Si fzzz              59      0.155898  2 O  s          

 Vector   15  Occ=0.000000D+00  E= 4.776030D-03  Symmetry=a1
              MO Center= -5.2D-14,  3.7D-14,  1.8D+00, r^2= 1.0D+01
   Bfn.  Coefficient  Atom+Function         Bfn.  Coefficient  Atom+Function  
  ----- ------------  ---------------      ----- ------------  ---------------
    22      1.891637  1 Si s                 67     -1.685664  2 O  s          
    21     -1.150461  1 Si pz                 6      0.731725  1 Si s          
    25      0.703685  1 Si pz                70     -0.488323  2 O  pz         
     5     -0.480891  1 Si s                 18     -0.258751  1 Si pz         
    38     -0.225412  1 Si dxx               41     -0.225412  1 Si dyy        

 Vector   16  Occ=0.000000D+00  E= 4.233206D-02  Symmetry=e
              MO Center=  2.7D-15, -4.5D-14,  5.7D-01, r^2= 1.5D+01
   Bfn.  Coefficient  Atom+Function         Bfn.  Coefficient  Atom+Function  
  ----- ------------  ---------------      ----- ------------  ---------------
    24      1.776276  1 Si py                20     -1.195533  1 Si py         
    17      0.795977  1 Si py                45     -0.395050  1 Si fxxy       
    50     -0.395053  1 Si fyyy              52     -0.391608  1 Si fyzz       
    14     -0.379342  1 Si py         

 Vector   17  Occ=0.000000D+00  E= 4.233206D-02  Symmetry=e
              MO Center=  5.3D-14,  4.7D-15,  5.7D-01, r^2= 1.5D+01
   Bfn.  Coefficient  Atom+Function         Bfn.  Coefficient  Atom+Function  
  ----- ------------  ---------------      ----- ------------  ---------------
    23      1.776276  1 Si px                19     -1.195533  1 Si px         
    16      0.795977  1 Si px                44     -0.395053  1 Si fxxx       
    47     -0.395050  1 Si fxyy              49     -0.391608  1 Si fxzz       
    13     -0.379342  1 Si px         

 Vector   18  Occ=0.000000D+00  E= 6.530991D-02  Symmetry=b2
              MO Center= -6.1D-15, -8.4D-15,  5.3D-01, r^2= 3.8D+00
   Bfn.  Coefficient  Atom+Function         Bfn.  Coefficient  Atom+Function  
  ----- ------------  ---------------      ----- ------------  ---------------
    39      1.543998  1 Si dxy               33      0.299607  1 Si dxy        

 Vector   19  Occ=0.000000D+00  E= 6.531272D-02  Symmetry=b1
              MO Center= -9.6D-16,  3.0D-15,  5.3D-01, r^2= 3.8D+00
   Bfn.  Coefficient  Atom+Function         Bfn.  Coefficient  Atom+Function  
  ----- ------------  ---------------      ----- ------------  ---------------
    38      0.771995  1 Si dxx               41     -0.771995  1 Si dyy        

 Vector   20  Occ=0.000000D+00  E= 6.891475D-02  Symmetry=a1
              MO Center=  8.8D-16,  6.1D-15, -3.9D-01, r^2= 1.5D+01
   Bfn.  Coefficient  Atom+Function         Bfn.  Coefficient  Atom+Function  
  ----- ------------  ---------------      ----- ------------  ---------------
    21      2.394175  1 Si pz                25     -2.111979  1 Si pz         
    67      1.460034  2 O  s                  6     -1.312798  1 Si s          
    22      0.739453  1 Si s                 70      0.733992  2 O  pz         
    18     -0.502135  1 Si pz                38     -0.353191  1 Si dxx        
    41     -0.353191  1 Si dyy               53      0.300014  1 Si fzzz       

 Vector   21  Occ=0.000000D+00  E= 1.400188D-01  Symmetry=e
              MO Center=  1.4D-15,  3.7D-15,  4.7D-01, r^2= 4.6D+00
   Bfn.  Coefficient  Atom+Function         Bfn.  Coefficient  Atom+Function  
  ----- ------------  ---------------      ----- ------------  ---------------
    42      1.581489  1 Si dyz               17     -0.765825  1 Si py         
    65      0.516102  2 O  py                20      0.449419  1 Si py         
    40      0.360781  1 Si dxz               69     -0.314255  2 O  py         
    52      0.219260  1 Si fyzz              36      0.208199  1 Si dyz        
    24     -0.185034  1 Si py                61      0.178264  2 O  py         

 Vector   22  Occ=0.000000D+00  E= 1.400188D-01  Symmetry=e
              MO Center= -2.2D-16,  5.5D-16,  4.7D-01, r^2= 4.6D+00
   Bfn.  Coefficient  Atom+Function         Bfn.  Coefficient  Atom+Function  
  ----- ------------  ---------------      ----- ------------  ---------------
    40      1.581489  1 Si dxz               16     -0.765825  1 Si px         
    64      0.516102  2 O  px                19      0.449419  1 Si px         
    42     -0.360781  1 Si dyz               68     -0.314255  2 O  px         
    49      0.219260  1 Si fxzz              34      0.208199  1 Si dxz        
    23     -0.185034  1 Si px                60      0.178264  2 O  px         

 Vector   23  Occ=0.000000D+00  E= 1.767768D-01  Symmetry=a1
              MO Center= -4.0D-15,  3.6D-15, -2.8D-01, r^2= 1.1D+01
   Bfn.  Coefficient  Atom+Function         Bfn.  Coefficient  Atom+Function  
  ----- ------------  ---------------      ----- ------------  ---------------
     6      6.274094  1 Si s                 67     -5.978257  2 O  s          
    21     -4.282576  1 Si pz                70     -3.346770  2 O  pz         
    18     -2.528882  1 Si pz                25      1.734733  1 Si pz         
    43      1.207869  1 Si dzz               22      0.848612  1 Si s          
    63     -0.740993  2 O  s                 46      0.733039  1 Si fxxz       

 Vector   24  Occ=0.000000D+00  E= 1.912198D-01  Symmetry=a1
              MO Center=  1.2D-15,  2.2D-15,  8.9D-01, r^2= 1.0D+01
   Bfn.  Coefficient  Atom+Function         Bfn.  Coefficient  Atom+Function  
  ----- ------------  ---------------      ----- ------------  ---------------
    67      8.875695  2 O  s                 21      5.376602  1 Si pz         
     6     -4.740255  1 Si s                 22     -2.561257  1 Si s          
    70      1.904986  2 O  pz                18     -1.192818  1 Si pz         
    25     -0.898391  1 Si pz                43     -0.756669  1 Si dzz        
    53      0.625117  1 Si fzzz              38      0.485178  1 Si dxx        

 Vector   25  Occ=0.000000D+00  E= 2.196565D-01  Symmetry=e
              MO Center= -5.0D-16, -5.6D-16, -6.1D-01, r^2= 8.8D+00
   Bfn.  Coefficient  Atom+Function         Bfn.  Coefficient  Atom+Function  
  ----- ------------  ---------------      ----- ------------  ---------------
    16      1.918633  1 Si px                17      1.789905  1 Si py         
    68     -1.310103  2 O  px                69     -1.222204  2 O  py         
    40     -1.032336  1 Si dxz               42     -0.963073  1 Si dyz        
    23      0.946613  1 Si px                24      0.883101  1 Si py         
    19     -0.768983  1 Si px                20     -0.717390  1 Si py         

 Vector   26  Occ=0.000000D+00  E= 2.196565D-01  Symmetry=e
              MO Center=  2.3D-15, -2.8D-15, -6.1D-01, r^2= 8.8D+00
   Bfn.  Coefficient  Atom+Function         Bfn.  Coefficient  Atom+Function  
  ----- ------------  ---------------      ----- ------------  ---------------
    17     -1.918633  1 Si py                16      1.789905  1 Si px         
    69      1.310103  2 O  py                68     -1.222204  2 O  px         
    42      1.032336  1 Si dyz               40     -0.963073  1 Si dxz        
    24     -0.946613  1 Si py                23      0.883101  1 Si px         
    20      0.768983  1 Si py                19     -0.717390  1 Si px         

 Vector   27  Occ=0.000000D+00  E= 2.368179D-01  Symmetry=e
              MO Center= -9.1D-17, -8.1D-15,  1.8D-02, r^2= 1.0D+01
   Bfn.  Coefficient  Atom+Function         Bfn.  Coefficient  Atom+Function  
  ----- ------------  ---------------      ----- ------------  ---------------
    17      4.402014  1 Si py                20     -4.140059  1 Si py         
    24      1.660875  1 Si py                45     -1.416747  1 Si fxxy       
    50     -1.416742  1 Si fyyy              69      1.414566  2 O  py         
    52     -1.395776  1 Si fyzz              42      1.343527  1 Si dyz        
    14     -0.841083  1 Si py         

 Vector   28  Occ=0.000000D+00  E= 2.368179D-01  Symmetry=e
              MO Center=  1.3D-14,  2.8D-16,  1.8D-02, r^2= 1.0D+01
   Bfn.  Coefficient  Atom+Function         Bfn.  Coefficient  Atom+Function  
  ----- ------------  ---------------      ----- ------------  ---------------
    16      4.402014  1 Si px                19     -4.140059  1 Si px         
    23      1.660875  1 Si px                44     -1.416742  1 Si fxxx       
    47     -1.416747  1 Si fxyy              68      1.414566  2 O  px         
    49     -1.395776  1 Si fxzz              40      1.343527  1 Si dxz        
    13     -0.841083  1 Si px         

 Vector   29  Occ=0.000000D+00  E= 2.395269D-01  Symmetry=a1
              MO Center= -9.0D-15, -3.3D-15, -6.3D-01, r^2= 6.7D+00
   Bfn.  Coefficient  Atom+Function         Bfn.  Coefficient  Atom+Function  
  ----- ------------  ---------------      ----- ------------  ---------------
    18      2.614996  1 Si pz                21     -2.124653  1 Si pz         
    70      1.584183  2 O  pz                43      1.320572  1 Si dzz        
    67      1.301114  2 O  s                  6     -1.251313  1 Si s          
    46     -0.966717  1 Si fxxz              51     -0.966717  1 Si fyyz       
    53     -0.928236  1 Si fzzz              25      0.816206  1 Si pz         

 Vector   30  Occ=0.000000D+00  E= 2.957663D-01  Symmetry=a1
              MO Center= -6.1D-15,  6.2D-15,  3.2D-01, r^2= 9.6D+00
   Bfn.  Coefficient  Atom+Function         Bfn.  Coefficient  Atom+Function  
  ----- ------------  ---------------      ----- ------------  ---------------
    67      9.014007  2 O  s                 21      6.409405  1 Si pz         
    70      4.110613  2 O  pz                43     -2.736183  1 Si dzz        
     6     -2.674465  1 Si s                 38     -2.340200  1 Si dxx        
    41     -2.340200  1 Si dyy               25     -2.065319  1 Si pz         
    18     -1.635151  1 Si pz                 5     -1.010922  1 Si s          

 Vector   31  Occ=0.000000D+00  E= 4.452263D-01  Symmetry=a1
              MO Center= -1.7D-15,  2.4D-15,  6.3D-01, r^2= 8.4D+00
   Bfn.  Coefficient  Atom+Function         Bfn.  Coefficient  Atom+Function  
  ----- ------------  ---------------      ----- ------------  ---------------
    67     24.732411  2 O  s                  6    -16.146851  1 Si s          
    21     11.182457  1 Si pz                18      9.624283  1 Si pz         
    70      7.995372  2 O  pz                43     -6.905084  1 Si dzz        
    46     -2.529461  1 Si fxxz              51     -2.529461  1 Si fyyz       
    53     -2.291764  1 Si fzzz              15     -1.695823  1 Si pz         

 Vector   32  Occ=0.000000D+00  E= 6.278447D-01  Symmetry=b2
              MO Center=  3.5D-17,  3.5D-15, -2.6D-01, r^2= 2.6D+00
   Bfn.  Coefficient  Atom+Function         Bfn.  Coefficient  Atom+Function  
  ----- ------------  ---------------      ----- ------------  ---------------
    48      1.325481  1 Si fxyz              84     -1.282714  2 O  dxy        
    39      0.883598  1 Si dxy               33     -0.659634  1 Si dxy        


 center of mass
 --------------
 x =   0.00000000 y =   0.00000000 z =  -0.00034136

 moments of inertia (a.u.)
 ------------------
          86.448457615407           0.000000000000           0.000000000000
           0.000000000000          86.448457615407           0.000000000000
           0.000000000000           0.000000000000           0.000000000000

     Multipole analysis of the density
     ---------------------------------

     L   x y z        total         alpha         beta         nuclear
     -   - - -        -----         -----         ----         -------
     0   0 0 0     -0.000000    -11.000000    -11.000000     22.000000

     1   1 0 0      0.000000      0.000000      0.000000      0.000000
     1   0 1 0      0.000000      0.000000      0.000000      0.000000
     1   0 0 1      1.281795      0.640898      0.640898      0.000000

     2   2 0 0    -12.549027     -6.274513     -6.274513      0.000000
     2   1 1 0     -0.000000     -0.000000     -0.000000      0.000000
     2   1 0 1      0.000000      0.000000      0.000000      0.000000
     2   0 2 0    -12.549027     -6.274513     -6.274513      0.000000
     2   0 1 1      0.000000      0.000000      0.000000      0.000000
     2   0 0 2    -15.124759    -29.185351    -29.185351     43.245943


------------------------------------------------------------
EAF file 0: "./SiO.aoints.0" size=4194304 bytes
------------------------------------------------------------
               write      read    awrite     aread      wait
               -----      ----    ------     -----      ----
     calls:        8        10         0        70        70
   data(b): 4.19e+06  5.24e+06  0.00e+00  3.67e+07
   time(s): 0.00e+00  0.00e+00  0.00e+00  0.00e+00  0.00e+00
rate(mb/s): 0.00e+00  0.00e+00
------------------------------------------------------------


 Parallel integral file used      69 records with       0 large values


 Task  times  cpu:        3.8s     wall:        4.0s


                                NWChem Input Module
                                -------------------


 Summary of allocated global arrays
-----------------------------------
  No active global arrays



                         GA Statistics for process    0
                         ------------------------------

       create   destroy   get      put      acc     scatter   gather  read&inc
calls:  303      303     2.23e+04 9304     1982        0        0      406     
number of processes/call 1.00e+00 1.00e+00 1.00e+00 0.00e+00 0.00e+00
bytes total:             7.78e+07 2.48e+07 4.84e+07 0.00e+00 0.00e+00 3.25e+03
bytes remote:            0.00e+00 0.00e+00 0.00e+00 0.00e+00 0.00e+00 0.00e+00
Max memory consumed for GA by this process: 2996448 bytes

MA_summarize_allocated_blocks: starting scan ...
MA_summarize_allocated_blocks: scan completed: 0 heap blocks, 0 stack blocks
MA usage statistics:

	allocation statistics:
					      heap	     stack
					      ----	     -----
	current number of blocks	         0	         0
	maximum number of blocks	        24	        55
	current total bytes		         0	         0
	maximum total bytes		  34965720	  23659560
	maximum total K-bytes		     34966	     23660
	maximum total M-bytes		        35	        24


                                     CITATION
                                     --------
                Please cite the following reference when publishing
                           results obtained with NWChem:

                 M. Valiev, E.J. Bylaska, N. Govind, K. Kowalski,
              T.P. Straatsma, H.J.J. van Dam, D. Wang, J. Nieplocha,
                        E. Apra, T.L. Windus, W.A. de Jong
                 "NWChem: a comprehensive and scalable open-source
                  solution for large scale molecular simulations"
                      Comput. Phys. Commun. 181, 1477 (2010)
                           doi:10.1016/j.cpc.2010.04.018

                                      AUTHORS
                                      -------
          E. Apra, E. J. Bylaska, W. A. de Jong, N. Govind, K. Kowalski,
       T. P. Straatsma, M. Valiev, H. J. J. van Dam, D. Wang, T. L. Windus,
        J. Hammond, J. Autschbach, K. Bhaskaran-Nair, J. Brabec, K. Lopata,
       S. A. Fischer, S. Krishnamoorthy, W. Ma, M. Klemm, O. Villa, Y. Chen,
    V. Anisimov, F. Aquino, S. Hirata, M. T. Hackler, T. Risthaus, M. Malagoli,
       A. Marenich, A. Otero-de-la-Roza, J. Mullin, P. Nichols, R. Peverati,
     J. Pittner, Y. Zhao, P.-D. Fan, A. Fonari, M. Williamson, R. J. Harrison,
       J. R. Rehr, M. Dupuis, D. Silverstein, D. M. A. Smith, J. Nieplocha,
        V. Tipparaju, M. Krishnan, B. E. Van Kuiken, A. Vazquez-Mayagoitia,
        L. Jensen, M. Swart, Q. Wu, T. Van Voorhis, A. A. Auer, M. Nooijen,
      L. D. Crosby, E. Brown, G. Cisneros, G. I. Fann, H. Fruchtl, J. Garza,
        K. Hirao, R. A. Kendall, J. A. Nichols, K. Tsemekhman, K. Wolinski,
     J. Anchell, D. E. Bernholdt, P. Borowski, T. Clark, D. Clerc, H. Dachsel,
   M. J. O. Deegan, K. Dyall, D. Elwood, E. Glendening, M. Gutowski, A. C. Hess,
         J. Jaffe, B. G. Johnson, J. Ju, R. Kobayashi, R. Kutteh, Z. Lin,
   R. Littlefield, X. Long, B. Meng, T. Nakajima, S. Niu, L. Pollack, M. Rosing,
   K. Glaesemann, G. Sandrone, M. Stave, H. Taylor, G. Thomas, J. H. van Lenthe,
                               A. T. Wong, Z. Zhang.

 Total times  cpu:        3.8s     wall:        4.2s
