nqpoint: 400    
npath: 4      
segment_nqpoint:
- 100
- 100
- 100
- 100
reciprocal_lattice:
- [  -0.18412815,   0.18412815,   0.18412815 ] # a*
- [   0.18412815,  -0.18412815,   0.18412815 ] # b*
- [   0.18412815,   0.18412815,  -0.18412815 ] # c*
natom: 2      
lattice:
- [     0.000000000000000,     2.715500000000000,     2.715500000000000 ] # a
- [     2.715500000000000,     0.000000000000000,     2.715500000000000 ] # b
- [     2.715500000000000,     2.715500000000000,     0.000000000000000 ] # c
points:
- symbol: Si # 1
  coordinates: [  0.000000000000000,  0.000000000000000,  0.000000000000000 ]
  mass: 28.085500
- symbol: Si # 2
  coordinates: [  0.250000000000000,  0.250000000000000,  0.250000000000000 ]
  mass: 28.085500
supercell_matrix:
- [   -4,    4,    4 ]
- [    4,   -4,    4 ]
- [    4,    4,   -4 ]

phonon:
- q-position: [    0.0000000,    0.0000000,    0.0000000 ]
  distance:    0.0000000
  label: '$\Gamma$'
  band:
  - # 1
    frequency:   -0.0072257889
    eigenvector:
    - # atom 1
      - [  0.70710678118655,  0.00000000000000 ]
      - [  0.00000000000000,  0.00000000000000 ]
      - [ -0.00000000000000,  0.00000000000000 ]
    - # atom 2
      - [  0.70710678118655,  0.00000000000000 ]
      - [ -0.00000000000000,  0.00000000000000 ]
      - [  0.00000000000000,  0.00000000000000 ]
  - # 2
    frequency:   -0.0072257889
    eigenvector:
    - # atom 1
      - [  0.00000000000000,  0.00000000000000 ]
      - [ -0.64449147978860,  0.00000000000000 ]
      - [ -0.29091361686917,  0.00000000000000 ]
    - # atom 2
      - [  0.00000000000000,  0.00000000000000 ]
      - [ -0.64449147978860,  0.00000000000000 ]
      - [ -0.29091361686917,  0.00000000000000 ]
  - # 3
    frequency:   -0.0072257889
    eigenvector:
    - # atom 1
      - [ -0.00000000000000,  0.00000000000000 ]
      - [  0.29091361686917,  0.00000000000000 ]
      - [ -0.64449147978860,  0.00000000000000 ]
    - # atom 2
      - [  0.00000000000000,  0.00000000000000 ]
      - [  0.29091361686917,  0.00000000000000 ]
      - [ -0.64449147978860,  0.00000000000000 ]
  - # 4
    frequency:   15.3709413472
    eigenvector:
    - # atom 1
      - [  0.00000000000000,  0.00000000000000 ]
      - [ -0.70155643364257,  0.00000000000000 ]
      - [  0.08842268043165,  0.00000000000000 ]
    - # atom 2
      - [  0.00000000000000,  0.00000000000000 ]
      - [  0.70155643364257,  0.00000000000000 ]
      - [ -0.08842268043165,  0.00000000000000 ]
  - # 5
    frequency:   15.3709413472
    eigenvector:
    - # atom 1
      - [ -0.70710678118655,  0.00000000000000 ]
      - [  0.00000000000000,  0.00000000000000 ]
      - [ -0.00000000000000,  0.00000000000000 ]
    - # atom 2
      - [  0.70710678118655,  0.00000000000000 ]
      - [ -0.00000000000000,  0.00000000000000 ]
      - [  0.00000000000000,  0.00000000000000 ]
  - # 6
    frequency:   15.3709413472
    eigenvector:
    - # atom 1
      - [  0.00000000000000,  0.00000000000000 ]
      - [ -0.08842268043165,  0.00000000000000 ]
      - [ -0.70155643364257,  0.00000000000000 ]
    - # atom 2
      - [ -0.00000000000000,  0.00000000000000 ]
      - [  0.08842268043165,  0.00000000000000 ]
      - [  0.70155643364257,  0.00000000000000 ]

- q-position: [    0.0050505,    0.0050505,    0.0000000 ]
  distance:    0.0018599
  band:
  - # 1
    frequency:    0.0913056074
    eigenvector:
    - # atom 1
      - [  0.66675453785502,  0.00000000000000 ]
      - [ -0.23545129692519,  0.00103586967186 ]
      - [  0.00000000000039, -0.00000000000000 ]
    - # atom 2
      - [  0.66673430997377,  0.00223592797403 ]
      - [ -0.23544068010828, -0.00529591163541 ]
      - [  0.00000000000039, -0.00000000000000 ]
  - # 2
    frequency:    0.0913056074
    eigenvector:
    - # atom 1
      - [ -0.23545357557220,  0.00000000000000 ]
      - [ -0.66674808521048,  0.00293336298955 ]
      - [  0.00000000000075,  0.00000000000000 ]
    - # atom 2
      - [ -0.23541510241028,  0.00633167332193 ]
      - [ -0.66671802063900,  0.00516918033311 ]
      - [  0.00000000000075,  0.00000000000000 ]
  - # 3
    frequency:    0.1548020045
    eigenvector:
    - # atom 1
      - [  0.00000000000012, -0.00000000000000 ]
      - [ -0.00000000000084,  0.00000000000001 ]
      - [ -0.70710542833863,  0.00138318980484 ]
    - # atom 2
      - [  0.00000000000012,  0.00000000000001 ]
      - [ -0.00000000000084,  0.00000000000000 ]
      - [ -0.70710542833863,  0.00138318980484 ]
  - # 4
    frequency:   15.3702193709
    eigenvector:
    - # atom 1
      - [ -0.29254778099965,  0.00000000000000 ]
      - [ -0.64374836746390,  0.00195837170616 ]
      - [  0.00000000000079,  0.00000000000002 ]
    - # atom 2
      - [  0.29251599224161, -0.00611325994738 ]
      - [  0.64371933998075, -0.00473641958335 ]
      - [ -0.00000000000079, -0.00000000000002 ]
  - # 5
    frequency:   15.3702193709
    eigenvector:
    - # atom 1
      - [ -0.64375134627601,  0.00000000000000 ]
      - [  0.29254642730171, -0.00088996675553 ]
      - [ -0.00000000000022, -0.00000000000001 ]
    - # atom 2
      - [  0.64373077009453,  0.00277812332763 ]
      - [ -0.29253323598828, -0.00522336160950 ]
      - [  0.00000000000021,  0.00000000000001 ]
  - # 6
    frequency:   15.3707081796
    eigenvector:
    - # atom 1
      - [ -0.00000000000013,  0.00000000000000 ]
      - [ -0.00000000000081,  0.00000000000002 ]
      - [ -0.70710674811185, -0.00021627456203 ]
    - # atom 2
      - [  0.00000000000013, -0.00000000000001 ]
      - [  0.00000000000081, -0.00000000000002 ]
      - [  0.70710674811185,  0.00021627456203 ]

- q-position: [    0.0101010,    0.0101010,    0.0000000 ]
  distance:    0.0037198
  band:
  - # 1
    frequency:    0.1830054409
    eigenvector:
    - # atom 1
      - [  0.69233283464698,  0.00000000000000 ]
      - [  0.14378328360016,  0.00127020739957 ]
      - [  0.00000000000006,  0.00000000000000 ]
    - # atom 2
      - [  0.69223198118892, -0.00273200385431 ]
      - [  0.14375732606648, -0.01188493064436 ]
      - [  0.00000000000006,  0.00000000000000 ]
  - # 2
    frequency:    0.1830054409
    eigenvector:
    - # atom 1
      - [  0.14378889411106,  0.00000000000000 ]
      - [ -0.69230582045412, -0.00611595419085 ]
      - [ -0.00000000000011, -0.00000000000000 ]
    - # atom 2
      - [  0.14364672726821,  0.01315439543793 ]
      - [ -0.69218083685935, -0.00884696052204 ]
      - [ -0.00000000000011, -0.00000000000000 ]
  - # 3
    frequency:    0.3098328072
    eigenvector:
    - # atom 1
      - [  0.00000000000003,  0.00000000000000 ]
      - [  0.00000000000012, -0.00000000000000 ]
      - [ -0.70703910027459,  0.00978318367939 ]
    - # atom 2
      - [  0.00000000000003, -0.00000000000000 ]
      - [  0.00000000000012, -0.00000000000000 ]
      - [ -0.70703910027459,  0.00978318367939 ]
  - # 4
    frequency:   15.3680547615
    eigenvector:
    - # atom 1
      - [ -0.56448915505468,  0.00000000000000 ]
      - [ -0.42583216970639,  0.00435397161147 ]
      - [  0.00000000000005,  0.00000000000000 ]
    - # atom 2
      - [  0.56430451736375, -0.00809117096088 ]
      - [  0.42575529322527, -0.01507895639655 ]
      - [ -0.00000000000005, -0.00000000000000 ]
  - # 5
    frequency:   15.3680547615
    eigenvector:
    - # atom 1
      - [  0.42585442797469,  0.00000000000000 ]
      - [ -0.56445965072119,  0.00577138476118 ]
      - [  0.00000000000001,  0.00000000000000 ]
    - # atom 2
      - [ -0.42588720866127, -0.01072521021053 ]
      - [  0.56435774749553,  0.00232125104725 ]
      - [ -0.00000000000001, -0.00000000000000 ]
  - # 6
    frequency:   15.3700085324
    eigenvector:
    - # atom 1
      - [  0.00000000000003, -0.00000000000000 ]
      - [  0.00000000000004, -0.00000000000000 ]
      - [  0.70707756844691, -0.00642745666648 ]
    - # atom 2
      - [ -0.00000000000003,  0.00000000000000 ]
      - [ -0.00000000000004,  0.00000000000000 ]
      - [ -0.70707756844691,  0.00642745666648 ]

- q-position: [    0.0151515,    0.0151515,    0.0000000 ]
  distance:    0.0055796
  band:
  - # 1
    frequency:    0.2745416171
    eigenvector:
    - # atom 1
      - [ -0.70710678118655,  0.00000000000000 ]
      - [  0.00000000000000,  0.00000000000000 ]
      - [  0.00000000000000, -0.00000000000000 ]
    - # atom 2
      - [ -0.70681911310863, -0.00000000000000 ]
      - [ -0.00000000000000,  0.02016782944037 ]
      - [ -0.00000000000000,  0.00000000000000 ]
  - # 2
    frequency:    0.2745416171
    eigenvector:
    - # atom 1
      - [  0.00000000000000,  0.00000000000000 ]
      - [ -0.70704661648544, -0.00922399677416 ]
      - [  0.00000000000003,  0.00000000000000 ]
    - # atom 2
      - [ -0.00026308331167,  0.02016611344575 ]
      - [ -0.70675897288397, -0.00922024422999 ]
      - [  0.00000000000003,  0.00000000000000 ]
  - # 3
    frequency:    0.4647592916
    eigenvector:
    - # atom 1
      - [  0.00000000000000,  0.00000000000000 ]
      - [  0.00000000000003, -0.00000000000001 ]
      - [  0.70653992008553, -0.02830797282622 ]
    - # atom 2
      - [ -0.00000000000000, -0.00000000000000 ]
      - [  0.00000000000003, -0.00000000000001 ]
      - [  0.70653992008553, -0.02830797282622 ]
  - # 4
    frequency:   15.3644514760
    eigenvector:
    - # atom 1
      - [ -0.70710678118655,  0.00000000000000 ]
      - [  0.00000000000000, -0.00000000000000 ]
      - [  0.00000000000000,  0.00000000000000 ]
    - # atom 2
      - [  0.70681911310863,  0.00000000000000 ]
      - [  0.00000000000000, -0.02016782944037 ]
      - [  0.00000000000000, -0.00000000000000 ]
  - # 5
    frequency:   15.3644514760
    eigenvector:
    - # atom 1
      - [  0.00000000000000,  0.00000000000000 ]
      - [  0.70696991784256, -0.01391169528430 ]
      - [  0.00000000000000, -0.00000000000001 ]
    - # atom 2
      - [  0.00039678405749,  0.02016392587636 ]
      - [ -0.70668230544394,  0.01390603567143 ]
      - [ -0.00000000000000,  0.00000000000001 ]
  - # 6
    frequency:   15.3688419726
    eigenvector:
    - # atom 1
      - [  0.00000000000000,  0.00000000000000 ]
      - [  0.00000000000000,  0.00000000000001 ]
      - [ -0.70647938130149,  0.02978059428320 ]
    - # atom 2
      - [ -0.00000000000000,  0.00000000000000 ]
      - [ -0.00000000000000, -0.00000000000001 ]
      - [  0.70647938130149, -0.02978059428320 ]

- q-position: [    0.0202020,    0.0202020,    0.0000000 ]
  distance:    0.0074395
  band:
  - # 1
    frequency:    0.3659514155
    eigenvector:
    - # atom 1
      - [ -0.70709192511717,  0.00000000000000 ]
      - [  0.00456821725774,  0.00037526681580 ]
      - [ -0.00000000000001,  0.00000000000000 ]
    - # atom 2
      - [ -0.70656513780254, -0.00017389733683 ]
      - [  0.00456490620168,  0.02729170997138 ]
      - [ -0.00000000000001,  0.00000000000000 ]
  - # 2
    frequency:    0.3659514155
    eigenvector:
    - # atom 1
      - [ -0.00458360492374,  0.00000000000000 ]
      - [ -0.70471813973266, -0.05789070821511 ]
      - [  0.00000000000008, -0.00000000000000 ]
    - # atom 2
      - [ -0.00678399576456,  0.02682635277592 ]
      - [ -0.70420735814460, -0.05767426577955 ]
      - [  0.00000000000008, -0.00000000000000 ]
  - # 3
    frequency:    0.6195996224
    eigenvector:
    - # atom 1
      - [ -0.00000000000001,  0.00000000000000 ]
      - [  0.00000000000008,  0.00000000000000 ]
      - [  0.70285204557022, -0.07745322483771 ]
    - # atom 2
      - [ -0.00000000000001, -0.00000000000000 ]
      - [  0.00000000000008,  0.00000000000000 ]
      - [  0.70285204557022, -0.07745322483771 ]
  - # 4
    frequency:   15.3594161046
    eigenvector:
    - # atom 1
      - [  0.70710678118655,  0.00000000000000 ]
      - [  0.00000000000000, -0.00000000000000 ]
      - [  0.00000000000000, -0.00000000000000 ]
    - # atom 2
      - [ -0.70659426830479,  0.00000000000000 ]
      - [ -0.00000000000000,  0.02691728067275 ]
      - [ -0.00000000000000,  0.00000000000000 ]
  - # 5
    frequency:   15.3594161046
    eigenvector:
    - # atom 1
      - [  0.00000000000000,  0.00000000000000 ]
      - [ -0.70356751449595,  0.07065941229584 ]
      - [  0.00000000000024, -0.00000000000000 ]
    - # atom 2
      - [ -0.00268977654230, -0.02678255217428 ]
      - [  0.70305756688413, -0.07060819816527 ]
      - [ -0.00000000000024,  0.00000000000000 ]
  - # 6
    frequency:   15.3672077787
    eigenvector:
    - # atom 1
      - [ -0.00000000000000,  0.00000000000000 ]
      - [  0.00000000000024, -0.00000000000004 ]
      - [  0.70327192782856, -0.07354315419062 ]
    - # atom 2
      - [  0.00000000000000,  0.00000000000001 ]
      - [ -0.00000000000024,  0.00000000000004 ]
      - [ -0.70327192782856,  0.07354315419062 ]

- q-position: [    0.0252525,    0.0252525,    0.0000000 ]
  distance:    0.0092994
  band:
  - # 1
    frequency:    0.4572146467
    eigenvector:
    - # atom 1
      - [ -0.70710678118655,  0.00000000000000 ]
      - [  0.00000000000000,  0.00000000000000 ]
      - [  0.00000000000000,  0.00000000000000 ]
    - # atom 2
      - [ -0.70630376215315, -0.00000000000000 ]
      - [  0.00000000000000,  0.03368969528365 ]
      - [  0.00000000000000, -0.00000000000000 ]
  - # 2
    frequency:    0.4572146467
    eigenvector:
    - # atom 1
      - [  0.00000000000000,  0.00000000000000 ]
      - [  0.69483798255618,  0.13114944909246 ]
      - [  0.00000000000004,  0.00000000000001 ]
    - # atom 2
      - [  0.00624853995761, -0.03310515543995 ]
      - [  0.69404889646627,  0.13100051047860 ]
      - [  0.00000000000004,  0.00000000000001 ]
  - # 3
    frequency:    0.7743382521
    eigenvector:
    - # atom 1
      - [ -0.00000000000000,  0.00000000000000 ]
      - [  0.00000000000004, -0.00000000000001 ]
      - [ -0.70250611143042,  0.08053051224793 ]
    - # atom 2
      - [ -0.00000000000000, -0.00000000000000 ]
      - [  0.00000000000004, -0.00000000000001 ]
      - [ -0.70250611143042,  0.08053051224793 ]
  - # 4
    frequency:   15.3529578651
    eigenvector:
    - # atom 1
      - [ -0.70710678118655,  0.00000000000000 ]
      - [  0.00000000000000, -0.00000000000000 ]
      - [ -0.00000000000000, -0.00000000000000 ]
    - # atom 2
      - [  0.70630376215315,  0.00000000000000 ]
      - [ -0.00000000000000, -0.03368969528365 ]
      - [ -0.00000000000000,  0.00000000000000 ]
  - # 5
    frequency:   15.3529578651
    eigenvector:
    - # atom 1
      - [  0.00000000000000,  0.00000000000000 ]
      - [ -0.68987881248515, -0.15513614692934 ]
      - [  0.00000000000017,  0.00000000000001 ]
    - # atom 2
      - [  0.00739137235929, -0.03286887863848 ]
      - [  0.68909535822916,  0.15495996805216 ]
      - [ -0.00000000000017, -0.00000000000001 ]
  - # 6
    frequency:   15.3651049426
    eigenvector:
    - # atom 1
      - [  0.00000000000000,  0.00000000000000 ]
      - [ -0.00000000000017, -0.00000000000002 ]
      - [ -0.70364841547654,  0.06984917606779 ]
    - # atom 2
      - [  0.00000000000000, -0.00000000000001 ]
      - [  0.00000000000017,  0.00000000000002 ]
      - [  0.70364841547654, -0.06984917606779 ]

- q-position: [    0.0303030,    0.0303030,    0.0000000 ]
  distance:    0.0111593
  band:
  - # 1
    frequency:    0.5483013775
    eigenvector:
    - # atom 1
      - [  0.70242766644004,  0.00000000000000 ]
      - [  0.08121188537209,  0.00005562290795 ]
      - [  0.00000000000000, -0.00000000000000 ]
    - # atom 2
      - [  0.70127827469199, -0.00465040212544 ]
      - [  0.08107862903233, -0.04016728917094 ]
      - [  0.00000000000000, -0.00000000000000 ]
  - # 2
    frequency:    0.5483013775
    eigenvector:
    - # atom 1
      - [  0.08121190442046,  0.00000000000000 ]
      - [ -0.70242750168464, -0.00048110027354 ]
      - [ -0.00000000000000, -0.00000000000000 ]
    - # atom 2
      - [  0.08105109900629,  0.04022281137584 ]
      - [ -0.70127492509568, -0.00513071407743 ]
      - [ -0.00000000000000, -0.00000000000000 ]
  - # 3
    frequency:    0.9289540661
    eigenvector:
    - # atom 1
      - [  0.00000000000000,  0.00000000000000 ]
      - [  0.00000000000000, -0.00000000000000 ]
      - [ -0.70125231844063,  0.09080300590641 ]
    - # atom 2
      - [  0.00000000000000, -0.00000000000000 ]
      - [  0.00000000000000, -0.00000000000000 ]
      - [ -0.70125231844063,  0.09080300590641 ]
  - # 4
    frequency:   15.3450885928
    eigenvector:
    - # atom 1
      - [  0.68204627181385,  0.00000000000000 ]
      - [  0.18648543983211,  0.00600531726469 ]
      - [  0.00000000000001, -0.00000000000000 ]
    - # atom 2
      - [ -0.68127101768359,  0.01067863751450 ]
      - [ -0.18617944561688,  0.03306026610590 ]
      - [ -0.00000000000001,  0.00000000000000 ]
  - # 5
    frequency:   15.3450885928
    eigenvector:
    - # atom 1
      - [  0.18658210821198,  0.00000000000000 ]
      - [ -0.68169290294735, -0.02195228840906 ]
      - [ -0.00000000000006,  0.00000000000000 ]
    - # atom 2
      - [ -0.18501891069600, -0.03903549474607 ]
      - [  0.68057434867817,  0.03260044104131 ]
      - [  0.00000000000006, -0.00000000000000 ]
  - # 6
    frequency:   15.3625321698
    eigenvector:
    - # atom 1
      - [  0.00000000000000, -0.00000000000000 ]
      - [ -0.00000000000006,  0.00000000000000 ]
      - [  0.70154169709030, -0.08853952362457 ]
    - # atom 2
      - [ -0.00000000000000, -0.00000000000000 ]
      - [  0.00000000000006, -0.00000000000000 ]
      - [ -0.70154169709030,  0.08853952362457 ]

- q-position: [    0.0353535,    0.0353535,    0.0000000 ]
  distance:    0.0130192
  band:
  - # 1
    frequency:    0.6391786797
    eigenvector:
    - # atom 1
      - [ -0.70710678118655,  0.00000000000000 ]
      - [  0.00000000000000,  0.00000000000000 ]
      - [  0.00000000000000,  0.00000000000000 ]
    - # atom 2
      - [ -0.70552125297000, -0.00000000000000 ]
      - [ -0.00000000000000,  0.04732611971889 ]
      - [ -0.00000000000000,  0.00000000000000 ]
  - # 2
    frequency:    0.6391786797
    eigenvector:
    - # atom 1
      - [  0.00000000000000,  0.00000000000000 ]
      - [ -0.66876980378182, -0.22966704062540 ]
      - [ -0.00000000000004,  0.00000000000001 ]
    - # atom 2
      - [ -0.01537144056501,  0.04476025494346 ]
      - [ -0.66727023763073, -0.22915206384535 ]
      - [ -0.00000000000004,  0.00000000000001 ]
  - # 3
    frequency:    1.0834244107
    eigenvector:
    - # atom 1
      - [  0.00000000000000,  0.00000000000000 ]
      - [ -0.00000000000004, -0.00000000000001 ]
      - [  0.69806378508940, -0.11272511675161 ]
    - # atom 2
      - [ -0.00000000000000,  0.00000000000000 ]
      - [ -0.00000000000003, -0.00000000000001 ]
      - [  0.69806378508940, -0.11272511675161 ]
  - # 4
    frequency:   15.3358227289
    eigenvector:
    - # atom 1
      - [ -0.70710678118655,  0.00000000000000 ]
      - [  0.00000000000000, -0.00000000000000 ]
      - [ -0.00000000000000, -0.00000000000000 ]
    - # atom 2
      - [  0.70552125297000,  0.00000000000000 ]
      - [  0.00000000000000, -0.04732611971889 ]
      - [  0.00000000000000, -0.00000000000000 ]
  - # 5
    frequency:   15.3358227289
    eigenvector:
    - # atom 1
      - [  0.00000000000000,  0.00000000000000 ]
      - [  0.70081617949904, -0.09410994927405 ]
      - [ -0.00000000000001,  0.00000000000000 ]
    - # atom 2
      - [  0.00629870741532,  0.04690509452654 ]
      - [ -0.69924475654458,  0.09389892883979 ]
      - [  0.00000000000001, -0.00000000000000 ]
  - # 6
    frequency:   15.3594878819
    eigenvector:
    - # atom 1
      - [  0.00000000000000,  0.00000000000000 ]
      - [ -0.00000000000001,  0.00000000000000 ]
      - [ -0.70316104746066,  0.07459585332995 ]
    - # atom 2
      - [ -0.00000000000000, -0.00000000000000 ]
      - [  0.00000000000001, -0.00000000000000 ]
      - [  0.70316104746066, -0.07459585332995 ]

- q-position: [    0.0404040,    0.0404040,    0.0000000 ]
  distance:    0.0148790
  band:
  - # 1
    frequency:    0.7298122764
    eigenvector:
    - # atom 1
      - [  0.67704527915907,  0.00000000000000 ]
      - [ -0.20345692720015,  0.01466181239462 ]
      - [  0.00000000000000, -0.00000000000000 ]
    - # atom 2
      - [  0.67617719440244,  0.01559544654508 ]
      - [ -0.20285833301293, -0.03727841928401 ]
      - [  0.00000000000000, -0.00000000000000 ]
  - # 2
    frequency:    0.7298122764
    eigenvector:
    - # atom 1
      - [  0.20398453365003,  0.00000000000000 ]
      - [  0.67529410003898, -0.04866403686627 ]
      - [ -0.00000000000001,  0.00000000000000 ]
    - # atom 2
      - [  0.19965417560391, -0.05176286295235 ]
      - [  0.67330730544561, -0.06415675035775 ]
      - [ -0.00000000000001,  0.00000000000000 ]
  - # 3
    frequency:    1.2377261085
    eigenvector:
    - # atom 1
      - [  0.00000000000000,  0.00000000000000 ]
      - [ -0.00000000000001,  0.00000000000000 ]
      - [ -0.69301157480054,  0.14048116312330 ]
    - # atom 2
      - [  0.00000000000000,  0.00000000000000 ]
      - [ -0.00000000000001,  0.00000000000000 ]
      - [ -0.69301157480054,  0.14048116312330 ]
  - # 4
    frequency:   15.3251773055
    eigenvector:
    - # atom 1
      - [  0.69104151584502,  0.00000000000000 ]
      - [  0.14940860469557,  0.01177676617528 ]
      - [  0.00000000000000,  0.00000000000000 ]
    - # atom 2
      - [ -0.68991110701444,  0.01145251695270 ]
      - [ -0.14896902702416,  0.04122782144419 ]
      - [ -0.00000000000000, -0.00000000000000 ]
  - # 5
    frequency:   15.3251773055
    eigenvector:
    - # atom 1
      - [  0.14987202333532,  0.00000000000000 ]
      - [ -0.68890474934143, -0.05430122426060 ]
      - [ -0.00000000000001, -0.00000000000000 ]
    - # atom 2
      - [ -0.14526876713180, -0.05280615086867 ]
      - [  0.68687791061848,  0.06562950274709 ]
      - [  0.00000000000001,  0.00000000000000 ]
  - # 6
    frequency:   15.3559702182
    eigenvector:
    - # atom 1
      - [  0.00000000000000, -0.00000000000000 ]
      - [ -0.00000000000001,  0.00000000000000 ]
      - [  0.69430717641872, -0.13393111951096 ]
    - # atom 2
      - [ -0.00000000000000, -0.00000000000000 ]
      - [  0.00000000000001, -0.00000000000000 ]
      - [ -0.69430717641872,  0.13393111951096 ]

- q-position: [    0.0454545,    0.0454545,    0.0000000 ]
  distance:    0.0167389
  band:
  - # 1
    frequency:    0.8201670591
    eigenvector:
    - # atom 1
      - [  0.70710678118655,  0.00000000000000 ]
      - [  0.00000000000000, -0.00000000000000 ]
      - [ -0.00000000000000,  0.00000000000000 ]
    - # atom 2
      - [  0.70446014155067,  0.00000000000000 ]
      - [  0.00000000000000, -0.06112208247766 ]
      - [  0.00000000000000,  0.00000000000000 ]
  - # 2
    frequency:    0.8201670591
    eigenvector:
    - # atom 1
      - [  0.00000000000000,  0.00000000000000 ]
      - [  0.62648866099993, -0.32789016093581 ]
      - [  0.00000000000003,  0.00000000000000 ]
    - # atom 2
      - [ -0.02834271993079, -0.05415347812773 ]
      - [  0.62414376802797, -0.32666289637092 ]
      - [  0.00000000000003,  0.00000000000000 ]
  - # 3
    frequency:    1.3918358059
    eigenvector:
    - # atom 1
      - [ -0.00000000000000,  0.00000000000000 ]
      - [  0.00000000000002, -0.00000000000001 ]
      - [ -0.70681326115588, -0.02037188882247 ]
    - # atom 2
      - [ -0.00000000000000, -0.00000000000000 ]
      - [  0.00000000000002, -0.00000000000001 ]
      - [ -0.70681326115588, -0.02037188882247 ]
  - # 4
    frequency:   15.3131719285
    eigenvector:
    - # atom 1
      - [ -0.70710678118655,  0.00000000000000 ]
      - [  0.00000000000000, -0.00000000000000 ]
      - [ -0.00000000000000,  0.00000000000000 ]
    - # atom 2
      - [  0.70446014155067,  0.00000000000000 ]
      - [  0.00000000000000, -0.06112208247766 ]
      - [  0.00000000000000,  0.00000000000000 ]
  - # 5
    frequency:   15.3131719285
    eigenvector:
    - # atom 1
      - [  0.00000000000000,  0.00000000000000 ]
      - [  0.63106114184198,  0.31900130917772 ]
      - [  0.00000000000004,  0.00000000000001 ]
    - # atom 2
      - [ -0.02757437044703,  0.05454872189938 ]
      - [ -0.62869913446898, -0.31780731481756 ]
      - [ -0.00000000000004, -0.00000000000001 ]
  - # 6
    frequency:   15.3519770384
    eigenvector:
    - # atom 1
      - [  0.00000000000000,  0.00000000000000 ]
      - [  0.00000000000004,  0.00000000000001 ]
      - [ -0.70680383593420, -0.02069631630763 ]
    - # atom 2
      - [ -0.00000000000000,  0.00000000000000 ]
      - [ -0.00000000000004, -0.00000000000001 ]
      - [  0.70680383593420,  0.02069631630763 ]

- q-position: [    0.0505051,    0.0505051,    0.0000000 ]
  distance:    0.0185988
  band:
  - # 1
    frequency:    0.9102072663
    eigenvector:
    - # atom 1
      - [ -0.64411985093643,  0.00000000000000 ]
      - [ -0.29141862199406,  0.01359427764591 ]
      - [ -0.00000000000001,  0.00000000000000 ]
    - # atom 2
      - [ -0.63981715357971,  0.02806333620498 ]
      - [ -0.29006423841274,  0.07555922670485 ]
      - [ -0.00000000000001,  0.00000000000000 ]
  - # 2
    frequency:    0.9102072663
    eigenvector:
    - # atom 1
      - [ -0.29173552685546,  0.00000000000000 ]
      - [  0.64342015997221, -0.03001466494415 ]
      - [  0.00000000000001, -0.00000000000000 ]
    - # atom 2
      - [ -0.29327005413682, -0.06196074961445 ]
      - [  0.64042983047784, -0.00178131634692 ]
      - [  0.00000000000001, -0.00000000000000 ]
  - # 3
    frequency:    1.5457301196
    eigenvector:
    - # atom 1
      - [  0.00000000000000,  0.00000000000000 ]
      - [  0.00000000000002, -0.00000000000000 ]
      - [ -0.69004031439239,  0.15441620547486 ]
    - # atom 2
      - [  0.00000000000000, -0.00000000000000 ]
      - [  0.00000000000002, -0.00000000000000 ]
      - [ -0.69004031439239,  0.15441620547486 ]
  - # 4
    frequency:   15.2998287561
    eigenvector:
    - # atom 1
      - [  0.70710678118655,  0.00000000000000 ]
      - [ -0.00000000000000, -0.00000000000000 ]
      - [  0.00000000000000, -0.00000000000000 ]
    - # atom 2
      - [ -0.70382046472494, -0.00000000000000 ]
      - [  0.00000000000000,  0.06809371068148 ]
      - [ -0.00000000000000,  0.00000000000000 ]
  - # 5
    frequency:   15.2998287561
    eigenvector:
    - # atom 1
      - [  0.00000000000000,  0.00000000000000 ]
      - [  0.70632850945893,  0.03316680155709 ]
      - [ -0.00000000000000, -0.00000000000000 ]
    - # atom 2
      - [ -0.00319393145356,  0.06801876385413 ]
      - [ -0.70304581005666, -0.03301265707872 ]
      - [  0.00000000000000,  0.00000000000000 ]
  - # 6
    frequency:   15.3475059250
    eigenvector:
    - # atom 1
      - [ -0.00000000000000,  0.00000000000000 ]
      - [  0.00000000000000, -0.00000000000000 ]
      - [  0.69215510066864, -0.14464202922521 ]
    - # atom 2
      - [  0.00000000000000,  0.00000000000000 ]
      - [ -0.00000000000000,  0.00000000000000 ]
      - [ -0.69215510066864,  0.14464202922521 ]

- q-position: [    0.0555556,    0.0555556,    0.0000000 ]
  distance:    0.0204587
  band:
  - # 1
    frequency:    0.9998965420
    eigenvector:
    - # atom 1
      - [  0.26564088975012, -0.00000000000000 ]
      - [  0.65366581776060, -0.04643184665857 ]
      - [  0.00000000000001,  0.00000000000000 ]
    - # atom 2
      - [  0.25920472362633, -0.06944420229500 ]
      - [  0.64996654073594, -0.07439025434261 ]
      - [  0.00000000000001,  0.00000000000000 ]
  - # 2
    frequency:    0.9998965420
    eigenvector:
    - # atom 1
      - [  0.65531283956044,  0.00000000000000 ]
      - [ -0.26497324475687,  0.01882184555913 ]
      - [ -0.00000000000000, -0.00000000000000 ]
    - # atom 2
      - [  0.65360383833929,  0.02815024912072 ]
      - [ -0.26347368732271, -0.05090385124099 ]
      - [ -0.00000000000000, -0.00000000000000 ]
  - # 3
    frequency:    1.6993857098
    eigenvector:
    - # atom 1
      - [ -0.00000000000000,  0.00000000000000 ]
      - [ -0.00000000000001,  0.00000000000000 ]
      - [  0.70340068072619, -0.07230133023625 ]
    - # atom 2
      - [  0.00000000000000,  0.00000000000000 ]
      - [ -0.00000000000001,  0.00000000000000 ]
      - [  0.70340068072619, -0.07230133023625 ]
  - # 4
    frequency:   15.2851724754
    eigenvector:
    - # atom 1
      - [ -0.60537746477904,  0.00000000000000 ]
      - [ -0.36448294411280, -0.02589031843318 ]
      - [  0.00000000000001,  0.00000000000000 ]
    - # atom 2
      - [  0.60470200275555, -0.03872196865175 ]
      - [  0.36242023355887, -0.03857034241863 ]
      - [ -0.00000000000001, -0.00000000000000 ]
  - # 5
    frequency:   15.2851724754
    eigenvector:
    - # atom 1
      - [ -0.36540132065676,  0.00000000000000 ]
      - [  0.60385594738852,  0.04289370193636 ]
      - [ -0.00000000000002, -0.00000000000000 ]
    - # atom 2
      - [  0.35877646816016,  0.06415249723650 ]
      - [ -0.60043855830119, -0.08147048973728 ]
      - [  0.00000000000002,  0.00000000000000 ]
  - # 6
    frequency:   15.3425541867
    eigenvector:
    - # atom 1
      - [ -0.00000000000000,  0.00000000000000 ]
      - [ -0.00000000000002,  0.00000000000000 ]
      - [ -0.70693347598913,  0.01565440915297 ]
    - # atom 2
      - [  0.00000000000000, -0.00000000000000 ]
      - [  0.00000000000002, -0.00000000000000 ]
      - [  0.70693347598913, -0.01565440915297 ]

- q-position: [    0.0606061,    0.0606061,    0.0000000 ]
  distance:    0.0223186
  band:
  - # 1
    frequency:    1.0891979460
    eigenvector:
    - # atom 1
      - [ -0.01677997767702,  0.00000000000000 ]
      - [  0.69258985526556,  0.14155467047181 ]
      - [  0.00000000000001, -0.00000000000000 ]
    - # atom 2
      - [ -0.00020842739453, -0.08052346994119 ]
      - [  0.68789292655573,  0.14254560302319 ]
      - [  0.00000000000001, -0.00000000000000 ]
  - # 2
    frequency:    1.0891979460
    eigenvector:
    - # atom 1
      - [  0.70690765475355, -0.00000000000000 ]
      - [  0.01644011382892,  0.00336010537532 ]