Si                                      
   5.43100000000000     
     0.000000    0.500000    0.500000
     0.500000    0.000000    0.500000
     0.500000    0.500000    0.000000
   Si
     2
Direct
  0.000000  0.000000  0.000000
  0.250000  0.250000  0.250000
 
   24   24   24
 -7.6219     -4.5400      2.9080      10.725      15.641      16.796      15.310      12.968      10.717      8.9323    
  7.6937      6.9591      6.7128      6.9591      7.6937      8.9323      10.717      12.968      15.310      16.796    
  15.641      10.725      2.9080     -4.5400     -4.5400      1.2556      9.3956      15.820      18.562      18.046    
  15.936      13.586      11.527      9.9725      8.9314      8.3986      8.3986      8.9314      9.9725      11.527    
  13.586      15.936      18.046      18.562      15.820      9.3956      1.2556     -4.5400      2.9080      9.3956    
  15.841      19.507      19.964      18.394      16.242      14.147      12.411      11.117      10.290      10.001    
  10.290      11.117      12.411      14.147      16.242      18.394      19.964      19.507      15.841      9.3956    
  2.9080     0.14519      10.725      15.820      19.507      20.657      19.806      18.147      16.324      14.648    
  13.245      12.178      11.581      11.581      12.178      13.245      14.648      16.324      18.147      19.806    
  20.657      19.507      15.820      10.725      6.9472      6.9473      15.641      18.562      19.964      19.806    
  18.842      17.570      16.242      14.966      13.805      12.938      12.610      12.938      13.805      14.966    
  16.242      17.570      18.842      19.806      19.964      18.562      15.641      12.537      11.187      12.537    
  16.796      18.046      18.394      18.147      17.570      16.822      15.936      14.915      13.902      13.232    
  13.232      13.902      14.915      15.936      16.822      17.570      18.147      18.394      18.046      16.796    
  14.970      13.588      13.588      14.970      15.310      15.936      16.242      16.324      16.242      15.936    
  15.310      14.382      13.463      13.071      13.463      14.382      15.310      15.936      16.242      16.324    
  16.242      15.936      15.310      14.382      13.463      13.071      13.463      14.382      12.968      13.586    
  14.147      14.648      14.966      14.915      14.382      13.502      12.807      12.807      13.502      14.382    
  14.915      14.966      14.648      14.147      13.586      12.968      12.277      11.617      11.203      11.203    
  11.617      12.277      10.717      11.527      12.411      13.245      13.805      13.902      13.463      12.807    
  12.495      12.807      13.463      13.902      13.805      13.245      12.411      11.527      10.717      9.9964    
  9.3804      8.9466      8.7888      8.9466      9.3804      9.9964      8.9323      9.9725      11.117      12.178    
  12.938      13.232      13.071      12.807      12.807      13.071      13.232      12.938      12.178      11.117    
  9.9725      8.9323      8.0684      7.3848      6.8972      6.6415      6.6415      6.8972      7.3848      8.0684    
  7.6937      8.9314      10.290      11.581      12.610      13.232      13.463      13.502      13.463      13.232    
  12.610      11.581      10.290      8.9314      7.6937      6.6739      5.8829      5.3129      4.9684      4.8537    
  4.9684      5.3129      5.8829      6.6739      6.9591      8.3986      10.001      11.581      12.938      13.902    
  14.382      14.382      13.902      12.938      11.581      10.001      8.3986      6.9591      5.7823      4.8772    
  4.2191      3.7912      3.5824      3.5824      3.7912      4.2191      4.8772      5.7823      6.7128      8.3986    
  10.290      12.178      13.805      14.915      15.310      14.915      13.805      12.178      10.290      8.3986    
  6.7128      5.3432      4.2985      3.5392      3.0271      2.7347      2.6404      2.7347      3.0271      3.5392    
  4.2985      5.3432      6.9591      8.9314      11.117      13.245      14.966      15.936      15.936      14.966    
  13.245      11.117      8.9314      6.9591      5.3432      4.1086      3.2129      2.5998      2.2218      2.0430    
  2.0430      2.2218      2.5998      3.2129      4.1086      5.3432      7.6937      9.9725      12.411      14.648    
  16.242      16.822      16.242      14.648      12.411      9.9725      7.6937      5.7823      4.2985      3.2129    
  2.4631      1.9834      1.7186      1.6341      1.7186      1.9834      2.4631      3.2129      4.2985      5.7823    
  8.9323      11.527      14.147      16.324      17.570      17.570      16.324      14.147      11.527      8.9323    
  6.6739      4.8772      3.5392      2.5998      1.9834      1.6171      1.4470      1.4470      1.6171      1.9834    
  2.5998      3.5392      4.8772      6.6739      10.717      13.586      16.242      18.147      18.842      18.147    
  16.242      13.586      10.717      8.0684      5.8829      4.2191      3.0271      2.2218      1.7186      1.4470    
  1.3616      1.4470      1.7186      2.2218      3.0271      4.2191      5.8829      8.0684      12.968      15.936    
  18.394      19.806      19.806      18.394      15.936      12.968      9.9964      7.3848      5.3129      3.7912    
  2.7347      2.0430      1.6341      1.4470      1.4470      1.6341      2.0430      2.7347      3.7912      5.3129    
  7.3848      9.9964      15.310      18.046      19.964      20.657      19.964      18.046      15.310      12.277    
  9.3804      6.8972      4.9684      3.5824      2.6404      2.0430      1.7186      1.6171      1.7186      2.0430    
  2.6404      3.5824      4.9684      6.8972      9.3804      12.277      16.796      18.562      19.507      19.507    
  18.562      16.796      14.382      11.617      8.9466      6.6415      4.8537      3.5824      2.7347      2.2218    
  1.9834      1.9834      2.2218      2.7347      3.5824      4.8537      6.6415      8.9466      11.617      14.382    
  15.641      15.820      15.841      15.820      15.641      14.970      13.463      11.203      8.7888      6.6415    
  4.9684      3.7912      3.0271      2.5998      2.4631      2.5998      3.0271      3.7912      4.9684      6.6415    
  8.7888      11.203      13.463      14.970      10.725      9.3956      9.3956      10.725      12.537      13.588    
  13.071      11.203      8.9466      6.8972      5.3129      4.2191      3.5392      3.2129      3.2129      3.5392    
  4.2191      5.3129      6.8972      8.9466      11.203      13.071      13.588      12.537      2.9080      1.2556    
  2.9080      6.9472      11.187      13.588      13.463      11.617      9.3804      7.3848      5.8829      4.8772    
  4.2985      4.1086      4.2985      4.8772      5.8829      7.3848      9.3804      11.617      13.463      13.588    
  11.187      6.9472     -4.5400     -4.5400     0.14519      6.9473      12.537      14.970      14.382      12.277    
  9.9964      8.0684      6.6739      5.7823      5.3432      5.3432      5.7823      6.6739      8.0684      9.9964    
  12.277      14.382      14.970      12.537      6.9472     0.14520     -4.5400      1.2556      9.3956      15.820    
  18.562      18.046      15.936      13.586      11.527      9.9725      8.9314      8.3986      8.3986      8.9314    
  9.9725      11.527      13.586      15.936      18.046      18.562      15.820      9.3956      1.2556     -4.5400    
  1.2556      8.4754      15.683      19.869      20.566      19.028      16.822      14.656      12.850      11.500    
  10.638      10.335      10.638      11.500      12.850      14.656      16.822      19.028      20.566      19.869    
  15.683      8.4754      1.2556     -1.8148      9.3956      15.683      20.327      21.987      21.260      19.521    
  17.570      15.746      14.204      13.028      12.365      12.365      13.028      14.204      15.746      17.570    
  19.521      21.260      21.987      20.327      15.683      9.3956      4.7527      4.7527      15.820      19.869    
  21.987      22.078      21.071      19.667      18.147      16.655      15.284      14.242      13.839      14.242    
  15.284      16.655      18.147      19.667      21.071      22.078      21.987      19.869      15.820      11.590    
  9.7582      11.590      18.562      20.566      21.260      21.071      20.434      19.521      18.394      17.066    
  15.677      14.733      14.733      15.677      17.066      18.394      19.521      20.434      21.071      21.260    
  20.566      18.562      15.768      13.680      13.680      15.768      18.046      19.028      19.521      19.667    
  19.521      19.028      18.046      16.523      15.001      14.352      15.001      16.523      18.046      19.028    
  19.521      19.667      19.521      19.028      18.046      16.523      15.001      14.352      15.001      16.523    
  15.936      16.822      17.570      18.147      18.394      18.046      16.796      14.970      13.588      13.588    
  14.970      16.796      18.046      18.394      18.147      17.570      16.822      15.936      14.915      13.902    
  13.232      13.232      13.902      14.915      13.586      14.656      15.746      16.655      17.066      16.523    
  14.970      13.209      12.430      13.209      14.970      16.523      17.066      16.655      15.746      14.656    
  13.586      12.593      11.709      11.063      10.823      11.063      11.709      12.593      11.527      12.850    
  14.204      15.284      15.677      15.001      13.588      12.430      12.430      13.588      15.001      15.677    
  15.284      14.204      12.850      11.527      10.394      9.4785      8.8056      8.4416      8.4416      8.8056    
  9.4785      10.394      9.9725      11.500      13.028      14.242      14.733      14.352      13.588      13.209    
  13.588      14.352      14.733      14.242      13.028      11.500      9.9725      8.6625      7.6359      6.8871    
  6.4246      6.2680      6.4246      6.8871      7.6359      8.6625      8.9314      10.638      12.365      13.839    
  14.733      15.001      14.970      14.970      15.001      14.733      13.839      12.365      10.638      8.9314    
  7.4626      6.3138      5.4729      4.9185      4.6439      4.6439      4.9185      5.4729      6.3138      7.4626    
  8.3986      10.335      12.365      14.242      15.677      16.523      16.796      16.523      15.677      14.242    
  12.365      10.335      8.3986      6.7511      5.4696      4.5308      3.8902      3.5198      3.3995      3.5198    
  3.8902      4.5308      5.4696      6.7511      8.3986      10.638      13.028      15.284      17.066      18.046    
  18.046      17.066      15.284      13.028      10.638      8.3986      6.5127      5.0545      3.9905      3.2542    
  2.7949      2.5768      2.5768      2.7949      3.2542      3.9905      5.0545      6.5127      8.9314      11.500    
  14.204      16.655      18.394      19.028      18.394      16.655      14.204      11.500      8.9314      6.7511    
  5.0545      3.8139      2.9512      2.3928      2.0833      1.9849      2.0833      2.3928      2.9512      3.8139    
  5.0545      6.7511      9.9725      12.850      15.746      18.147      19.521      19.521      18.147      15.746    
  12.850      9.9725      7.4626      5.4696      3.9905      2.9512      2.2652      1.8555      1.6654      1.6654    
  1.8555      2.2652      2.9512      3.9905      5.4696      7.4626      11.527      14.656      17.570      19.667    
  20.434      19.667      17.570      14.656      11.527      8.6625      6.3138      4.5308      3.2542      2.3928    
  1.8555      1.5655      1.4741      1.5655      1.8555      2.3928      3.2542      4.5308      6.3138      8.6625    
  13.586      16.822      19.521      21.071      21.071      19.521      16.822      13.586      10.394      7.6359    
  5.4729      3.8902      2.7949      2.0833      1.6654      1.4741      1.4741      1.6654      2.0833      2.7949    
  3.8902      5.4729      7.6359      10.394      15.936      19.028      21.260      22.078      21.260      19.028    
  15.936      12.593      9.4785      6.8871      4.9185      3.5198      2.5768      1.9849      1.6654      1.5655    
  1.6654      1.9849      2.5768      3.5198      4.9185      6.8871      9.4785      12.593      18.046      20.566    
  21.987      21.987      20.566      18.046      14.915      11.709      8.8056      6.4246      4.6439      3.3995    
  2.5768      2.0833      1.8555      1.8555      2.0833      2.5768      3.3995      4.6439      6.4246      8.8056    
  11.709      14.915      18.562      19.869      20.327      19.869      18.562      16.523      13.902      11.063    
  8.4416      6.2680      4.6439      3.5198      2.7949      2.3928      2.2652      2.3928      2.7949      3.5198    
  4.6439      6.2680      8.4416      11.063      13.902      16.523      15.820      15.683      15.683      15.820    
  15.768      15.001      13.232      10.823      8.4416      6.4246      4.9185      3.8902      3.2542      2.9512    
  2.9512      3.2542      3.8902      4.9185      6.4246      8.4416      10.823      13.232      15.001      15.768    
  9.3956      8.4754      9.3956      11.590      13.680      14.352      13.232      11.063      8.8056      6.8871    
  5.4729      4.5308      3.9905      3.8139      3.9905      4.5308      5.4729      6.8871      8.8056      11.063    
  13.232      14.352      13.680      11.590      1.2556      1.2556      4.7527      9.7582      13.680      15.001    
  13.902      11.709      9.4785      7.6359      6.3138      5.4696      5.0545      5.0545      5.4696      6.3138    
  7.6359      9.4785      11.709      13.902      15.001      13.680      9.7582      4.7527     -4.5400     -1.8148    
  4.7527      11.590      15.768      16.523      14.915      12.593      10.394      8.6625      7.4626      6.7511    
  6.5127      6.7511      7.4626      8.6625      10.394      12.593      14.915      16.523      15.768      11.590    
  4.7527     -1.8148      2.9080      9.3956      15.841      19.507      19.964      18.394      16.242      14.147    
  12.411      11.117      10.290      10.001      10.290      11.117      12.411      14.147      16.242      18.394    
  19.964      19.507      15.841      9.3956      2.9080     0.14519      9.3956      15.683      20.327      21.987    
  21.260      19.521      17.570      15.746      14.204      13.028      12.365      12.365      13.028      14.204    
  15.746      17.570      19.521      21.260      21.987      20.327      15.683      9.3956      4.7527      4.7527    
  15.841      20.327      22.719      22.909      21.887      20.434      18.842      17.270      15.821      14.708    
  14.276      14.708      15.821      17.270      18.842      20.434      21.887      22.909      22.719      20.327    
  15.841      11.170      9.1478      11.170      19.507      21.987      22.909      22.754      22.080      21.071    
  19.806      18.278      16.645      15.523      15.523      16.645      18.278      19.806      21.071      22.080    
  22.754      22.909      21.987      19.507      16.101      13.561      13.561      16.101      19.964      21.260    
  21.887      22.080      21.887      21.260      19.964      17.934      15.905      15.038      15.905      17.934    
  19.964      21.260      21.887      22.080      21.887      21.260      19.964      17.934      15.905      15.038    
  15.905      17.934      18.394      19.521      20.434      21.071      21.260      20.566      18.562      15.768    
  13.680      13.680      15.768      18.562      20.566      21.260      21.071      20.434      19.521      18.394    
  17.066      15.677      14.733      14.733      15.677      17.066      16.242      17.570      18.842      19.806    
  19.964      18.562      15.641      12.537      11.187      12.537      15.641      18.562      19.964      19.806    
  18.842      17.570      16.242      14.966      13.805      12.938      12.610      12.938      13.805      14.966    
  14.147      15.746      17.270      18.278      17.934      15.768      12.537      10.093      10.093      12.537    
  15.768      17.934      18.278      17.270      15.746      14.147      12.724      11.551      10.670      10.183    
  10.183      10.670      11.551      12.724      12.411      14.204      15.821      16.645      15.905      13.680    
  11.187      10.093      11.187      13.680      15.905      16.645      15.821      14.204      12.411      10.792    
  9.5005      8.5500      7.9530      7.7476      7.9530      8.5500      9.5005      10.792      11.117      13.028    
  14.708      15.523      15.038      13.680      12.537      12.537      13.680      15.038      15.523      14.708    
  13.028      11.117      9.3437      7.9160      6.8651      6.1667      5.8156      5.8156      6.1667      6.8651    
  7.9160      9.3437      10.290      12.365      14.276      15.523      15.905      15.768      15.641      15.768    
  15.905      15.523      14.276      12.365      10.290      8.3748      6.8215      5.6707      4.8809      4.4186    
  4.2669      4.4186      4.8809      5.6707      6.8215      8.3748      10.001      12.365      14.708      16.645    
  17.934      18.562      18.562      17.934      16.645      14.708      12.365      10.001      7.8799      6.1734    
  4.9096      4.0292      3.4740      3.2077      3.2077      3.4740      4.0292      4.9096      6.1734      7.8799    
  10.290      13.028      15.821      18.278      19.964      20.566      19.964      18.278      15.821      13.028    
  10.290      7.8799      5.9569      4.5371      3.5436      2.8935      2.5299      2.4141      2.5299      2.8935    
  3.5436      4.5371      5.9569      7.8799      11.117      14.204      17.270      19.806      21.260      21.260    
  19.806      17.270      14.204      11.117      8.3748      6.1734      4.5371      3.3861      2.6196      2.1575    
  1.9427      1.9427      2.1575      2.6196      3.3861      4.5371      6.1734      8.3748      12.411      15.746    
  18.842      21.071      21.887      21.071      18.842      15.746      12.411      9.3437      6.8215      4.9096    
  3.5436      2.6196      2.0400      1.7262      1.6274      1.7262      2.0400      2.6196      3.5436      4.9096    
  6.8215      9.3437      14.147      17.570      20.434      22.080      22.080      20.434      17.570      14.147    
  10.792      7.9160      5.6707      4.0292      2.8935      2.1575      1.7262      1.5286      1.5286      1.7262    
  2.1575      2.8935      4.0292      5.6707      7.9160      10.792      16.242      19.521      21.887      22.754    
  21.887      19.521      16.242      12.724      9.5005      6.8651      4.8809      3.4740      2.5299      1.9427    
  1.6274      1.5286      1.6274      1.9427      2.5299      3.4740      4.8809      6.8651      9.5005      12.724    
  18.394      21.260      22.909      22.909      21.260      18.394      14.966      11.551      8.5500      6.1667    
  4.4186      3.2077      2.4141      1.9427      1.7262      1.7262      1.9427      2.4141      3.2077      4.4186    
  6.1667      8.5500      11.551      14.966      19.964      21.987      22.719      21.987      19.964      17.066    
  13.805      10.670      7.9530      5.8156      4.2669      3.2077      2.5299      2.1575      2.0400      2.1575    
  2.5299      3.2077      4.2669      5.8156      7.9530      10.670      13.805      17.066      19.507      20.327    
  20.327      19.507      17.934      15.677      12.938      10.183      7.7476      5.8156      4.4186      3.4740    
  2.8935      2.6196      2.6196      2.8935      3.4740      4.4186      5.8156      7.7476      10.183      12.938    
  15.677      17.934      15.841      15.683      15.841      16.101      15.905      14.733      12.610      10.183    
  7.9530      6.1667      4.8809      4.0292      3.5436      3.3861      3.5436      4.0292      4.8809      6.1667    
  7.9530      10.183      12.610      14.733      15.905      16.101      9.3956      9.3956      11.170      13.561    
  15.038      14.733      12.938      10.670      8.5500      6.8651      5.6707      4.9096      4.5371      4.5371    
  4.9096      5.6707      6.8651      8.5500      10.670      12.938      14.733      15.038      13.561      11.170    
  2.9080      4.7527      9.1478      13.561      15.905      15.677      13.805      11.551      9.5005      7.9160    
  6.8215      6.1734      5.9569      6.1734      6.8215      7.9160      9.5005      11.551      13.805      15.677    
  15.905      13.561      9.1478      4.7527     0.14519      4.7527      11.170      16.101      17.934      17.066    
  14.966      12.724      10.792      9.3437      8.3748      7.8799      7.8799      8.3748      9.3437      10.792    
  12.724      14.966      17.066      17.934      16.101      11.170      4.7527     0.14520      10.725      15.820    
  19.507      20.657      19.806      18.147      16.324      14.648      13.245      12.178      11.581      11.581    
  12.178      13.245      14.648      16.324      18.147      19.806      20.657      19.507      15.820      10.725    
  6.9472      6.9472      15.820      19.869      21.987      22.078      21.071      19.667      18.147      16.655    
  15.284      14.242      13.839      14.242      15.284      16.655      18.147      19.667      21.071      22.078    
  21.987      19.869      15.820      11.590      9.7582      11.590      19.507      21.987      22.909      22.754    
  22.080      21.071      19.806      18.278      16.645      15.523      15.523      16.645      18.278      19.806    
  21.071      22.080      22.754      22.909      21.987      19.507      16.101      13.561      13.561      16.101    
  20.657      22.078      22.754      22.964      22.754      22.078      20.657      18.430      16.202      15.249    
  16.202      18.430      20.657      22.078      22.754      22.964      22.754      22.078      20.657      18.430    
  16.202      15.249      16.202      18.430      19.806      21.071      22.080      22.754      22.909      21.987    
  19.507      16.101      13.561      13.561      16.101      19.507      21.987      22.909      22.754      22.080    
  21.071      19.806      18.278      16.645      15.523      15.523      16.645      18.278      18.147      19.667    
  21.071      22.078      21.987      19.869      15.820      11.590      9.7582      11.590      15.820      19.869    
  21.987      22.078      21.071      19.667      18.147      16.655      15.284      14.242      13.839      14.242    
  15.284      16.655      16.324      18.147      19.806      20.657      19.507      15.820      10.725      6.9472    
  6.9472      10.725      15.820      19.507      20.657      19.806      18.147      16.324      14.648      13.245    
  12.178      11.581      11.581      12.178      13.245      14.648      14.648      16.655      18.278      18.430    
  16.101      11.590      6.9472      4.9575      6.9472      11.590      16.101      18.430      18.278      16.655    
  14.648      12.750      11.203      10.055      9.3271      9.0737      9.3271      10.055      11.203      12.750    
  13.245      15.284      16.645      16.202      13.561      9.7582      6.9472      6.9472      9.7582      13.561    
  16.202      16.645      15.284      13.245      11.203      9.4976      8.2314      7.3865      6.9573      6.9573    
  7.3865      8.2314      9.4976      11.203      12.178      14.242      15.523      15.249      13.561      11.590    
  10.725      11.590      13.561      15.249      15.523      14.242      12.178      10.055      8.2314      6.8539    
  5.9058      5.3464      5.1608      5.3464      5.9058      6.8539      8.2314      10.055      11.581      13.839    
  15.523      16.202      16.101      15.820      15.820      16.101      16.202      15.523      13.839      11.581    
  9.3271      7.3865      5.9058      4.8672      4.2078      3.8878      3.8878      4.2078      4.8672      5.9058    
  7.3865      9.3271      11.581      14.242      16.645      18.430      19.507      19.869      19.507      18.430    
  16.645      14.242      11.581      9.0737      6.9573      5.3464      4.2078      3.4574      3.0334      2.8972    
  3.0334      3.4574      4.2078      5.3464      6.9573      9.0737      12.178      15.284      18.278      20.657    
  21.987      21.987      20.657      18.278      15.284      12.178      9.3271      6.9573      5.1608      3.8878    
  3.0334      2.5127      2.2694      2.2694      2.5127      3.0334      3.8878      5.1608      6.9573      9.3271    
  13.245      16.655      19.806      22.078      22.909      22.078      19.806      16.655      13.245      10.055    
  7.3865      5.3464      3.8878      2.8972      2.2694      1.9273      1.8197      1.9273      2.2694      2.8972    
  3.8878      5.3464      7.3865      10.055      14.648      18.147      21.071      22.754      22.754      21.071    
  18.147      14.648      11.203      8.2314      5.9058      4.2078      3.0334      2.2694      1.8197      1.6137    
  1.6137      1.8197      2.2694      3.0334      4.2078      5.9058      8.2314      11.203      16.324      19.667    
  22.080      22.964      22.080      19.667      16.324      12.750      9.4976      6.8539      4.8672      3.4574    
  2.5127      1.9273      1.6137      1.5153      1.6137      1.9273      2.5127      3.4574      4.8672      6.8539    
  9.4976      12.750      18.147      21.071      22.754      22.754      21.071      18.147      14.648      11.203    
  8.2314      5.9058      4.2078      3.0334      2.2694      1.8197      1.6137      1.6137      1.8197      2.2694    
  3.0334      4.2078      5.9058      8.2314      11.203      14.648      19.806      22.078      22.909      22.078    
  19.806      16.655      13.245      10.055      7.3865      5.3464      3.8878      2.8972      2.2694      1.9273    
  1.8197      1.9273      2.2694      2.8972      3.8878      5.3464      7.3865      10.055      13.245      16.655    
  20.657      21.987      21.987      20.657      18.278      15.284      12.178      9.3271      6.9573      5.1608    
  3.8878      3.0334      2.5127      2.2694      2.2694      2.5127      3.0334      3.8878      5.1608      6.9573    
  9.3271      12.178      15.284      18.278      19.507      19.869      19.507      18.430      16.645      14.242    
  11.581      9.0737      6.9573      5.3464      4.2078      3.4574      3.0334      2.8972      3.0334      3.4574    
  4.2078      5.3464      6.9573      9.0737      11.581      14.242      16.645      18.430      15.820      15.820    
  16.101      16.202      15.523      13.839      11.581      9.3271      7.3865      5.9058      4.8672      4.2078    
  3.8878      3.8878      4.2078      4.8672      5.9058      7.3865      9.3271      11.581      13.839      15.523    
  16.202      16.101      10.725      11.590      13.561      15.249      15.523      14.242      12.178      10.055    
  8.2314      6.8539      5.9058      5.3464      5.1608      5.3464      5.9058      6.8539      8.2314      10.055    
  12.178      14.242      15.523      15.249      13.561      11.590      6.9472      9.7582      13.561      16.202    
  16.645      15.284      13.245      11.203      9.4976      8.2314      7.3865      6.9573      6.9573      7.3865    
  8.2314      9.4976      11.203      13.245      15.284      16.645      16.202      13.561      9.7582      6.9472    
  6.9472      11.590      16.101      18.430      18.278      16.655      14.648      12.750      11.203      10.055    
  9.3271      9.0737      9.3271      10.055      11.203      12.750      14.648      16.655      18.278      18.430    
  16.101      11.590      6.9472      4.9575      15.641      18.562      19.964      19.806      18.842      17.570    
  16.242      14.966      13.805      12.938      12.610      12.938      13.805      14.966      16.242      17.570    
  18.842      19.806      19.964      18.562      15.641      12.537      11.187      12.537      18.562      20.566    
  21.260      21.071      20.434      19.521      18.394      17.066      15.677      14.733      14.733      15.677    
  17.066      18.394      19.521      20.434      21.071      21.260      20.566      18.562      15.768      13.680    
  13.680      15.768      19.964      21.260      21.887      22.080      21.887      21.260      19.964      17.934    
  15.905      15.038      15.905      17.934      19.964      21.260      21.887      22.080      21.887      21.260    
  19.964      17.934      15.905      15.038      15.905      17.934      19.806      21.071      22.080      22.754    
  22.909      21.987      19.507      16.101      13.561      13.561      16.101      19.507      21.987      22.909    
  22.754      22.080      21.071      19.806      18.278      16.645      15.523      15.523      16.645      18.278    
  18.842      20.434      21.887      22.909      22.719      20.327      15.841      11.170      9.1478      11.170    
  15.841      20.327      22.719      22.909      21.887      20.434      18.842      17.270      15.821      14.708    
  14.276      14.708      15.821      17.270      17.570      19.521      21.260      21.987      20.327      15.683    
  9.3956      4.7527      4.7527      9.3956      15.683      20.327      21.987      21.260      19.521      17.570    
  15.746      14.204      13.028      12.365      12.365      13.028      14.204      15.746      16.242      18.394    