Si                                      
   5.43100000000000     
     0.000000    0.500000    0.500000
     0.500000    0.000000    0.500000
     0.500000    0.500000    0.000000
   Si
     2
Direct
  0.000000  0.000000  0.000000
  0.250000  0.250000  0.250000
 
   24   24   24
 -.76218674307E+01 -.45399799734E+01 0.29079816624E+01 0.10725418554E+02 0.15640873172E+02
 0.16796176510E+02 0.15309886061E+02 0.12967775377E+02 0.10716565582E+02 0.89323374519E+01
 0.76937373644E+01 0.69591022914E+01 0.67128151496E+01 0.69591022970E+01 0.76937373218E+01
 0.89323374457E+01 0.10716565425E+02 0.12967775318E+02 0.15309886174E+02 0.16796176551E+02
 0.15640874905E+02 0.10725418561E+02 0.29079777358E+01 -.45399799781E+01 -.45399799734E+01
 0.12556499023E+01 0.93956110799E+01 0.15819835004E+02 0.18561664840E+02 0.18046134609E+02
 0.15935664614E+02 0.13586104325E+02 0.11526997382E+02 0.99725067032E+01 0.89314422850E+01
 0.83985504160E+01 0.83985504542E+01 0.89314423691E+01 0.99725067888E+01 0.11526997424E+02
 0.13586104266E+02 0.15935664851E+02 0.18046134156E+02 0.18561665512E+02 0.15819837328E+02
 0.93956116378E+01 0.12556433472E+01 -.45399848680E+01 0.29079816624E+01 0.93956110799E+01
 0.15841403581E+02 0.19507176709E+02 0.19964178667E+02 0.18394432727E+02 0.16242045675E+02
 0.14146973553E+02 0.12411425943E+02 0.11116516856E+02 0.10290339577E+02 0.10001281773E+02
 0.10290339522E+02 0.11116516849E+02 0.12411425272E+02 0.14146973548E+02 0.16242046593E+02
 0.18394432814E+02 0.19964177481E+02 0.19507176731E+02 0.15841406268E+02 0.93956111759E+01
 0.29079733134E+01 0.14519387870E+00 0.10725418554E+02 0.15819835004E+02 0.19507176709E+02
 0.20657439512E+02 0.19806147459E+02 0.18146772834E+02 0.16323915429E+02 0.14648262801E+02
 0.13244622940E+02 0.12178379290E+02 0.11581265040E+02 0.11581264691E+02 0.12178380058E+02
 0.13244622715E+02 0.14648259972E+02 0.16323915415E+02 0.18146775219E+02 0.19806147384E+02
 0.20657437836E+02 0.19507176465E+02 0.15819837368E+02 0.10725417972E+02 0.69472481524E+01
 0.69472511308E+01 0.15640873172E+02 0.18561664840E+02 0.19964178667E+02 0.19806147459E+02
 0.18842267108E+02 0.17569649246E+02 0.16242051987E+02 0.14965512909E+02 0.13804600185E+02
 0.12937959099E+02 0.12609826266E+02 0.12937959098E+02 0.13804603176E+02 0.14965512888E+02
 0.16242046593E+02 0.17569649344E+02 0.18842270136E+02 0.19806147486E+02 0.19964177460E+02
 0.18561664897E+02 0.15640874125E+02 0.12536538076E+02 0.11187294400E+02 0.12536538023E+02
 0.16796176510E+02 0.18046134609E+02 0.18394432727E+02 0.18146772834E+02 0.17569649246E+02
 0.16821959376E+02 0.15935664614E+02 0.14914841707E+02 0.13901939731E+02 0.13231534112E+02
 0.13231533770E+02 0.13901940199E+02 0.14914846940E+02 0.15935664790E+02 0.16821952986E+02
 0.17569649383E+02 0.18146775221E+02 0.18394432889E+02 0.18046134182E+02 0.16796176638E+02
 0.14969893656E+02 0.13587747564E+02 0.13587747577E+02 0.14969893825E+02 0.15309886061E+02
 0.15935664614E+02 0.16242045675E+02 0.16323915429E+02 0.16242051987E+02 0.15935664614E+02
 0.15309880051E+02 0.14382488084E+02 0.13462796690E+02 0.13070728589E+02 0.13462796075E+02
 0.14382488132E+02 0.15309886071E+02 0.15935664723E+02 0.16242046541E+02 0.16323915536E+02
 0.16242046532E+02 0.15935664723E+02 0.15309885958E+02 0.14382488132E+02 0.13462795302E+02
 0.13070728589E+02 0.13462795488E+02 0.14382488084E+02 0.12967775377E+02 0.13586104325E+02
 0.14146973553E+02 0.14648262801E+02 0.14965512909E+02 0.14914841707E+02 0.14382488084E+02
 0.13501791344E+02 0.12807033679E+02 0.12807034387E+02 0.13501789579E+02 0.14382487920E+02
 0.14914846962E+02 0.14965512730E+02 0.14648260012E+02 0.14146973441E+02 0.13586104358E+02
 0.12967775313E+02 0.12276538841E+02 0.11617262486E+02 0.11202571552E+02 0.11202571439E+02
 0.11617262570E+02 0.12276538711E+02 0.10716565582E+02 0.11526997382E+02 0.12411425943E+02
 0.13244622940E+02 0.13804600185E+02 0.13901939731E+02 0.13462796690E+02 0.12807033679E+02
 0.12495236300E+02 0.12807033677E+02 0.13462794868E+02 0.13901939767E+02 0.13804602913E+02
 0.13244622923E+02 0.12411425219E+02 0.11526997407E+02 0.10716565296E+02 0.99963717472E+01
 0.93804138876E+01 0.89465589503E+01 0.87888407655E+01 0.89465589699E+01 0.93804139326E+01
 0.99963717415E+01 0.89323374519E+01 0.99725067032E+01 0.11116516856E+02 0.12178379290E+02
 0.12937959099E+02 0.13231534112E+02 0.13070728589E+02 0.12807034387E+02 0.12807033677E+02
 0.13070728109E+02 0.13231533807E+02 0.12937958892E+02 0.12178380084E+02 0.11116516761E+02
 0.99725068408E+01 0.89323374441E+01 0.80683628001E+01 0.73847846202E+01 0.68971726998E+01
 0.66414995062E+01 0.66414995161E+01 0.68971726477E+01 0.73847846886E+01 0.80683627977E+01
 0.76937373644E+01 0.89314422850E+01 0.10290339577E+02 0.11581265040E+02 0.12609826266E+02
 0.13231533770E+02 0.13462796075E+02 0.13501789579E+02 0.13462794868E+02 0.13231533807E+02
 0.12609826459E+02 0.11581265086E+02 0.10290339433E+02 0.89314423533E+01 0.76937372184E+01
 0.66738904360E+01 0.58829466892E+01 0.53128741006E+01 0.49683659059E+01 0.48537184482E+01
 0.49683659225E+01 0.53128740794E+01 0.58829467234E+01 0.66738903841E+01 0.69591022914E+01
 0.83985504160E+01 0.10001281773E+02 0.11581264691E+02 0.12937959098E+02 0.13901940199E+02
 0.14382488132E+02 0.14382487920E+02 0.13901939767E+02 0.12937958892E+02 0.11581265086E+02
 0.10001281690E+02 0.83985505206E+01 0.69591022782E+01 0.57823451303E+01 0.48772225812E+01
 0.42191080438E+01 0.37911618709E+01 0.35824082459E+01 0.35824082024E+01 0.37911619176E+01
 0.42191079876E+01 0.48772226679E+01 0.57823451296E+01 0.67128151496E+01 0.83985504542E+01
 0.10290339522E+02 0.12178380058E+02 0.13804603176E+02 0.14914846940E+02 0.15309886071E+02
 0.14914846962E+02 0.13804602913E+02 0.12178380084E+02 0.10290339433E+02 0.83985505206E+01
 0.67128151040E+01 0.53432176787E+01 0.42984580015E+01 0.35391937143E+01 0.30271041601E+01
 0.27346862823E+01 0.26403528428E+01 0.27346862636E+01 0.30271041934E+01 0.35391936673E+01
 0.42984580412E+01 0.53432176201E+01 0.69591022970E+01 0.89314423691E+01 0.11116516849E+02
 0.13244622715E+02 0.14965512888E+02 0.15935664790E+02 0.15935664723E+02 0.14965512730E+02
 0.13244622923E+02 0.11116516761E+02 0.89314423533E+01 0.69591022782E+01 0.53432176787E+01
 0.41085600596E+01 0.32128524277E+01 0.25998238966E+01 0.22218275612E+01 0.20430425639E+01
 0.20430426433E+01 0.22218274870E+01 0.25998239712E+01 0.32128523458E+01 0.41085601488E+01
 0.53432176000E+01 0.76937373218E+01 0.99725067888E+01 0.12411425272E+02 0.14648259972E+02
 0.16242046593E+02 0.16821952986E+02 0.16242046541E+02 0.14648260012E+02 0.12411425219E+02
 0.99725068408E+01 0.76937372184E+01 0.57823451303E+01 0.42984580015E+01 0.32128524277E+01
 0.24631192196E+01 0.19834079861E+01 0.17186288699E+01 0.16341317844E+01 0.17186288871E+01
 0.19834079509E+01 0.24631192650E+01 0.32128523621E+01 0.42984580512E+01 0.57823450709E+01
 0.89323374457E+01 0.11526997424E+02 0.14146973548E+02 0.16323915415E+02 0.17569649344E+02
 0.17569649383E+02 0.16323915536E+02 0.14146973441E+02 0.11526997407E+02 0.89323374441E+01
 0.66738904360E+01 0.48772225812E+01 0.35391937143E+01 0.25998238966E+01 0.19834079861E+01
 0.16171178077E+01 0.14470322514E+01 0.14470321664E+01 0.16171178922E+01 0.19834079055E+01
 0.25998239666E+01 0.35391936471E+01 0.48772226399E+01 0.66738903726E+01 0.10716565425E+02
 0.13586104266E+02 0.16242046593E+02 0.18146775219E+02 0.18842270136E+02 0.18146775221E+02
 0.16242046532E+02 0.13586104358E+02 0.10716565296E+02 0.80683628001E+01 0.58829466892E+01
 0.42191080438E+01 0.30271041601E+01 0.22218275612E+01 0.17186288699E+01 0.14470322514E+01
 0.13615671091E+01 0.14470322366E+01 0.17186288996E+01 0.22218275200E+01 0.30271042087E+01
 0.42191079783E+01 0.58829467337E+01 0.80683627445E+01 0.12967775318E+02 0.15935664851E+02
 0.18394432814E+02 0.19806147384E+02 0.19806147486E+02 0.18394432889E+02 0.15935664723E+02
 0.12967775313E+02 0.99963717472E+01 0.73847846202E+01 0.53128741006E+01 0.37911618709E+01
 0.27346862823E+01 0.20430425639E+01 0.16341317844E+01 0.14470321664E+01 0.14470322366E+01
 0.16341317189E+01 0.20430426216E+01 0.27346862329E+01 0.37911619057E+01 0.53128740785E+01
 0.73847846252E+01 0.99963716452E+01 0.15309886174E+02 0.18046134156E+02 0.19964177481E+02
 0.20657437836E+02 0.19964177460E+02 0.18046134182E+02 0.15309885958E+02 0.12276538841E+02
 0.93804138876E+01 0.68971726998E+01 0.49683659059E+01 0.35824082459E+01 0.26403528428E+01
 0.20430426433E+01 0.17186288871E+01 0.16171178922E+01 0.17186288996E+01 0.20430426216E+01
 0.26403528827E+01 0.35824082091E+01 0.49683659387E+01 0.68971726483E+01 0.93804138510E+01
 0.12276538711E+02 0.16796176551E+02 0.18561665512E+02 0.19507176731E+02 0.19507176465E+02
 0.18561664897E+02 0.16796176638E+02 0.14382488132E+02 0.11617262486E+02 0.89465589503E+01
 0.66414995062E+01 0.48537184482E+01 0.35824082024E+01 0.27346862636E+01 0.22218274870E+01
 0.19834079509E+01 0.19834079055E+01 0.22218275200E+01 0.27346862329E+01 0.35824082091E+01
 0.48537184423E+01 0.66414994951E+01 0.89465588042E+01 0.11617262431E+02 0.14382488041E+02
 0.15640874905E+02 0.15819837328E+02 0.15841406268E+02 0.15819837368E+02 0.15640874125E+02
 0.14969893656E+02 0.13462795302E+02 0.11202571552E+02 0.87888407655E+01 0.66414995161E+01
 0.49683659225E+01 0.37911619176E+01 0.30271041934E+01 0.25998239712E+01 0.24631192650E+01
 0.25998239666E+01 0.30271042087E+01 0.37911619057E+01 0.49683659387E+01 0.66414994951E+01
 0.87888406907E+01 0.11202571456E+02 0.13462794983E+02 0.14969893617E+02 0.10725418561E+02
 0.93956116378E+01 0.93956111759E+01 0.10725417972E+02 0.12536538076E+02 0.13587747564E+02
 0.13070728589E+02 0.11202571439E+02 0.89465589699E+01 0.68971726477E+01 0.53128740794E+01
 0.42191079876E+01 0.35391936673E+01 0.32128523458E+01 0.32128523621E+01 0.35391936471E+01
 0.42191079783E+01 0.53128740785E+01 0.68971726483E+01 0.89465588042E+01 0.11202571456E+02
 0.13070728217E+02 0.13587747562E+02 0.12536539034E+02 0.29079777358E+01 0.12556433472E+01
 0.29079733134E+01 0.69472481524E+01 0.11187294400E+02 0.13587747577E+02 0.13462795488E+02
 0.11617262570E+02 0.93804139326E+01 0.73847846886E+01 0.58829467234E+01 0.48772226679E+01
 0.42984580412E+01 0.41085601488E+01 0.42984580512E+01 0.48772226399E+01 0.58829467337E+01
 0.73847846252E+01 0.93804138510E+01 0.11617262431E+02 0.13462794983E+02 0.13587747562E+02
 0.11187294557E+02 0.69472480485E+01 -.45399799781E+01 -.45399848680E+01 0.14519387870E+00
 0.69472511308E+01 0.12536538023E+02 0.14969893825E+02 0.14382488084E+02 0.12276538711E+02
 0.99963717415E+01 0.80683627977E+01 0.66738903841E+01 0.57823451296E+01 0.53432176201E+01
 0.53432176000E+01 0.57823450709E+01 0.66738903726E+01 0.80683627445E+01 0.99963716452E+01
 0.12276538711E+02 0.14382488041E+02 0.14969893617E+02 0.12536539034E+02 0.69472480485E+01
 0.14519595856E+00 -.45399737966E+01 0.12556435619E+01 0.93956057718E+01 0.15819837447E+02
 0.18561665844E+02 0.18046134292E+02 0.15935664780E+02 0.13586104268E+02 0.11526997173E+02
 0.99725067615E+01 0.89314422784E+01 0.83985504343E+01 0.83985505361E+01 0.89314422733E+01
 0.99725068098E+01 0.11526997338E+02 0.13586104278E+02 0.15935664702E+02 0.18046134125E+02
 0.18561664970E+02 0.15819836549E+02 0.93956112219E+01 0.12556419367E+01 -.45399796692E+01
 0.12556435619E+01 0.84754407475E+01 0.15682989749E+02 0.19869104899E+02 0.20566079907E+02
 0.19027740175E+02 0.16821953036E+02 0.14655531402E+02 0.12850227717E+02 0.11500287231E+02
 0.10637658461E+02 0.10335341953E+02 0.10637658442E+02 0.11500287094E+02 0.12850227682E+02
 0.14655531470E+02 0.16821952943E+02 0.19027740528E+02 0.20566079785E+02 0.19869102034E+02
 0.15682989645E+02 0.84754468457E+01 0.12556434789E+01 -.18147649562E+01 0.93956057718E+01
 0.15682989749E+02 0.20327291332E+02 0.21986944101E+02 0.21259719144E+02 0.19520594715E+02
 0.17569650250E+02 0.15745753237E+02 0.14204424726E+02 0.13027513158E+02 0.12364871517E+02
 0.12364871640E+02 0.13027513107E+02 0.14204425422E+02 0.15745753209E+02 0.17569649316E+02
 0.19520594584E+02 0.21259720390E+02 0.21986943990E+02 0.20327288256E+02 0.15682990019E+02
 0.93956111623E+01 0.47526706166E+01 0.47526677643E+01 0.15819837447E+02 0.19869104899E+02
 0.21986944101E+02 0.22077548579E+02 0.21070825802E+02 0.19666864768E+02 0.18146775278E+02
 0.16654948429E+02 0.15284142376E+02 0.14241577478E+02 0.13839445762E+02 0.14241577067E+02
 0.15284142407E+02 0.16654951470E+02 0.18146775219E+02 0.19666862505E+02 0.21070825745E+02
 0.22077550400E+02 0.21986944046E+02 0.19869102872E+02 0.15819837371E+02 0.11590020775E+02
 0.97581836509E+01 0.11590017098E+02 0.18561665844E+02 0.20566079907E+02 0.21259719144E+02
 0.21070825802E+02 0.20433606413E+02 0.19520594715E+02 0.18394427418E+02 0.17065703648E+02
 0.15677110938E+02 0.14733142152E+02 0.14733142516E+02 0.15677108056E+02 0.17065703536E+02
 0.18394432822E+02 0.19520594545E+02 0.20433603387E+02 0.21070825733E+02 0.21259720442E+02
 0.20566079709E+02 0.18561664977E+02 0.15767750194E+02 0.13680094199E+02 0.13680093446E+02
 0.15767750373E+02 0.18046134292E+02 0.19027740175E+02 0.19520594715E+02 0.19666864768E+02
 0.19520594715E+02 0.19027734152E+02 0.18046134292E+02 0.16523228913E+02 0.15001465965E+02
 0.14351820883E+02 0.15001465938E+02 0.16523223264E+02 0.18046134203E+02 0.19027740523E+02
 0.19520594579E+02 0.19666862394E+02 0.19520594579E+02 0.19027740576E+02 0.18046134203E+02
 0.16523223825E+02 0.15001465938E+02 0.14351821357E+02 0.15001465965E+02 0.16523223657E+02
 0.15935664780E+02 0.16821953036E+02 0.17569650250E+02 0.18146775278E+02 0.18394427418E+02
 0.18046134292E+02 0.16796182687E+02 0.14969893768E+02 0.13587746166E+02 0.13587747622E+02
 0.14969892876E+02 0.16796176657E+02 0.18046134151E+02 0.18394432793E+02 0.18146775233E+02
 0.17569649298E+02 0.16821953007E+02 0.15935664641E+02 0.14914847022E+02 0.13901939657E+02
 0.13231533763E+02 0.13231533696E+02 0.13901939522E+02 0.14914846906E+02 0.13586104268E+02
 0.14655531402E+02 0.15745753237E+02 0.16654948429E+02 0.17065703648E+02 0.16523228913E+02
 0.14969893768E+02 0.13209120419E+02 0.12430077297E+02 0.13209121481E+02 0.14969893715E+02
 0.16523223947E+02 0.17065703639E+02 0.16654951460E+02 0.15745753170E+02 0.14655531565E+02
 0.13586104253E+02 0.12592970348E+02 0.11709243649E+02 0.11063120856E+02 0.10822704229E+02
 0.11063120895E+02 0.11709243653E+02 0.12592970324E+02 0.11526997173E+02 0.12850227717E+02
 0.14204424726E+02 0.15284142376E+02 0.15677110938E+02 0.15001465965E+02 0.13587746166E+02
 0.12430077297E+02 0.12430076445E+02 0.13587747609E+02 0.15001466248E+02 0.15677108048E+02
 0.15284142514E+02 0.14204425421E+02 0.12850227731E+02 0.11526997324E+02 0.10393665425E+02
 0.94784831015E+01 0.88055730448E+01 0.84416116709E+01 0.84416117460E+01 0.88055729571E+01
 0.94784831079E+01 0.10393665367E+02 0.99725067615E+01 0.11500287231E+02 0.13027513158E+02
 0.14241577478E+02 0.14733142152E+02 0.14351820883E+02 0.13587747622E+02 0.13209121481E+02
 0.13587747609E+02 0.14351821739E+02 0.14733142132E+02 0.14241576952E+02 0.13027513130E+02
 0.11500287201E+02 0.99725067658E+01 0.86625256968E+01 0.76358611974E+01 0.68870747327E+01
 0.64246367879E+01 0.62680460960E+01 0.64246367851E+01 0.68870747414E+01 0.76358612054E+01
 0.86625256162E+01 0.89314422784E+01 0.10637658461E+02 0.12364871517E+02 0.13839445762E+02
 0.14733142516E+02 0.15001465938E+02 0.14969892876E+02 0.14969893715E+02 0.15001466248E+02
 0.14733142132E+02 0.13839445864E+02 0.12364871601E+02 0.10637658467E+02 0.89314422655E+01
 0.74625894634E+01 0.63138431477E+01 0.54729019685E+01 0.49185103329E+01 0.46439400835E+01
 0.46439400357E+01 0.49185103926E+01 0.54729019059E+01 0.63138431747E+01 0.74625894532E+01
 0.83985504343E+01 0.10335341953E+02 0.12364871640E+02 0.14241577067E+02 0.15677108056E+02
 0.16523223264E+02 0.16796176657E+02 0.16523223947E+02 0.15677108048E+02 0.14241576952E+02
 0.12364871601E+02 0.10335341962E+02 0.83985504220E+01 0.67510635492E+01 0.54696456092E+01
 0.45308304506E+01 0.38902214938E+01 0.35197745639E+01 0.33995271142E+01 0.35197745476E+01
 0.38902215051E+01 0.45308304326E+01 0.54696456381E+01 0.67510634274E+01 0.83985505361E+01
 0.10637658442E+02 0.13027513107E+02 0.15284142407E+02 0.17065703536E+02 0.18046134203E+02
 0.18046134151E+02 0.17065703639E+02 0.15284142514E+02 0.13027513130E+02 0.10637658467E+02
 0.83985504220E+01 0.65127230601E+01 0.50545450810E+01 0.39904599262E+01 0.32542055005E+01
 0.27948573507E+01 0.25768173385E+01 0.25768174228E+01 0.27948572713E+01 0.32542055849E+01
 0.39904598459E+01 0.50545451331E+01 0.65127230526E+01 0.89314422733E+01 0.11500287094E+02
 0.14204425422E+02 0.16654951470E+02 0.18394432822E+02 0.19027740523E+02 0.18394432793E+02
 0.16654951460E+02 0.14204425421E+02 0.11500287201E+02 0.89314422655E+01 0.67510635492E+01
 0.50545450810E+01 0.38139243524E+01 0.29511962383E+01 0.23928248819E+01 0.20833150452E+01
 0.19848724122E+01 0.20833150512E+01 0.23928248660E+01 0.29511962486E+01 0.38139243584E+01
 0.50545451018E+01 0.67510634954E+01 0.99725068098E+01 0.12850227682E+02 0.15745753209E+02
 0.18146775219E+02 0.19520594545E+02 0.19520594579E+02 0.18146775233E+02 0.15745753170E+02
 0.12850227731E+02 0.99725067658E+01 0.74625894634E+01 0.54696456092E+01 0.39904599262E+01
 0.29511962383E+01 0.22651866975E+01 0.18555441864E+01 0.16654214369E+01 0.16654213269E+01
 0.18555442915E+01 0.22651865996E+01 0.29511963367E+01 0.39904598384E+01 0.54696456748E+01
 0.74625894528E+01 0.11526997338E+02 0.14655531470E+02 0.17569649316E+02 0.19666862505E+02
 0.20433603387E+02 0.19666862394E+02 0.17569649298E+02 0.14655531565E+02 0.11526997324E+02
 0.86625256968E+01 0.63138431477E+01 0.45308304506E+01 0.32542055005E+01 0.23928248819E+01
 0.18555441864E+01 0.15654983640E+01 0.14740620411E+01 0.15654983620E+01 0.18555441888E+01
 0.23928248815E+01 0.32542055003E+01 0.45308304672E+01 0.63138431539E+01 0.86625256562E+01
 0.13586104278E+02 0.16821952943E+02 0.19520594584E+02 0.21070825745E+02 0.21070825733E+02
 0.19520594579E+02 0.16821953007E+02 0.13586104253E+02 0.10393665425E+02 0.76358611974E+01
 0.54729019685E+01 0.38902214938E+01 0.27948573507E+01 0.20833150452E+01 0.16654214369E+01
 0.14740620411E+01 0.14740621577E+01 0.16654213234E+01 0.20833151497E+01 0.27948572564E+01
 0.38902215815E+01 0.54729018863E+01 0.76358612685E+01 0.10393665412E+02 0.15935664702E+02
 0.19027740528E+02 0.21259720390E+02 0.22077550400E+02 0.21259720442E+02 0.19027740576E+02
 0.15935664641E+02 0.12592970348E+02 0.94784831015E+01 0.68870747327E+01 0.49185103329E+01
 0.35197745639E+01 0.25768173385E+01 0.19848724122E+01 0.16654213269E+01 0.15654983620E+01
 0.16654213234E+01 0.19848724206E+01 0.25768173281E+01 0.35197745799E+01 0.49185103138E+01
 0.68870747538E+01 0.94784831161E+01 0.12592970372E+02 0.18046134125E+02 0.20566079785E+02
 0.21986943990E+02 0.21986944046E+02 0.20566079709E+02 0.18046134203E+02 0.14914847022E+02
 0.11709243649E+02 0.88055730448E+01 0.64246367879E+01 0.46439400835E+01 0.33995271142E+01
 0.25768174228E+01 0.20833150512E+01 0.18555442915E+01 0.18555441888E+01 0.20833151497E+01
 0.25768173281E+01 0.33995271918E+01 0.46439400064E+01 0.64246368643E+01 0.88055729685E+01
 0.11709243832E+02 0.14914846934E+02 0.18561664970E+02 0.19869102034E+02 0.20327288256E+02
 0.19869102872E+02 0.18561664977E+02 0.16523223825E+02 0.13901939657E+02 0.11063120856E+02
 0.84416116709E+01 0.62680460960E+01 0.46439400357E+01 0.35197745476E+01 0.27948572713E+01
 0.23928248660E+01 0.22651865996E+01 0.23928248815E+01 0.27948572564E+01 0.35197745799E+01
 0.46439400064E+01 0.62680461322E+01 0.84416116640E+01 0.11063121065E+02 0.13901939693E+02
 0.16523223933E+02 0.15819836549E+02 0.15682989645E+02 0.15682990019E+02 0.15819837371E+02
 0.15767750194E+02 0.15001465938E+02 0.13231533763E+02 0.10822704229E+02 0.84416117460E+01
 0.64246367851E+01 0.49185103926E+01 0.38902215051E+01 0.32542055849E+01 0.29511962486E+01
 0.29511963367E+01 0.32542055003E+01 0.38902215815E+01 0.49185103138E+01 0.64246368643E+01
 0.84416116640E+01 0.10822704442E+02 0.13231533699E+02 0.15001466260E+02 0.15767750330E+02
 0.93956112219E+01 0.84754468457E+01 0.93956111623E+01 0.11590020775E+02 0.13680094199E+02
 0.14351821357E+02 0.13231533696E+02 0.11063120895E+02 0.88055729571E+01 0.68870747414E+01
 0.54729019059E+01 0.45308304326E+01 0.39904598459E+01 0.38139243584E+01 0.39904598384E+01
 0.45308304672E+01 0.54729018863E+01 0.68870747538E+01 0.88055729685E+01 0.11063121065E+02
 0.13231533699E+02 0.14351821761E+02 0.13680094161E+02 0.11590019189E+02 0.12556419367E+01
 0.12556434789E+01 0.47526706166E+01 0.97581836509E+01 0.13680093446E+02 0.15001465965E+02
 0.13901939522E+02 0.11709243653E+02 0.94784831079E+01 0.76358612054E+01 0.63138431747E+01
 0.54696456381E+01 0.50545451331E+01 0.50545451018E+01 0.54696456748E+01 0.63138431539E+01
 0.76358612685E+01 0.94784831161E+01 0.11709243832E+02 0.13901939693E+02 0.15001466260E+02
 0.13680094161E+02 0.97581828161E+01 0.47526677832E+01 -.45399796692E+01 -.18147649562E+01
 0.47526677643E+01 0.11590017098E+02 0.15767750373E+02 0.16523223657E+02 0.14914846906E+02
 0.12592970324E+02 0.10393665367E+02 0.86625256162E+01 0.74625894532E+01 0.67510634274E+01
 0.65127230526E+01 0.67510634954E+01 0.74625894528E+01 0.86625256562E+01 0.10393665412E+02
 0.12592970372E+02 0.14914846934E+02 0.16523223933E+02 0.15767750330E+02 0.11590019189E+02
 0.47526677832E+01 -.18147720044E+01 0.29079702399E+01 0.93956110592E+01 0.15841412046E+02
 0.19507176689E+02 0.19964176518E+02 0.18394432706E+02 0.16242046575E+02 0.14146973532E+02
 0.12411425486E+02 0.11116516835E+02 0.10290339548E+02 0.10001281752E+02 0.10290339438E+02
 0.11116516828E+02 0.12411425298E+02 0.14146973527E+02 0.16242046589E+02 0.18394432794E+02
 0.19964177466E+02 0.19507176710E+02 0.15841407466E+02 0.93956111552E+01 0.29079776291E+01
 0.14519385797E+00 0.93956110592E+01 0.15682996068E+02 0.20327288216E+02 0.21986941637E+02
 0.21259720330E+02 0.19520595011E+02 0.17569649225E+02 0.15745753273E+02 0.14204425433E+02
 0.13027513079E+02 0.12364871595E+02 0.12364871601E+02 0.13027513152E+02 0.14204425497E+02
 0.15745753204E+02 0.17569649380E+02 0.19520594617E+02 0.21259720518E+02 0.21986944078E+02
 0.20327288777E+02 0.15682989643E+02 0.93956115571E+01 0.47526677531E+01 0.47526625445E+01
 0.15841412046E+02 0.20327288216E+02 0.22719089068E+02 0.22908948332E+02 0.21886510854E+02
 0.20433603298E+02 0.18842269261E+02 0.17270334248E+02 0.15820550440E+02 0.14707933938E+02
 0.14276337142E+02 0.14707933898E+02 0.15820549818E+02 0.17270334260E+02 0.18842270131E+02
 0.20433603387E+02 0.21886509619E+02 0.22908948345E+02 0.22719092209E+02 0.20327288326E+02
 0.15841406202E+02 0.11170266651E+02 0.91478461463E+01 0.11170266623E+02 0.19507176689E+02
 0.21986941637E+02 0.22908948332E+02 0.22753820928E+02 0.22079842259E+02 0.21070823338E+02
 0.19806147439E+02 0.18278166668E+02 0.16644571502E+02 0.15523241348E+02 0.15523242084E+02
 0.16644571142E+02 0.18278163783E+02 0.19806147396E+02 0.21070825738E+02 0.22079842195E+02
 0.22753819331E+02 0.22908948186E+02 0.21986944065E+02 0.19507176428E+02 0.16100512681E+02
 0.13561125494E+02 0.13561126353E+02 0.16100515512E+02 0.19964176518E+02 0.21259720330E+02
 0.21886510854E+02 0.22079842259E+02 0.21886506553E+02 0.21259720330E+02 0.19964182830E+02
 0.17934298527E+02 0.15904853003E+02 0.15037511494E+02 0.15904855545E+02 0.17934298517E+02
 0.19964177480E+02 0.21259720416E+02 0.21886509646E+02 0.22079842253E+02 0.21886509608E+02
 0.21259720416E+02 0.19964177437E+02 0.17934298517E+02 0.15904855999E+02 0.15037511494E+02
 0.15904856574E+02 0.17934298527E+02 0.18394432706E+02 0.19520595011E+02 0.20433603298E+02
 0.21070823338E+02 0.21259720330E+02 0.20566086227E+02 0.18561664819E+02 0.15767745153E+02
 0.13680094153E+02 0.13680094594E+02 0.15767750271E+02 0.18561665498E+02 0.20566079753E+02
 0.21259720570E+02 0.21070825728E+02 0.20433603452E+02 0.19520594579E+02 0.18394432897E+02
 0.17065703624E+02 0.15677108017E+02 0.14733142140E+02 0.14733142073E+02 0.15677108075E+02
 0.17065703685E+02 0.16242046575E+02 0.17569649225E+02 0.18842269261E+02 0.19806147439E+02
 0.19964182830E+02 0.18561664819E+02 0.15640868061E+02 0.12536538002E+02 0.11187295145E+02
 0.12536538055E+02 0.15640874869E+02 0.18561664876E+02 0.19964177489E+02 0.19806147466E+02
 0.18842270170E+02 0.17569649324E+02 0.16242046580E+02 0.14965512868E+02 0.13804603047E+02
 0.12937959077E+02 0.12609826690E+02 0.12937959078E+02 0.13804603298E+02 0.14965512888E+02
 0.14146973532E+02 0.15745753273E+02 0.17270334248E+02 0.18278166668E+02 0.17934298527E+02
 0.15767745153E+02 0.12536538002E+02 0.10092862343E+02 0.10092860427E+02 0.12536538967E+02
 0.15767750273E+02 0.17934298400E+02 0.18278163770E+02 0.17270334199E+02 0.15745753190E+02
 0.14146973492E+02 0.12723754912E+02 0.11550878504E+02 0.10670391309E+02 0.10183449922E+02
 0.10183449976E+02 0.10670391225E+02 0.11550878650E+02 0.12723754775E+02 0.12411425486E+02
 0.14204425433E+02 0.15820550440E+02 0.16644571502E+02 0.15904853003E+02 0.13680094153E+02
 0.11187295145E+02 0.10092860427E+02 0.11187294482E+02 0.13680094171E+02 0.15904855585E+02
 0.16644571415E+02 0.15820549637E+02 0.14204425421E+02 0.12411425282E+02 0.10792320320E+02
 0.95005481033E+01 0.85500379750E+01 0.79530282318E+01 0.77475771572E+01 0.79530282235E+01
 0.85500380093E+01 0.95005480955E+01 0.10792320428E+02 0.11116516835E+02 0.13027513079E+02
 0.14707933938E+02 0.15523241348E+02 0.15037511494E+02 0.13680094594E+02 0.12536538055E+02
 0.12536538967E+02 0.13680094171E+02 0.15037511094E+02 0.15523242069E+02 0.14707933837E+02
 0.13027513124E+02 0.11116516843E+02 0.93437367004E+01 0.79159806292E+01 0.68650942559E+01
 0.61667035587E+01 0.58155751116E+01 0.58155751080E+01 0.61667035754E+01 0.68650942418E+01
 0.79159806741E+01 0.93437366894E+01 0.10290339548E+02 0.12364871595E+02 0.14276337142E+02
 0.15523242084E+02 0.15904855545E+02 0.15767750271E+02 0.15640874869E+02 0.15767750273E+02
 0.15904855585E+02 0.15523242069E+02 0.14276336910E+02 0.12364871602E+02 0.10290339517E+02
 0.83748066651E+01 0.68215358624E+01 0.56706574694E+01 0.48809483890E+01 0.44186276537E+01
 0.42668574927E+01 0.44186276582E+01 0.48809483734E+01 0.56706574801E+01 0.68215358392E+01
 0.83748067243E+01 0.10001281752E+02 0.12364871601E+02 0.14707933898E+02 0.16644571142E+02
 0.17934298517E+02 0.18561665498E+02 0.18561664876E+02 0.17934298400E+02 0.16644571415E+02
 0.14707933837E+02 0.12364871602E+02 0.10001281774E+02 0.78798859453E+01 0.61733637785E+01
 0.49096100952E+01 0.40292179084E+01 0.34740187596E+01 0.32077419470E+01 0.32077419483E+01
 0.34740187685E+01 0.40292179150E+01 0.49096101099E+01 0.61733637746E+01 0.78798859952E+01
 0.10290339438E+02 0.13027513152E+02 0.15820549818E+02 0.18278163783E+02 0.19964177480E+02
 0.20566079753E+02 0.19964177489E+02 0.18278163770E+02 0.15820549637E+02 0.13027513124E+02
 0.10290339517E+02 0.78798859453E+01 0.59569203947E+01 0.45371110165E+01 0.35435808270E+01
 0.28935045963E+01 0.25299456762E+01 0.24140886865E+01 0.25299456662E+01 0.28935046084E+01
 0.35435807969E+01 0.45371110402E+01 0.59569203620E+01 0.78798859952E+01 0.11116516828E+02
 0.14204425497E+02 0.17270334260E+02 0.19806147396E+02 0.21259720416E+02 0.21259720570E+02
 0.19806147466E+02 0.17270334199E+02 0.14204425421E+02 0.11116516843E+02 0.83748066651E+01
 0.61733637785E+01 0.45371110165E+01 0.33861334989E+01 0.26196102114E+01 0.21574595075E+01
 0.19427040535E+01 0.19427040373E+01 0.21574595259E+01 0.26196102041E+01 0.33861335121E+01
 0.45371110015E+01 0.61733637742E+01 0.83748066625E+01 0.12411425298E+02 0.15745753204E+02
 0.18842270131E+02 0.21070825738E+02 0.21886509646E+02 0.21070825728E+02 0.18842270170E+02
 0.15745753190E+02 0.12411425282E+02 0.93437367004E+01 0.68215358624E+01 0.49096100952E+01
 0.35435808270E+01 0.26196102114E+01 0.20399540295E+01 0.17261786494E+01 0.16273880649E+01
 0.17261786573E+01 0.20399540123E+01 0.26196102325E+01 0.35435807876E+01 0.49096101299E+01
 0.68215358280E+01 0.93437367393E+01 0.14146973527E+02 0.17569649380E+02 0.20433603387E+02
 0.22079842195E+02 0.22079842253E+02 0.20433603452E+02 0.17569649324E+02 0.14146973492E+02
 0.10792320320E+02 0.79159806292E+01 0.56706574694E+01 0.40292179084E+01 0.28935045963E+01
 0.21574595075E+01 0.17261786494E+01 0.15286211423E+01 0.15286211756E+01 0.17261786201E+01
 0.21574595354E+01 0.28935045703E+01 0.40292179373E+01 0.56706574405E+01 0.79159806384E+01
 0.10792320284E+02 0.16242046589E+02 0.19520594617E+02 0.21886509619E+02 0.22753819331E+02
 0.21886509608E+02 0.19520594579E+02 0.16242046580E+02 0.12723754912E+02 0.95005481033E+01
 0.68650942559E+01 0.48809483890E+01 0.34740187596E+01 0.25299456762E+01 0.19427040535E+01
 0.16273880649E+01 0.15286211756E+01 0.16273880536E+01 0.19427040734E+01 0.25299456508E+01
 0.34740187893E+01 0.48809483445E+01 0.68650943080E+01 0.95005480882E+01 0.12723754877E+02
 0.18394432794E+02 0.21259720518E+02 0.22908948345E+02 0.22908948186E+02 0.21259720416E+02
 0.18394432897E+02 0.14965512868E+02 0.11550878504E+02 0.85500379750E+01 0.61667035587E+01
 0.44186276537E+01 0.32077419470E+01 0.24140886865E+01 0.19427040373E+01 0.17261786573E+01
 0.17261786201E+01 0.19427040734E+01 0.24140886483E+01 0.32077419783E+01 0.44186276322E+01
 0.61667036024E+01 0.85500378837E+01 0.11550878577E+02 0.14965512796E+02 0.19964177466E+02
 0.21986944078E+02 0.22719092209E+02 0.21986944065E+02 0.19964177437E+02 0.17065703624E+02
 0.13804603047E+02 0.10670391309E+02 0.79530282318E+01 0.58155751116E+01 0.42668574927E+01
 0.32077419483E+01 0.25299456662E+01 0.21574595259E+01 0.20399540123E+01 0.21574595354E+01
 0.25299456508E+01 0.32077419783E+01 0.42668574596E+01 0.58155751460E+01 0.79530282232E+01
 0.10670391306E+02 0.13804602939E+02 0.17065703624E+02 0.19507176710E+02 0.20327288777E+02
 0.20327288326E+02 0.19507176428E+02 0.17934298517E+02 0.15677108017E+02 0.12937959077E+02
 0.10183449922E+02 0.77475771572E+01 0.58155751080E+01 0.44186276582E+01 0.34740187685E+01
 0.28935046084E+01 0.26196102041E+01 0.26196102325E+01 0.28935045703E+01 0.34740187893E+01
 0.44186276322E+01 0.58155751460E+01 0.77475770636E+01 0.10183449958E+02 0.12937958896E+02