  64  64   0   0
  0.2002393E+02  0.1086200E-08  0.1086200E-08  0.1086200E-08  0.5000000E-15
  1.000000000000000E-004
  CAR 
 unknown system                          
     10.10548026     -6.90547677  301      5.91653209      1.00000000
     -6.905  0.0000E+00  0.0000E+00
     -6.849  0.0000E+00  0.0000E+00
     -6.792  0.0000E+00  0.0000E+00
     -6.735  0.0000E+00  0.0000E+00
     -6.679  0.0000E+00  0.0000E+00
     -6.622  0.0000E+00  0.0000E+00
     -6.565  0.0000E+00  0.0000E+00
     -6.509  0.0000E+00  0.0000E+00
     -6.452  0.0000E+00  0.0000E+00
     -6.395  0.0000E+00  0.0000E+00
     -6.338  0.0000E+00  0.0000E+00
     -6.282  0.0000E+00  0.0000E+00
     -6.225  0.0000E+00  0.0000E+00
     -6.168  0.9211E-07  0.5223E-08
     -6.112  0.5501E+00  0.3119E-01
     -6.055  0.2969E+01  0.1996E+00
     -5.998  0.2769E+01  0.3566E+00
     -5.942  0.4312E+01  0.6011E+00
     -5.885  0.4280E+01  0.8438E+00
     -5.828  0.3306E+01  0.1031E+01
     -5.771  0.1321E+02  0.1780E+01
     -5.715  0.1246E+02  0.2486E+01
     -5.658  0.7918E+00  0.2531E+01
     -5.601  0.6248E+00  0.2567E+01
     -5.545  0.6072E+01  0.2911E+01
     -5.488  0.1645E+02  0.3844E+01
     -5.431  0.1322E+02  0.4593E+01
     -5.374  0.1308E+02  0.5335E+01
     -5.318  0.4471E+01  0.5589E+01
     -5.261  0.6443E+01  0.5954E+01
     -5.204  0.1216E+02  0.6644E+01
     -5.148  0.2116E+02  0.7844E+01
     -5.091  0.2330E-07  0.7844E+01
     -5.034  0.3286E+01  0.8030E+01
     -4.978  0.2556E+02  0.9480E+01
     -4.921  0.1815E+02  0.1051E+02
     -4.864  0.1576E+02  0.1140E+02
     -4.807  0.3629E+01  0.1161E+02
     -4.751  0.1569E+02  0.1250E+02
     -4.694  0.3356E+02  0.1440E+02
     -4.637  0.9521E-01  0.1441E+02
     -4.581  0.3398E+01  0.1460E+02
     -4.524  0.9834E+01  0.1516E+02
     -4.467  0.1352E+02  0.1592E+02
     -4.411  0.3416E+02  0.1786E+02
     -4.354  0.1333E+02  0.1862E+02
     -4.297  0.3630E+02  0.2067E+02
     -4.240  0.3228E+01  0.2086E+02
     -4.184  0.1695E+02  0.2182E+02
     -4.127  0.2248E+02  0.2309E+02
     -4.070  0.1988E+02  0.2422E+02
     -4.014  0.2640E+02  0.2572E+02
     -3.957  0.1067E+02  0.2632E+02
     -3.900  0.4173E+02  0.2869E+02
     -3.844  0.1206E+02  0.2937E+02
     -3.787  0.3032E+02  0.3109E+02
     -3.730  0.3124E+01  0.3127E+02
     -3.673  0.2796E+02  0.3285E+02
     -3.617  0.2517E+02  0.3428E+02
     -3.560  0.6605E+02  0.3803E+02
     -3.503  0.2919E+02  0.3968E+02
     -3.447  0.1057E+02  0.4028E+02
     -3.390  0.2391E+02  0.4164E+02
     -3.333  0.2571E+01  0.4178E+02
     -3.276  0.6647E+02  0.4555E+02
     -3.220  0.1414E+02  0.4635E+02
     -3.163  0.1314E+02  0.4710E+02
     -3.106  0.5422E+01  0.4741E+02
     -3.050  0.2643E+02  0.4890E+02
     -2.993  0.1324E+02  0.4966E+02
     -2.936  0.1159E-01  0.4966E+02
     -2.880  0.1880E+02  0.5072E+02
     -2.823  0.3734E+02  0.5284E+02
     -2.766  0.1953E+02  0.5395E+02
     -2.709  0.3477E+02  0.5592E+02
     -2.653  0.3720E+02  0.5803E+02
     -2.596  0.2096E+02  0.5922E+02
     -2.539  0.6637E+01  0.5959E+02
     -2.483  0.0000E+00  0.5959E+02
     -2.426  0.8653E+00  0.5964E+02
     -2.369  0.1897E+02  0.6072E+02
     -2.313  0.6987E-13  0.6072E+02
     -2.256  0.7803E+01  0.6116E+02
     -2.199  0.5423E+01  0.6147E+02
     -2.142  0.7364E+01  0.6189E+02
     -2.086  0.5863E+01  0.6222E+02
     -2.029  0.6613E+01  0.6259E+02
     -1.972  0.5994E+01  0.6293E+02
     -1.916  0.1378E+02  0.6371E+02
     -1.859  0.1174E+02  0.6438E+02
     -1.802  0.2469E+02  0.6578E+02
     -1.745  0.6457E-02  0.6578E+02
     -1.689  0.9169E-01  0.6579E+02
     -1.632  0.1314E+02  0.6653E+02
     -1.575  0.0000E+00  0.6653E+02
     -1.519  0.5530E-10  0.6653E+02
     -1.462  0.1151E+02  0.6718E+02
     -1.405  0.2873E+01  0.6735E+02
     -1.349  0.5453E+01  0.6766E+02
     -1.292  0.1022E-01  0.6766E+02
     -1.235  0.1322E+02  0.6841E+02
     -1.178  0.1776E-06  0.6841E+02
     -1.122  0.1653E+02  0.6934E+02
     -1.065  0.7444E+02  0.7356E+02
     -1.008  0.7219E+02  0.7766E+02
     -0.952  0.6471E+02  0.8133E+02
     -0.895  0.1571E+02  0.8222E+02
     -0.838  0.6435E+02  0.8587E+02
     -0.782  0.2823E+02  0.8747E+02
     -0.725  0.1305E+02  0.8821E+02
     -0.668  0.2874E+01  0.8837E+02
     -0.611  0.1197E+02  0.8905E+02
     -0.555  0.3539E+02  0.9106E+02
     -0.498  0.4899E+02  0.9384E+02
     -0.441  0.2656E+02  0.9534E+02
     -0.385  0.1325E+02  0.9609E+02
     -0.328  0.1063E-01  0.9609E+02
     -0.271  0.2398E+01  0.9623E+02
     -0.215  0.2771E+02  0.9780E+02
     -0.158  0.9587E+01  0.9834E+02
     -0.101  0.1759E+02  0.9934E+02
     -0.044  0.3437E+02  0.1013E+03
      0.012  0.5399E+02  0.1044E+03
      0.069  0.1757E+02  0.1053E+03
      0.126  0.3214E+01  0.1055E+03
      0.182  0.0000E+00  0.1055E+03
      0.239  0.4021E-03  0.1055E+03
      0.296  0.1323E+02  0.1063E+03
      0.353  0.4964E+01  0.1066E+03
      0.409  0.1649E+01  0.1067E+03
      0.466  0.4058E+01  0.1069E+03
      0.523  0.3482E+02  0.1089E+03
      0.579  0.3983E+02  0.1111E+03
      0.636  0.6524E+00  0.1112E+03
      0.693  0.1328E-02  0.1112E+03
      0.749  0.1323E+02  0.1119E+03
      0.806  0.0000E+00  0.1119E+03
      0.863  0.5158E-02  0.1119E+03
      0.920  0.1328E+02  0.1127E+03
      0.976  0.1317E+02  0.1134E+03
      1.033  0.1660E-02  0.1134E+03
      1.090  0.1323E+02  0.1142E+03
      1.146  0.7094E-04  0.1142E+03
      1.203  0.5012E+02  0.1170E+03
      1.260  0.6086E+01  0.1173E+03
      1.316  0.0000E+00  0.1173E+03
      1.373  0.0000E+00  0.1173E+03
      1.430  0.1154E+01  0.1174E+03
      1.487  0.1539E+02  0.1183E+03
      1.543  0.2004E+02  0.1194E+03
      1.600  0.8817E+01  0.1199E+03
      1.657  0.2792E+02  0.1215E+03
      1.713  0.5055E+02  0.1244E+03
      1.770  0.5340E+02  0.1274E+03
      1.827  0.1600E+02  0.1283E+03
      1.884  0.5175E+02  0.1312E+03
      1.940  0.4290E+02  0.1337E+03
      1.997  0.3822E+02  0.1358E+03
      2.054  0.9525E+01  0.1364E+03
      2.110  0.5898E+02  0.1397E+03
      2.167  0.2683E+02  0.1412E+03
      2.224  0.1281E+02  0.1420E+03
      2.280  0.4791E+00  0.1420E+03
      2.337  0.3835E+02  0.1442E+03
      2.394  0.8456E+02  0.1490E+03
      2.451  0.1900E+02  0.1500E+03
      2.507  0.4216E+02  0.1524E+03
      2.564  0.5010E+02  0.1553E+03
      2.621  0.1870E+02  0.1563E+03
      2.677  0.4169E+02  0.1587E+03
      2.734  0.2183E+02  0.1599E+03
      2.791  0.3189E+02  0.1617E+03
      2.847  0.1833E+02  0.1628E+03
      2.904  0.7440E+02  0.1670E+03
      2.961  0.1859E+02  0.1681E+03
      3.018  0.5624E+02  0.1712E+03
      3.074  0.4017E+02  0.1735E+03
      3.131  0.9875E+02  0.1791E+03
      3.188  0.4577E+02  0.1817E+03
      3.244  0.1399E+02  0.1825E+03
      3.301  0.4580E+02  0.1851E+03
      3.358  0.6612E+02  0.1889E+03
      3.415  0.2236E+02  0.1901E+03
      3.471  0.4557E+02  0.1927E+03
      3.528  0.6506E+02  0.1964E+03
      3.585  0.2879E+02  0.1980E+03
      3.641  0.3960E+02  0.2003E+03
      3.698  0.6920E+02  0.2042E+03
      3.755  0.3694E+02  0.2063E+03
      3.811  0.2888E+02  0.2079E+03
      3.868  0.2381E+02  0.2093E+03
      3.925  0.4780E+02  0.2120E+03
      3.982  0.3564E+02  0.2140E+03
      4.038  0.5917E+02  0.2174E+03
      4.095  0.7130E+02  0.2214E+03
      4.152  0.1384E+02  0.2222E+03
      4.208  0.4757E+02  0.2249E+03
      4.265  0.3384E+02  0.2268E+03
      4.322  0.1938E+02  0.2279E+03
      4.378  0.3847E+02  0.2301E+03
      4.435  0.2792E+02  0.2317E+03
      4.492  0.1043E+02  0.2323E+03
      4.549  0.4815E+02  0.2350E+03
      4.605  0.9253E+02  0.2402E+03
      4.662  0.4081E+02  0.2426E+03
      4.719  0.6256E+00  0.2426E+03
      4.775  0.4231E+02  0.2450E+03
      4.832  0.1277E+02  0.2457E+03
      4.889  0.7478E-08  0.2457E+03
      4.945  0.1280E+02  0.2464E+03
      5.002  0.9761E+01  0.2470E+03
      5.059  0.4944E+02  0.2498E+03
      5.116  0.2801E+02  0.2514E+03
      5.172  0.1401E+01  0.2515E+03
      5.229  0.6393E-11  0.2515E+03
      5.286  0.1076E+02  0.2521E+03
      5.342  0.9082E+01  0.2526E+03
      5.399  0.1198E+02  0.2533E+03
      5.456  0.1778E+02  0.2543E+03
      5.513  0.2827E-01  0.2543E+03
      5.569  0.2105E+02  0.2555E+03
      5.626  0.9710E+00  0.2555E+03
      5.683  0.0000E+00  0.2555E+03
      5.739  0.8962E-02  0.2555E+03
      5.796  0.6604E+01  0.2559E+03
      5.853  0.1653E+01  0.2560E+03
      5.909  0.0000E+00  0.2560E+03
      5.966  0.0000E+00  0.2560E+03
      6.023  0.0000E+00  0.2560E+03
      6.080  0.0000E+00  0.2560E+03
      6.136  0.0000E+00  0.2560E+03
      6.193  0.0000E+00  0.2560E+03
      6.250  0.0000E+00  0.2560E+03
      6.306  0.0000E+00  0.2560E+03
      6.363  0.2152E-07  0.2560E+03
      6.420  0.3278E+01  0.2562E+03
      6.476  0.3335E+01  0.2564E+03
      6.533  0.1219E+01  0.2564E+03
      6.590  0.2088E+01  0.2566E+03
      6.647  0.3319E+01  0.2568E+03
      6.703  0.6706E+01  0.2571E+03
      6.760  0.1314E+02  0.2579E+03
      6.817  0.1343E+02  0.2586E+03
      6.873  0.1634E+02  0.2596E+03
      6.930  0.2643E+02  0.2611E+03
      6.987  0.3306E+01  0.2612E+03
      7.044  0.1945E+02  0.2624E+03
      7.100  0.1288E+01  0.2624E+03
      7.157  0.2542E+02  0.2639E+03
      7.214  0.4165E+02  0.2662E+03
      7.270  0.1139E+02  0.2669E+03
      7.327  0.8239E-01  0.2669E+03
      7.384  0.3445E+02  0.2688E+03
      7.440  0.2714E+02  0.2704E+03
      7.497  0.3377E+01  0.2706E+03
      7.554  0.1068E+02  0.2712E+03
      7.611  0.1486E+02  0.2720E+03
      7.667  0.1988E+02  0.2731E+03
      7.724  0.8690E+02  0.2781E+03
      7.781  0.6610E+02  0.2818E+03
      7.837  0.2919E+02  0.2835E+03
      7.894  0.2931E+02  0.2851E+03
      7.951  0.2974E+02  0.2868E+03
      8.007  0.2685E+02  0.2883E+03
      8.064  0.4063E+02  0.2906E+03
      8.121  0.2211E+02  0.2919E+03
      8.178  0.6330E+02  0.2955E+03
      8.234  0.9999E+02  0.3012E+03
      8.291  0.5561E+02  0.3043E+03
      8.348  0.6263E+02  0.3079E+03
      8.404  0.3871E+02  0.3101E+03
      8.461  0.4668E+02  0.3127E+03
      8.518  0.1263E+02  0.3134E+03
      8.574  0.1959E+02  0.3145E+03
      8.631  0.1940E+01  0.3146E+03
      8.688  0.2475E+02  0.3160E+03
      8.745  0.6021E+02  0.3195E+03
      8.801  0.5900E+02  0.3228E+03
      8.858  0.1378E+02  0.3236E+03
      8.915  0.2672E+02  0.3251E+03
      8.971  0.1574E+02  0.3260E+03
      9.028  0.1994E+02  0.3271E+03
      9.085  0.1290E+02  0.3279E+03
      9.142  0.3304E+00  0.3279E+03
      9.198  0.0000E+00  0.3279E+03
      9.255  0.0000E+00  0.3279E+03
      9.312  0.5655E-02  0.3279E+03
      9.368  0.2199E+01  0.3280E+03
      9.425  0.0000E+00  0.3280E+03
      9.482  0.0000E+00  0.3280E+03
      9.538  0.0000E+00  0.3280E+03
      9.595  0.0000E+00  0.3280E+03
      9.652  0.0000E+00  0.3280E+03
      9.709  0.0000E+00  0.3280E+03
      9.765  0.0000E+00  0.3280E+03
      9.822  0.0000E+00  0.3280E+03
      9.879  0.0000E+00  0.3280E+03
      9.935  0.0000E+00  0.3280E+03
      9.992  0.0000E+00  0.3280E+03
     10.049  0.0000E+00  0.3280E+03
     10.105  0.0000E+00  0.3280E+03
