64   
1    

1    
  0.0100000000000000   0.0000000000000000   0.0000000000000000
  -0.1342563900    0.0000000000    0.0000000000
   0.0001663400    0.0000000000    0.0000000000
   0.0004550100    0.0000000000    0.0000000000
  -0.0000428800    0.0000000000    0.0000000000
   0.0004550100    0.0000000000    0.0000000000
  -0.0000428800    0.0000000000    0.0000000000
  -0.0039273900    0.0000000000    0.0000000000
   0.0001962400    0.0000000000    0.0000000000
   0.0019818500    0.0019399500    0.0009516300
   0.0019661900   -0.0019275500    0.0009412400
   0.0019818500   -0.0019399500   -0.0009516300
   0.0019661900    0.0019275500   -0.0009412400
   0.0003473200   -0.0006170800    0.0000792400
   0.0003478800    0.0006175000    0.0000794700
   0.0003473200    0.0006170800   -0.0000792400
   0.0003478800   -0.0006175000   -0.0000794700
  -0.0043099500   -0.0009532100   -0.0009532100
  -0.0000297000   -0.0000795000   -0.0000795000
  -0.0042983800   -0.0009396600    0.0009396600
  -0.0000268100   -0.0000790000    0.0000790000
  -0.0042983800    0.0009396600   -0.0009396600
  -0.0000268100    0.0000790000   -0.0000790000
  -0.0043099500    0.0009532100    0.0009532100
  -0.0000297000    0.0000795000    0.0000795000
   0.0019818500    0.0009516300    0.0019399500
   0.0019661900    0.0009412400   -0.0019275500
   0.0003473200    0.0000792400   -0.0006170800
   0.0003478800    0.0000794700    0.0006175000
   0.0019818500   -0.0009516300   -0.0019399500
   0.0019661900   -0.0009412400    0.0019275500
   0.0003473200   -0.0000792400    0.0006170800
   0.0003478800   -0.0000794700   -0.0006175000
   0.0328088200    0.0231300500    0.0231300500
  -0.0000777000    0.0003142300    0.0003142300
  -0.0005072600    0.0003166800    0.0004012100
   0.0002230000    0.0002092200    0.0002332200
  -0.0005072600    0.0004012100    0.0003166800
   0.0002230000    0.0002332200    0.0002092200
   0.0020892800    0.0002375200    0.0002375200
  -0.0001661500    0.0002437300    0.0002437300
   0.0002274600    0.0002126800   -0.0002395400
  -0.0005011700    0.0003117700   -0.0004060400
  -0.0000781100    0.0003141700   -0.0003141700
   0.0325013600    0.0225260500   -0.0225260500
  -0.0001667700    0.0002419200   -0.0002419200
   0.0020820700    0.0002353600   -0.0002353600
   0.0002274600    0.0002395400   -0.0002126800
  -0.0005011700    0.0004060400   -0.0003117700
   0.0002274600   -0.0002395400    0.0002126800
  -0.0005011700   -0.0004060400    0.0003117700
  -0.0001667700   -0.0002419200    0.0002419200
   0.0020820700   -0.0002353600    0.0002353600
  -0.0000781100   -0.0003141700    0.0003141700
   0.0325013600   -0.0225260500    0.0225260500
   0.0002274600   -0.0002126800    0.0002395400
  -0.0005011700   -0.0003117700    0.0004060400
   0.0020892800   -0.0002375200   -0.0002375200
  -0.0001661500   -0.0002437300   -0.0002437300
  -0.0005072600   -0.0004012100   -0.0003166800
   0.0002230000   -0.0002332200   -0.0002092200
  -0.0005072600   -0.0003166800   -0.0004012100
   0.0002230000   -0.0002092200   -0.0002332200
   0.0328088200   -0.0231300500   -0.0231300500
  -0.0000777000   -0.0003142300   -0.0003142300
