mesh: [     8,     8,     8 ]
nqpoint: 24     
reciprocal_lattice:
- [  -0.18412815,   0.18412815,   0.18412815 ] # a*
- [   0.18412815,  -0.18412815,   0.18412815 ] # b*
- [   0.18412815,   0.18412815,  -0.18412815 ] # c*
natom:   2      
lattice:
- [     0.000000000000000,     2.715500000000000,     2.715500000000000 ] # a
- [     2.715500000000000,     0.000000000000000,     2.715500000000000 ] # b
- [     2.715500000000000,     2.715500000000000,     0.000000000000000 ] # c
points:
- symbol: Si # 1
  coordinates: [  0.000000000000000,  0.000000000000000,  0.000000000000000 ]
  mass: 28.085500
- symbol: Si # 2
  coordinates: [  0.250000000000000,  0.250000000000000,  0.250000000000000 ]
  mass: 28.085500
phonon:
- q-position: [    0.0625000,    0.0625000,    0.0625000 ]
  distance_from_gamma:  0.019932457
  weight: 1    
  band:
  - # 1
    frequency:     0.8732455895
  - # 2
    frequency:     0.8732455895
  - # 3
    frequency:     1.7612958336
  - # 4
    frequency:    15.2807206006
  - # 5
    frequency:    15.3217573511
  - # 6
    frequency:    15.3217573511

- q-position: [    0.1875000,    0.0625000,    0.0625000 ]
  distance_from_gamma:  0.050162251
  weight: 12   
  band:
  - # 1
    frequency:     1.9992356325
  - # 2
    frequency:     2.3755869824
  - # 3
    frequency:     4.2209462647
  - # 4
    frequency:    14.8786884395
  - # 5
    frequency:    15.0072047989
  - # 6
    frequency:    15.1487311742

- q-position: [    0.3125000,    0.0625000,    0.0625000 ]
  distance_from_gamma:  0.088394699
  weight: 12   
  band:
  - # 1
    frequency:     3.0248583092
  - # 2
    frequency:     3.2984949896
  - # 3
    frequency:     7.2460460109
  - # 4
    frequency:    14.0288915133
  - # 5
    frequency:    14.7183786794
  - # 6
    frequency:    14.7915434568

- q-position: [    0.4375000,    0.0625000,    0.0625000 ]
  distance_from_gamma:  0.127630000
  weight: 12   
  band:
  - # 1
    frequency:     3.3547013322
  - # 2
    frequency:     3.5179694293
  - # 3
    frequency:     9.8602479886
  - # 4
    frequency:    13.0197330305
  - # 5
    frequency:    14.6043749657
  - # 6
    frequency:    14.6412642531

- q-position: [   -0.4375000,    0.0625000,    0.0625000 ]
  distance_from_gamma:  0.153966675
  weight: 6    
  band:
  - # 1
    frequency:     3.3271249829
  - # 2
    frequency:     3.5553691056
  - # 3
    frequency:    11.0037271416
  - # 4
    frequency:    12.3588385453
  - # 5
    frequency:    14.5825095313
  - # 6
    frequency:    14.6432334525

- q-position: [    0.1875000,    0.1875000,    0.0625000 ]
  distance_from_gamma:  0.059797372
  weight: 2    
  band:
  - # 1
    frequency:     2.6785142207
  - # 2
    frequency:     2.7629735348
  - # 3
    frequency:     4.8523803129
  - # 4
    frequency:    14.7273113391
  - # 5
    frequency:    14.7762685010
  - # 6
    frequency:    15.1039080437

- q-position: [    0.3125000,    0.1875000,    0.0625000 ]
  distance_from_gamma:  0.088394699
  weight: 42   
  band:
  - # 1
    frequency:     3.4795535268
  - # 2
    frequency:     3.9914782471
  - # 3
    frequency:     6.7372843324
  - # 4
    frequency:    14.1154461424
  - # 5
    frequency:    14.4632525878
  - # 6
    frequency:    14.7693910472

- q-position: [    0.4375000,    0.1875000,    0.0625000 ]
  distance_from_gamma:  0.123409654
  weight: 49   
  band:
  - # 1
    frequency:     3.8179565233
  - # 2
    frequency:     4.7811623233
  - # 3
    frequency:     8.8074671294
  - # 4
    frequency:    13.1346737602
  - # 5
    frequency:    14.3128580922
  - # 6
    frequency:    14.5438628291

- q-position: [    0.5625000,    0.1875000,    0.0625000 ]
  distance_from_gamma:  0.160700608
  weight: 49   
  band:
  - # 1
    frequency:     3.8969899574
  - # 2
    frequency:     4.8800143723
  - # 3
    frequency:    10.4640426516
  - # 4
    frequency:    12.0039553990
  - # 5
    frequency:    14.2664663766
  - # 6
    frequency:    14.5612851263

- q-position: [   -0.3125000,    0.1875000,    0.0625000 ]
  distance_from_gamma:  0.135677432
  weight: 13   
  band:
  - # 1
    frequency:     3.9148247262
  - # 2
    frequency:     4.8526396812
  - # 3
    frequency:     9.4487244293
  - # 4
    frequency:    12.5961153971
  - # 5
    frequency:    14.3097643293
  - # 6
    frequency:    14.5877323948

- q-position: [   -0.1875000,    0.1875000,    0.0625000 ]
  distance_from_gamma:  0.099662286
  weight: 13   
  band:
  - # 1
    frequency:     3.5647732682
  - # 2
    frequency:     4.5494145098
  - # 3
    frequency:     7.2791684594
  - # 4
    frequency:    13.6958120398
  - # 5
    frequency:    14.5593081882
  - # 6
    frequency:    14.6207722863

- q-position: [    0.3125000,    0.3125000,    0.0625000 ]
  distance_from_gamma:  0.104842957
  weight: 2    
  band:
  - # 1
    frequency:     3.9616963737
  - # 2
    frequency:     4.1668204657
  - # 3
    frequency:     7.9761735948
  - # 4
    frequency:    13.9901103488
  - # 5
    frequency:    14.0602081708
  - # 6
    frequency:    14.5330657356

- q-position: [    0.4375000,    0.3125000,    0.0625000 ]
  distance_from_gamma:  0.131715190
  weight: 28   
  band:
  - # 1
    frequency:     4.3613279417
  - # 2
    frequency:     4.8940495871
  - # 3
    frequency:     9.1757251605
  - # 4
    frequency:    13.3191627220
  - # 5
    frequency:    13.9899664609
  - # 6
    frequency:    14.2127787468

- q-position: [    0.5625000,    0.3125000,    0.0625000 ]
  distance_from_gamma:  0.163963898
  weight: 37   
  band:
  - # 1
    frequency:     4.4359957755
  - # 2
    frequency:     5.9852206091
  - # 3
    frequency:     9.9403630362
  - # 4
    frequency:    11.9921991532
  - # 5
    frequency:    13.8987028019
  - # 6
    frequency:    14.3197981890

- q-position: [   -0.3125000,    0.3125000,    0.0625000 ]
  distance_from_gamma:  0.163963898
  weight: 38   
  band:
  - # 1
    frequency:     4.5061764302
  - # 2
    frequency:     6.2988660534
  - # 3
    frequency:     9.7710871967
  - # 4
    frequency:    11.4824380934
  - # 5
    frequency:    13.9060268284
  - # 6
    frequency:    14.4921384173

- q-position: [   -0.1875000,    0.3125000,    0.0625000 ]
  distance_from_gamma:  0.131715190
  weight: 9    
  band:
  - # 1
    frequency:     4.1756841211
  - # 2
    frequency:     5.5720605934
  - # 3
    frequency:     8.6589363941
  - # 4
    frequency:    12.5962630599
  - # 5
    frequency:    14.1940775640
  - # 6
    frequency:    14.5743175863

- q-position: [    0.4375000,    0.4375000,    0.0625000 ]
  distance_from_gamma:  0.150486752
  weight: 2    
  band:
  - # 1
    frequency:     4.2694525198
  - # 2
    frequency:     4.4767845102
  - # 3
    frequency:    10.5976287550
  - # 4
    frequency:    13.2899925753
  - # 5
    frequency:    13.7989584318
  - # 6
    frequency:    13.9061465165

- q-position: [    0.5625000,    0.4375000,    0.0625000 ]
  distance_from_gamma:  0.176414446
  weight: 29   
  band:
  - # 1
    frequency:     4.4986068600
  - # 2
    frequency:     4.9977483587
  - # 3
    frequency:    11.2833832890
  - # 4
    frequency:    12.1395460225
  - # 5
    frequency:    13.8252228967
  - # 6
    frequency:    13.9877281015

- q-position: [   -0.3125000,   -0.5625000,    0.0625000 ]
  distance_from_gamma:  0.185203887
  weight: 7    
  band:
  - # 1
    frequency:     4.5753774899
  - # 2
    frequency:     6.1887245378
  - # 3
    frequency:    10.5632875773
  - # 4
    frequency:    11.3427407430
  - # 5
    frequency:    13.7977401346
  - # 6
    frequency:    14.2766341752

- q-position: [    0.4375000,    0.3125000,    0.1875000 ]
  distance_from_gamma:  0.119039777
  weight: 19   
  band:
  - # 1
    frequency:     4.1887349440
  - # 2
    frequency:     5.0472570977
  - # 3
    frequency:     8.1888542891
  - # 4
    frequency:    13.2074813967
  - # 5
    frequency:    14.3252117774
  - # 6
    frequency:    14.4479625279

- q-position: [    0.5625000,    0.3125000,    0.1875000 ]
  distance_from_gamma:  0.150486752
  weight: 30   
  band:
  - # 1
    frequency:     4.7391614491
  - # 2
    frequency:     5.8551552784
  - # 3
    frequency:     9.2879101245
  - # 4
    frequency:    12.0437073430
  - # 5
    frequency:    14.0232470951
  - # 6
    frequency:    14.4226403544

- q-position: [   -0.3125000,    0.3125000,    0.1875000 ]
  distance_from_gamma:  0.173385647
  weight: 17   
  band:
  - # 1
    frequency:     4.7795886867
  - # 2
    frequency:     5.9875441074
  - # 3
    frequency:    10.0326555689
  - # 4
    frequency:    11.5052892186
  - # 5
    frequency:    13.9639918345
  - # 6
    frequency:    14.3563865208

- q-position: [    0.5625000,    0.4375000,    0.1875000 ]
  distance_from_gamma:  0.160700608
  weight: 19   
  band:
  - # 1
    frequency:     4.9544607047
  - # 2
    frequency:     5.5684225017
  - # 3
    frequency:     9.9145502623
  - # 4
    frequency:    12.1590315141
  - # 5
    frequency:    13.9472199656
  - # 6
    frequency:    14.1383821053

- q-position: [    0.6875000,    0.4375000,    0.1875000 ]
  distance_from_gamma:  0.190838749
  weight: 64   
  band:
  - # 1
    frequency:     5.5834932697
  - # 2
    frequency:     6.0851673881
  - # 3
    frequency:    10.3542912999
  - # 4
    frequency:    10.9579180242
  - # 5
    frequency:    13.9103082333
  - # 6
    frequency:    14.0923968387

