       N       E                     dE             d eps       ncg     rms          rms(c)
DAV:   1     0.103450523685E+04    0.10345E+04   -0.30014E+02  6888   0.514E+00    0.686E+02
DAV:   2    -0.514701100048E+03   -0.15492E+04   -0.91835E+03  8500   0.196E+02    0.251E+02
DAV:   3    -0.452270838851E+03    0.62430E+02   -0.56414E+02  8680   0.453E+01    0.197E+02
DAV:   4    -0.349797626847E+03    0.10247E+03   -0.14782E+02  8096   0.205E+01    0.595E+01
DAV:   5    -0.346470124603E+03    0.33275E+01   -0.32706E+01  8816   0.904E+00    0.104E+01
DAV:   6    -0.346602631978E+03   -0.13251E+00   -0.21349E+00  8052   0.284E+00    0.675E+00
DAV:   7    -0.346989254871E+03   -0.38662E+00   -0.40497E-01  8032   0.124E+00    0.537E+00
DAV:   8    -0.347035978981E+03   -0.46724E-01   -0.58308E-01  7988   0.136E+00    0.106E+00
DAV:   9    -0.347038566085E+03   -0.25871E-02   -0.52860E-02  8092   0.507E-01    0.117E+00
DAV:  10    -0.347031307712E+03    0.72584E-02   -0.25683E-02  8688   0.388E-01    0.487E-01
DAV:  11    -0.347031258690E+03    0.49022E-04   -0.71440E-03  7920   0.184E-01    0.265E-01
DAV:  12    -0.347031199926E+03    0.58764E-04   -0.69562E-04  8208   0.455E-02    0.202E-01
DAV:  13    -0.347031101078E+03    0.98848E-04   -0.27336E-04  9088   0.417E-02    0.793E-02
DAV:  14    -0.347031120474E+03   -0.19396E-04   -0.21075E-04  8384   0.263E-02    0.187E-02
DAV:  15    -0.347031118551E+03    0.19231E-05   -0.19935E-05  7824   0.791E-03    0.254E-02
DAV:  16    -0.347031118733E+03   -0.18261E-06   -0.13366E-06  8168   0.237E-03    0.115E-02
DAV:  17    -0.347031117836E+03    0.89730E-06   -0.17733E-06  8264   0.341E-03    0.244E-03
DAV:  18    -0.347031118472E+03   -0.63584E-06   -0.93716E-07  8232   0.178E-03    0.131E-03
DAV:  19    -0.347031118555E+03   -0.82880E-07   -0.35322E-08  6464   0.383E-04    0.174E-03
DAV:  20    -0.347031118487E+03    0.67881E-07   -0.71759E-09  4528   0.241E-04    0.101E-03
DAV:  21    -0.347031118455E+03    0.32007E-07   -0.86810E-09  4224   0.176E-04    0.125E-04
DAV:  22    -0.347031118435E+03    0.19936E-07   -0.12244E-09  4200   0.859E-05    0.135E-04
DAV:  23    -0.347031118436E+03   -0.14443E-08   -0.19199E-10  4136   0.482E-05
   1 F= -.34703112E+03 E0= -.34703112E+03  d E =-.107309E-39
