 vasp.5.4.4.18Apr17-6-g9f103f2a35 (build Aug 27 2018 20:03:23) complex          
  
 executed on             LinuxIFC date 2018.09.11  10:06:59
 running on    4 total cores
 distrk:  each k-point on    4 cores,    1 groups
 distr:  one band on NCORES_PER_BAND=   1 cores,    4 groups


--------------------------------------------------------------------------------------------------------


 INCAR:
 POTCAR:    PAW_PBE Si 05Jan2001                  
 POTCAR:    PAW_PBE Si 05Jan2001                  
   VRHFIN =Si: s2p2                                                             
   LEXCH  = PE                                                                  
   EATOM  =   103.0669 eV,    7.5752 Ry                                         
                                                                                
   TITEL  = PAW_PBE Si 05Jan2001                                                
   LULTRA =        F    use ultrasoft PP ?                                      
   IUNSCR =        1    unscreen: 0-lin 1-nonlin 2-no                           
   RPACOR =    1.500    partial core radius                                     
   POMASS =   28.085; ZVAL   =    4.000    mass and valenz                      
   RCORE  =    1.900    outmost cutoff radius                                   
   RWIGS  =    2.480; RWIGS  =    1.312    wigner-seitz radius (au A)           
   ENMAX  =  245.345; ENMIN  =  184.009 eV                                      
   ICORE  =        2    local potential                                         
   LCOR   =        T    correct aug charges                                     
   LPAW   =        T    paw PP                                                  
   EAUG   =  322.069                                                            
   DEXC   =    0.000                                                            
   RMAX   =    1.950    core radius for proj-oper                               
   RAUG   =    1.300    factor for augmentation sphere                          
   RDEP   =    1.993    radius for radial grids                                 
   RDEPT  =    1.837    core radius for aug-charge                              
                                                                                
   Atomic configuration                                                         
    6 entries                                                                   
     n  l   j            E        occ.                                          
     1  0  0.50     -1785.8828   2.0000                                         
     2  0  0.50      -139.4969   2.0000                                         
     2  1  1.50       -95.5546   6.0000                                         
     3  0  0.50       -10.8127   2.0000                                         
     3  1  0.50        -4.0811   2.0000                                         
     3  2  1.50        -4.0817   0.0000                                         
   Description                                                                  
     l       E           TYP  RCUT    TYP  RCUT                                 
     0    -10.8127223     23  1.900                                             
     0     -7.6451159     23  1.900                                             
     1     -4.0811372     23  1.900                                             
     1      2.4879257     23  1.900                                             
     2     -4.0817478      7  1.900                                             
  local pseudopotential read in
  partial core-charges read in
  partial kinetic energy density read in
  atomic valenz-charges read in
  non local Contribution for L=           0  read in
    real space projection operators read in
  non local Contribution for L=           0  read in
    real space projection operators read in
  non local Contribution for L=           1  read in
    real space projection operators read in
  non local Contribution for L=           1  read in
    real space projection operators read in
    PAW grid and wavefunctions read in
 
   number of l-projection  operators is LMAX  =           4
   number of lm-projection operators is LMMAX =           8
 

 ----------------------------------------------------------------------------- 
|                                                                             |
|  ADVICE TO THIS USER RUNNING 'VASP/VAMP'   (HEAR YOUR MASTER'S VOICE ...):  |
|                                                                             |
|      You have a (more or less) 'large supercell' and for larger cells       |
|      it might be more efficient to use real space projection opertators     |
|      So try LREAL= Auto  in the INCAR   file.                               |
|      Mind:          For very  accurate calculation you might also keep the  |
|      reciprocal projection scheme          (i.e. LREAL=.FALSE.)             |
|                                                                             |
 ----------------------------------------------------------------------------- 

  PAW_PBE Si 05Jan2001                  :
 energy of atom  1       EATOM= -103.0669
 kinetic energy error for atom=    0.0012 (will be added to EATOM!!)
 
 
 POSCAR: generated by phonopy                    
  positions in direct lattice
  No initial velocities read in
 exchange correlation table for  LEXCH =        8
   RHO(1)=    0.500       N(1)  =     2000
   RHO(2)=  100.500       N(2)  =     4000
 


--------------------------------------------------------------------------------------------------------


 ion  position               nearest neighbor table
   1  0.001  0.000  0.000-  33 2.35  63 2.35  54 2.36  44 2.36
   2  0.500  0.000  0.000-  34 2.35  43 2.35  53 2.35  64 2.35
   3  0.000  0.500  0.000-  35 2.35  42 2.35  56 2.35  61 2.35
   4  0.500  0.500  0.000-  36 2.35  41 2.35  55 2.35  62 2.35
   5  0.000  0.000  0.500-  37 2.35  48 2.35  50 2.35  59 2.35
   6  0.500  0.000  0.500-  38 2.35  47 2.35  49 2.35  60 2.35
   7  0.000  0.500  0.500-  39 2.35  46 2.35  52 2.35  57 2.35
   8  0.500  0.500  0.500-  40 2.35  45 2.35  51 2.35  58 2.35
   9  0.250  0.250  0.000-  33 2.35  41 2.35  53 2.35  61 2.35
  10  0.750  0.250  0.000-  34 2.35  42 2.35  54 2.35  62 2.35
  11  0.250  0.750  0.000-  35 2.35  43 2.35  55 2.35  63 2.35
  12  0.750  0.750  0.000-  36 2.35  44 2.35  56 2.35  64 2.35
  13  0.250  0.250  0.500-  37 2.35  45 2.35  49 2.35  57 2.35
  14  0.750  0.250  0.500-  38 2.35  46 2.35  50 2.35  58 2.35
  15  0.250  0.750  0.500-  39 2.35  47 2.35  51 2.35  59 2.35
  16  0.750  0.750  0.500-  40 2.35  48 2.35  52 2.35  60 2.35
  17  0.000  0.250  0.250-  33 2.35  42 2.35  50 2.35  57 2.35
  18  0.500  0.250  0.250-  34 2.35  41 2.35  49 2.35  58 2.35
  19  0.000  0.750  0.250-  35 2.35  44 2.35  52 2.35  59 2.35
  20  0.500  0.750  0.250-  36 2.35  43 2.35  51 2.35  60 2.35
  21  0.000  0.250  0.750-  37 2.35  46 2.35  54 2.35  61 2.35
  22  0.500  0.250  0.750-  38 2.35  45 2.35  53 2.35  62 2.35
  23  0.000  0.750  0.750-  39 2.35  48 2.35  56 2.35  63 2.35
  24  0.500  0.750  0.750-  40 2.35  47 2.35  55 2.35  64 2.35
  25  0.250  0.000  0.250-  33 2.35  43 2.35  49 2.35  59 2.35
  26  0.750  0.000  0.250-  34 2.35  44 2.35  50 2.35  60 2.35
  27  0.250  0.500  0.250-  35 2.35  41 2.35  51 2.35  57 2.35
  28  0.750  0.500  0.250-  36 2.35  42 2.35  52 2.35  58 2.35
  29  0.250  0.000  0.750-  37 2.35  47 2.35  53 2.35  63 2.35
  30  0.750  0.000  0.750-  38 2.35  48 2.35  54 2.35  64 2.35
  31  0.250  0.500  0.750-  39 2.35  45 2.35  55 2.35  61 2.35
  32  0.750  0.500  0.750-  40 2.35  46 2.35  56 2.35  62 2.35
  33  0.125  0.125  0.125-   1 2.35   9 2.35  17 2.35  25 2.35
  34  0.625  0.125  0.125-   2 2.35  10 2.35  18 2.35  26 2.35
  35  0.125  0.625  0.125-   3 2.35  11 2.35  19 2.35  27 2.35
  36  0.625  0.625  0.125-   4 2.35  12 2.35  20 2.35  28 2.35
  37  0.125  0.125  0.625-   5 2.35  13 2.35  21 2.35  29 2.35
  38  0.625  0.125  0.625-   6 2.35  14 2.35  22 2.35  30 2.35
  39  0.125  0.625  0.625-   7 2.35  15 2.35  23 2.35  31 2.35
  40  0.625  0.625  0.625-   8 2.35  16 2.35  24 2.35  32 2.35
  41  0.375  0.375  0.125-   4 2.35   9 2.35  18 2.35  27 2.35
  42  0.875  0.375  0.125-   3 2.35  10 2.35  17 2.35  28 2.35
  43  0.375  0.875  0.125-   2 2.35  11 2.35  20 2.35  25 2.35
  44  0.875  0.875  0.125-  12 2.35  19 2.35  26 2.35   1 2.36
  45  0.375  0.375  0.625-   8 2.35  13 2.35  22 2.35  31 2.35
  46  0.875  0.375  0.625-   7 2.35  14 2.35  21 2.35  32 2.35
  47  0.375  0.875  0.625-   6 2.35  15 2.35  24 2.35  29 2.35
  48  0.875  0.875  0.625-   5 2.35  16 2.35  23 2.35  30 2.35
  49  0.375  0.125  0.375-   6 2.35  13 2.35  18 2.35  25 2.35
  50  0.875  0.125  0.375-   5 2.35  14 2.35  17 2.35  26 2.35
  51  0.375  0.625  0.375-   8 2.35  15 2.35  20 2.35  27 2.35
  52  0.875  0.625  0.375-   7 2.35  16 2.35  19 2.35  28 2.35
  53  0.375  0.125  0.875-   2 2.35   9 2.35  22 2.35  29 2.35
  54  0.875  0.125  0.875-  10 2.35  21 2.35  30 2.35   1 2.36
  55  0.375  0.625  0.875-   4 2.35  11 2.35  24 2.35  31 2.35
  56  0.875  0.625  0.875-   3 2.35  12 2.35  23 2.35  32 2.35
  57  0.125  0.375  0.375-   7 2.35  13 2.35  17 2.35  27 2.35
  58  0.625  0.375  0.375-   8 2.35  14 2.35  18 2.35  28 2.35
  59  0.125  0.875  0.375-   5 2.35  15 2.35  19 2.35  25 2.35
  60  0.625  0.875  0.375-   6 2.35  16 2.35  20 2.35  26 2.35
  61  0.125  0.375  0.875-   3 2.35   9 2.35  21 2.35  31 2.35
  62  0.625  0.375  0.875-   4 2.35  10 2.35  22 2.35  32 2.35
  63  0.125  0.875  0.875-   1 2.35  11 2.35  23 2.35  29 2.35
  64  0.625  0.875  0.875-   2 2.35  12 2.35  24 2.35  30 2.35
 
  LATTYP: Found a simple cubic cell.
 ALAT       =    10.8620000000
  
  Lattice vectors:
  
 A1 = (  10.8620000000,   0.0000000000,   0.0000000000)
 A2 = (   0.0000000000,  10.8620000000,   0.0000000000)
 A3 = (   0.0000000000,   0.0000000000,  10.8620000000)


Analysis of symmetry for initial positions (statically):
=====================================================================
 Subroutine PRICEL returns:
 Original cell was already a primitive cell.
 

 Routine SETGRP: Setting up the symmetry group for a 
 simple cubic supercell.


 Subroutine GETGRP returns: Found  4 space group operations
 (whereof  4 operations were pure point group operations)
 out of a pool of 48 trial point group operations.


The static configuration has the point symmetry C_2v.


Analysis of symmetry for dynamics (positions and initial velocities):
=====================================================================
 Subroutine PRICEL returns:
 Original cell was already a primitive cell.
 

 Routine SETGRP: Setting up the symmetry group for a 
 simple cubic supercell.


 Subroutine GETGRP returns: Found  4 space group operations
 (whereof  4 operations were pure point group operations)
 out of a pool of 48 trial point group operations.


The dynamic configuration has the point symmetry C_2v.


 Subroutine INISYM returns: Found  4 space group operations
 (whereof  4 operations are pure point group operations),
 and found     1 'primitive' translations

 
 
 KPOINTS: Automatic mesh                          

Automatic generation of k-mesh.
Space group operators:
 irot       det(A)        alpha          n_x          n_y          n_z        tau_x        tau_y        tau_z
    1     1.000000     0.000001     1.000000     0.000000     0.000000     0.000000     0.000000     0.000000
    2    -1.000000   180.000000     0.000000     0.707107     0.707107     0.000000     0.000000     0.000000
    3     1.000000   180.000000     1.000000     0.000000     0.000000     0.000000     0.000000     0.000000
    4    -1.000000   180.000000     0.000000    -0.707107     0.707107     0.000000     0.000000     0.000000
 
 Subroutine IBZKPT returns following result:
 ===========================================
 
 Found     21 irreducible k-points:
 
 Following reciprocal coordinates:
            Coordinates               Weight
  0.000000  0.000000  0.000000      1.000000
  0.250000  0.000000  0.000000      2.000000
  0.500000  0.000000  0.000000      1.000000
  0.000000  0.250000  0.000000      4.000000
  0.250000  0.250000  0.000000      8.000000
  0.500000  0.250000  0.000000      4.000000
  0.000000  0.500000  0.000000      2.000000
  0.250000  0.500000  0.000000      4.000000
  0.500000  0.500000  0.000000      2.000000
  0.000000  0.250000  0.250000      2.000000
  0.250000  0.250000  0.250000      4.000000
  0.500000  0.250000  0.250000      2.000000
  0.000000  0.500000  0.250000      4.000000
  0.250000  0.500000  0.250000      8.000000
  0.500000  0.500000  0.250000      4.000000
  0.000000 -0.250000  0.250000      2.000000
  0.250000 -0.250000  0.250000      4.000000
  0.500000 -0.250000  0.250000      2.000000
  0.000000  0.500000  0.500000      1.000000
  0.250000  0.500000  0.500000      2.000000
  0.500000  0.500000  0.500000      1.000000
 
 Following cartesian coordinates:
            Coordinates               Weight
  0.000000  0.000000  0.000000      1.000000
  0.023016  0.000000  0.000000      2.000000
  0.046032  0.000000  0.000000      1.000000
  0.000000  0.023016  0.000000      4.000000
  0.023016  0.023016  0.000000      8.000000
  0.046032  0.023016  0.000000      4.000000
  0.000000  0.046032  0.000000      2.000000
  0.023016  0.046032  0.000000      4.000000
  0.046032  0.046032  0.000000      2.000000
  0.000000  0.023016  0.023016      2.000000
  0.023016  0.023016  0.023016      4.000000
  0.046032  0.023016  0.023016      2.000000
  0.000000  0.046032  0.023016      4.000000
  0.023016  0.046032  0.023016      8.000000
  0.046032  0.046032  0.023016      4.000000
  0.000000 -0.023016  0.023016      2.000000
  0.023016 -0.023016  0.023016      4.000000
  0.046032 -0.023016  0.023016      2.000000
  0.000000  0.046032  0.046032      1.000000
  0.023016  0.046032  0.046032      2.000000
  0.046032  0.046032  0.046032      1.000000
 


--------------------------------------------------------------------------------------------------------




 Dimension of arrays:
   k-points           NKPTS =     21   k-points in BZ     NKDIM =     21   number of bands    NBANDS=    164
   number of dos      NEDOS =    301   number of ions     NIONS =     64
   non local maximal  LDIM  =      4   non local SUM 2l+1 LMDIM =      8
   total plane-waves  NPLWV = 373248
   max r-space proj   IRMAX =      1   max aug-charges    IRDMAX=  78094
   dimension x,y,z NGX =    72 NGY =   72 NGZ =   72
   dimension x,y,z NGXF=   144 NGYF=  144 NGZF=  144
   support grid    NGXF=   288 NGYF=  288 NGZF=  288
   ions per type =              64
   NGX,Y,Z   is equivalent  to a cutoff of  11.02, 11.02, 11.02 a.u.
   NGXF,Y,Z  is equivalent  to a cutoff of  22.04, 22.04, 22.04 a.u.

 SYSTEM =  unknown system                          
 POSCAR =  generated by phonopy                    

 Startparameter for this run:
   NWRITE =      2    write-flag & timer
   PREC   = accura    normal or accurate (medium, high low for compatibility)
   ISTART =      1    job   : 0-new  1-cont  2-samecut
   ICHARG =      0    charge: 1-file 2-atom 10-const
   ISPIN  =      1    spin polarized calculation?
   LNONCOLLINEAR =      F non collinear calculations
   LSORBIT =      F    spin-orbit coupling
   INIWAV =      1    electr: 0-lowe 1-rand  2-diag
   LASPH  =      F    aspherical Exc in radial PAW
   METAGGA=      F    non-selfconsistent MetaGGA calc.

 Electronic Relaxation 1
   ENCUT  =  400.0 eV  29.40 Ry    5.42 a.u.  17.71 17.71 17.71*2*pi/ulx,y,z
   ENINI  =  400.0     initial cutoff
   ENAUG  =  322.1 eV  augmentation charge cutoff
   NELM   =     60;   NELMIN=  5; NELMDL=  0     # of ELM steps 
   EDIFF  = 0.1E-07   stopping-criterion for ELM
   LREAL  =      F    real-space projection
   NLSPLINE    = F    spline interpolate recip. space projectors
   LCOMPAT=      F    compatible to vasp.4.4
   GGA_COMPAT  = T    GGA compatible to vasp.4.4-vasp.4.6
   LMAXPAW     = -100 max onsite density
   LMAXMIX     =    2 max onsite mixed and CHGCAR
   VOSKOWN=      0    Vosko Wilk Nusair interpolation
   ROPT   =    0.00000
 Ionic relaxation
   EDIFFG = 0.1E-06   stopping-criterion for IOM
   NSW    =      0    number of steps for IOM
   NBLOCK =      1;   KBLOCK =      1    inner block; outer block 
   IBRION =     -1    ionic relax: 0-MD 1-quasi-New 2-CG
   NFREE  =      0    steps in history (QN), initial steepest desc. (CG)
   ISIF   =      2    stress and relaxation
   IWAVPR =     10    prediction:  0-non 1-charg 2-wave 3-comb
   ISYM   =      2    0-nonsym 1-usesym 2-fastsym
   LCORR  =      T    Harris-Foulkes like correction to forces

   POTIM  = 0.5000    time-step for ionic-motion
   TEIN   =    0.0    initial temperature
   TEBEG  =    0.0;   TEEND  =   0.0 temperature during run
   SMASS  =  -3.00    Nose mass-parameter (am)
   estimated Nose-frequenzy (Omega)   =  0.10E-29 period in steps =****** mass=  -0.270E-26a.u.
   SCALEE = 1.0000    scale energy and forces
   NPACO  =    256;   APACO  = 16.0  distance and # of slots for P.C.
   PSTRESS=    0.0 pullay stress

  Mass of Ions in am
   POMASS =  28.09
  Ionic Valenz
   ZVAL   =   4.00
  Atomic Wigner-Seitz radii
   RWIGS  =  -1.00
  virtual crystal weights 
   VCA    =   1.00
   NELECT =     256.0000    total number of electrons
   NUPDOWN=      -1.0000    fix difference up-down

 DOS related values:
   EMIN   =  10.00;   EMAX   =-10.00  energy-range for DOS
   EFERMI =   0.00
   ISMEAR =     0;   SIGMA  =   0.01  broadening in eV -4-tet -1-fermi 0-gaus

 Electronic relaxation 2 (details)
   IALGO  =     38    algorithm
   LDIAG  =      T    sub-space diagonalisation (order eigenvalues)
   LSUBROT=      F    optimize rotation matrix (better conditioning)
   TURBO    =      0    0=normal 1=particle mesh
   IRESTART =      0    0=no restart 2=restart with 2 vectors
   NREBOOT  =      0    no. of reboots
   NMIN     =      0    reboot dimension
   EREF     =   0.00    reference energy to select bands
   IMIX   =      4    mixing-type and parameters
     AMIX     =   0.40;   BMIX     =  1.00
     AMIX_MAG =   1.60;   BMIX_MAG =  1.00
     AMIN     =   0.10
     WC   =   100.;   INIMIX=   1;  MIXPRE=   1;  MAXMIX= -45

 Intra band minimization:
   WEIMIN = 0.0000     energy-eigenvalue tresh-hold
   EBREAK =  0.15E-10  absolut break condition
   DEPER  =   0.30     relativ break condition  

   TIME   =   0.40     timestep for ELM

  volume/ion in A,a.u.               =      20.02       135.13
  Fermi-wavevector in a.u.,A,eV,Ry     =   0.956999  1.808467 12.460868  0.915848
  Thomas-Fermi vector in A             =   2.085978
 
 Write flags
   LWAVE        =      F    write WAVECAR
   LDOWNSAMPLE  =      F    k-point downsampling of WAVECAR
   LCHARG       =      F    write CHGCAR
   LVTOT        =      F    write LOCPOT, total local potential
   LVHAR        =      F    write LOCPOT, Hartree potential only
   LELF         =      F    write electronic localiz. function (ELF)
   LORBIT       =      0    0 simple, 1 ext, 2 COOP (PROOUT), +10 PAW based schemes


 Dipole corrections
   LMONO  =      F    monopole corrections only (constant potential shift)
   LDIPOL =      F    correct potential (dipole corrections)
   IDIPOL =      0    1-x, 2-y, 3-z, 4-all directions 
   EPSILON=  1.0000000 bulk dielectric constant

 Exchange correlation treatment:
   GGA     =    PE    GGA type
   LEXCH   =     8    internal setting for exchange type
   VOSKOWN=      0    Vosko Wilk Nusair interpolation
   LHFCALC =     F    Hartree Fock is set to
   LHFONE  =     F    Hartree Fock one center treatment
   AEXX    =    0.0000 exact exchange contribution

 Linear response parameters
   LEPSILON=     F    determine dielectric tensor
   LRPA    =     F    only Hartree local field effects (RPA)
   LNABLA  =     F    use nabla operator in PAW spheres
   LVEL    =     F    velocity operator in full k-point grid
   LINTERFAST=   F  fast interpolation
   KINTER  =     0    interpolate to denser k-point grid
   CSHIFT  =0.1000    complex shift for real part using Kramers Kronig
   OMEGAMAX=  -1.0    maximum frequency
   DEG_THRESHOLD= 0.2000000E-02 threshold for treating states as degnerate
   RTIME   =   -0.100 relaxation time in fs
  (WPLASMAI=    0.000 imaginary part of plasma frequency in eV, 0.658/RTIME)
   DFIELD  = 0.0000000 0.0000000 0.0000000 field for delta impulse in time
 
 Orbital magnetization related:
   ORBITALMAG=     F  switch on orbital magnetization
   LCHIMAG   =     F  perturbation theory with respect to B field
   DQ        =  0.001000  dq finite difference perturbation B field
   LLRAUG    =     F  two centre corrections for induced B field



--------------------------------------------------------------------------------------------------------


 Static calculation
 charge density and potential will be updated during run
 non-spin polarized calculation
 Variant of blocked Davidson
 Davidson routine will perform the subspace rotation
 perform sub-space diagonalisation
    after iterative eigenvector-optimisation
 modified Broyden-mixing scheme, WC =      100.0
 initial mixing is a Kerker type mixing with AMIX =  0.4000 and BMIX =      1.0000
 Hartree-type preconditioning will be used
 using additional bands           36
 reciprocal scheme for non local part
 use partial core corrections
 calculate Harris-corrections to forces 
   (improved forces if not selfconsistent)
 use gradient corrections 
 use of overlap-Matrix (Vanderbilt PP)
 Gauss-broadening in eV      SIGMA  =   0.01


--------------------------------------------------------------------------------------------------------


  energy-cutoff  :      400.00
  volume of cell :     1281.53
      direct lattice vectors                 reciprocal lattice vectors
    10.862000000  0.000000000  0.000000000     0.092064077  0.000000000  0.000000000
     0.000000000 10.862000000  0.000000000     0.000000000  0.092064077  0.000000000
     0.000000000  0.000000000 10.862000000     0.000000000  0.000000000  0.092064077

  length of vectors
    10.862000000 10.862000000 10.862000000     0.092064077  0.092064077  0.092064077


 
 old parameters found on file WAVECAR:
  energy-cutoff  :      600.00
  volume of cell :       40.05
      direct lattice vectors                 reciprocal lattice vectors
     0.000000000  2.715500000  2.715500000    -0.184128153  0.184128153  0.184128153
     2.715500000  0.000000000  2.715500000     0.184128153 -0.184128153  0.184128153
     2.715500000  2.715500000  0.000000000     0.184128153  0.184128153 -0.184128153

  length of vectors

 
 k-points in units of 2pi/SCALE and weight: Automatic mesh                          
   0.00000000  0.00000000  0.00000000       0.016
   0.02301602  0.00000000  0.00000000       0.031
   0.04603204  0.00000000  0.00000000       0.016
   0.00000000  0.02301602  0.00000000       0.062
   0.02301602  0.02301602  0.00000000       0.125
   0.04603204  0.02301602  0.00000000       0.062
   0.00000000  0.04603204  0.00000000       0.031
   0.02301602  0.04603204  0.00000000       0.062
   0.04603204  0.04603204  0.00000000       0.031
   0.00000000  0.02301602  0.02301602       0.031
   0.02301602  0.02301602  0.02301602       0.062
   0.04603204  0.02301602  0.02301602       0.031
   0.00000000  0.04603204  0.02301602       0.062
   0.02301602  0.04603204  0.02301602       0.125
   0.04603204  0.04603204  0.02301602       0.062
   0.00000000 -0.02301602  0.02301602       0.031
   0.02301602 -0.02301602  0.02301602       0.062
   0.04603204 -0.02301602  0.02301602       0.031
   0.00000000  0.04603204  0.04603204       0.016
   0.02301602  0.04603204  0.04603204       0.031
   0.04603204  0.04603204  0.04603204       0.016
 
 k-points in reciprocal lattice and weights: Automatic mesh                          
   0.00000000  0.00000000  0.00000000       0.016
   0.25000000  0.00000000  0.00000000       0.031
   0.50000000  0.00000000  0.00000000       0.016
   0.00000000  0.25000000  0.00000000       0.062
   0.25000000  0.25000000  0.00000000       0.125
   0.50000000  0.25000000  0.00000000       0.062
   0.00000000  0.50000000  0.00000000       0.031
   0.25000000  0.50000000  0.00000000       0.062
   0.50000000  0.50000000  0.00000000       0.031
   0.00000000  0.25000000  0.25000000       0.031
   0.25000000  0.25000000  0.25000000       0.062
   0.50000000  0.25000000  0.25000000       0.031
   0.00000000  0.50000000  0.25000000       0.062
   0.25000000  0.50000000  0.25000000       0.125
   0.50000000  0.50000000  0.25000000       0.062
   0.00000000 -0.25000000  0.25000000       0.031
   0.25000000 -0.25000000  0.25000000       0.062
   0.50000000 -0.25000000  0.25000000       0.031
   0.00000000  0.50000000  0.50000000       0.016
   0.25000000  0.50000000  0.50000000       0.031
   0.50000000  0.50000000  0.50000000       0.016
 
 position of ions in fractional coordinates (direct lattice) 
   0.00092064  0.00000000  0.00000000
   0.50000000  0.00000000  0.00000000
   0.00000000  0.50000000  0.00000000
   0.50000000  0.50000000  0.00000000
   0.00000000  0.00000000  0.50000000
   0.50000000  0.00000000  0.50000000
   0.00000000  0.50000000  0.50000000
   0.50000000  0.50000000  0.50000000
   0.25000000  0.25000000  0.00000000
   0.75000000  0.25000000  0.00000000
   0.25000000  0.75000000  0.00000000
   0.75000000  0.75000000  0.00000000
   0.25000000  0.25000000  0.50000000
   0.75000000  0.25000000  0.50000000
   0.25000000  0.75000000  0.50000000
   0.75000000  0.75000000  0.50000000
   0.00000000  0.25000000  0.25000000
   0.50000000  0.25000000  0.25000000
   0.00000000  0.75000000  0.25000000
   0.50000000  0.75000000  0.25000000
   0.00000000  0.25000000  0.75000000
   0.50000000  0.25000000  0.75000000
   0.00000000  0.75000000  0.75000000
   0.50000000  0.75000000  0.75000000
   0.25000000  0.00000000  0.25000000
   0.75000000  0.00000000  0.25000000
   0.25000000  0.50000000  0.25000000
   0.75000000  0.50000000  0.25000000
   0.25000000  0.00000000  0.75000000
   0.75000000  0.00000000  0.75000000
   0.25000000  0.50000000  0.75000000
   0.75000000  0.50000000  0.75000000
   0.12500000  0.12500000  0.12500000
   0.62500000  0.12500000  0.12500000
   0.12500000  0.62500000  0.12500000
   0.62500000  0.62500000  0.12500000
   0.12500000  0.12500000  0.62500000
   0.62500000  0.12500000  0.62500000
   0.12500000  0.62500000  0.62500000
   0.62500000  0.62500000  0.62500000
   0.37500000  0.37500000  0.12500000
   0.87500000  0.37500000  0.12500000
   0.37500000  0.87500000  0.12500000
   0.87500000  0.87500000  0.12500000
   0.37500000  0.37500000  0.62500000
   0.87500000  0.37500000  0.62500000
   0.37500000  0.87500000  0.62500000
   0.87500000  0.87500000  0.62500000
   0.37500000  0.12500000  0.37500000
   0.87500000  0.12500000  0.37500000
   0.37500000  0.62500000  0.37500000
   0.87500000  0.62500000  0.37500000
   0.37500000  0.12500000  0.87500000
   0.87500000  0.12500000  0.87500000
   0.37500000  0.62500000  0.87500000
   0.87500000  0.62500000  0.87500000
   0.12500000  0.37500000  0.37500000
   0.62500000  0.37500000  0.37500000
   0.12500000  0.87500000  0.37500000
   0.62500000  0.87500000  0.37500000
   0.12500000  0.37500000  0.87500000
   0.62500000  0.37500000  0.87500000
   0.12500000  0.87500000  0.87500000
   0.62500000  0.87500000  0.87500000
 
 position of ions in cartesian coordinates  (Angst):
   0.01000000  0.00000000  0.00000000
   5.43100000  0.00000000  0.00000000
   0.00000000  5.43100000  0.00000000
   5.43100000  5.43100000  0.00000000
   0.00000000  0.00000000  5.43100000
   5.43100000  0.00000000  5.43100000
   0.00000000  5.43100000  5.43100000
   5.43100000  5.43100000  5.43100000
   2.71550000  2.71550000  0.00000000
   8.14650000  2.71550000  0.00000000
   2.71550000  8.14650000  0.00000000
   8.14650000  8.14650000  0.00000000
   2.71550000  2.71550000  5.43100000
   8.14650000  2.71550000  5.43100000
   2.71550000  8.14650000  5.43100000
   8.14650000  8.14650000  5.43100000
   0.00000000  2.71550000  2.71550000
   5.43100000  2.71550000  2.71550000
   0.00000000  8.14650000  2.71550000
   5.43100000  8.14650000  2.71550000
   0.00000000  2.71550000  8.14650000
   5.43100000  2.71550000  8.14650000
   0.00000000  8.14650000  8.14650000
   5.43100000  8.14650000  8.14650000
   2.71550000  0.00000000  2.71550000
   8.14650000  0.00000000  2.71550000
   2.71550000  5.43100000  2.71550000
   8.14650000  5.43100000  2.71550000
   2.71550000  0.00000000  8.14650000
   8.14650000  0.00000000  8.14650000
   2.71550000  5.43100000  8.14650000
   8.14650000  5.43100000  8.14650000
   1.35775000  1.35775000  1.35775000
   6.78875000  1.35775000  1.35775000
   1.35775000  6.78875000  1.35775000
   6.78875000  6.78875000  1.35775000
   1.35775000  1.35775000  6.78875000
   6.78875000  1.35775000  6.78875000
   1.35775000  6.78875000  6.78875000
   6.78875000  6.78875000  6.78875000
   4.07325000  4.07325000  1.35775000
   9.50425000  4.07325000  1.35775000
   4.07325000  9.50425000  1.35775000
   9.50425000  9.50425000  1.35775000
   4.07325000  4.07325000  6.78875000
   9.50425000  4.07325000  6.78875000
   4.07325000  9.50425000  6.78875000
   9.50425000  9.50425000  6.78875000
   4.07325000  1.35775000  4.07325000
   9.50425000  1.35775000  4.07325000
   4.07325000  6.78875000  4.07325000
   9.50425000  6.78875000  4.07325000
   4.07325000  1.35775000  9.50425000
   9.50425000  1.35775000  9.50425000
   4.07325000  6.78875000  9.50425000
   9.50425000  6.78875000  9.50425000
   1.35775000  4.07325000  4.07325000
   6.78875000  4.07325000  4.07325000
   1.35775000  9.50425000  4.07325000
   6.78875000  9.50425000  4.07325000
   1.35775000  4.07325000  9.50425000
   6.78875000  4.07325000  9.50425000
   1.35775000  9.50425000  9.50425000
   6.78875000  9.50425000  9.50425000
 


--------------------------------------------------------------------------------------------------------


 k-point  1 :   0.0000 0.0000 0.0000  plane waves:   23127
 k-point  2 :   0.2500 0.0000 0.0000  plane waves:   23275
 k-point  3 :   0.5000 0.0000 0.0000  plane waves:   23316
 k-point  4 :   0.0000 0.2500 0.0000  plane waves:   23275
 k-point  5 :   0.2500 0.2500 0.0000  plane waves:   23301
 k-point  6 :   0.5000 0.2500 0.0000  plane waves:   23262
 k-point  7 :   0.0000 0.5000 0.0000  plane waves:   23316
 k-point  8 :   0.2500 0.5000 0.0000  plane waves:   23262
 k-point  9 :   0.5000 0.5000 0.0000  plane waves:   23332
 k-point 10 :   0.0000 0.2500 0.2500  plane waves:   23301
 k-point 11 :   0.2500 0.2500 0.2500  plane waves:   23294
 k-point 12 :   0.5000 0.2500 0.2500  plane waves:   23266
 k-point 13 :   0.0000 0.5000 0.2500  plane waves:   23262
 k-point 14 :   0.2500 0.5000 0.2500  plane waves:   23266
 k-point 15 :   0.5000 0.5000 0.2500  plane waves:   23240
 k-point 16 :   0.0000-0.2500 0.2500  plane waves:   23301
 k-point 17 :   0.2500-0.2500 0.2500  plane waves:   23294
 k-point 18 :   0.5000-0.2500 0.2500  plane waves:   23266
 k-point 19 :   0.0000 0.5000 0.5000  plane waves:   23332
 k-point 20 :   0.2500 0.5000 0.5000  plane waves:   23240
 k-point 21 :   0.5000 0.5000 0.5000  plane waves:   23240

 maximum and minimum number of plane-waves per node :     23332    23127

 maximum number of plane-waves:     23332
 maximum index in each direction: 
   IXMAX=   17   IYMAX=   17   IZMAX=   17
   IXMIN=  -18   IYMIN=  -18   IZMIN=  -18


 serial   3D FFT for wavefunctions
 parallel 3D FFT for charge:
    minimum data exchange during FFTs selected (reduces bandwidth)


 total amount of memory used by VASP MPI-rank0   576099. kBytes
=======================================================================

   base      :      30000. kBytes
   nonl-proj :      55250. kBytes
   fftplans  :     111003. kBytes
   grid      :      51176. kBytes
   one-center:        196. kBytes
   wavefun   :     328474. kBytes
 
     INWAV:  cpu time    5.1447: real time   11.0819
 Broyden mixing: mesh for mixing (old mesh)
   NGX = 35   NGY = 35   NGZ = 35
  (NGX  =144   NGY  =144   NGZ  =144)
  gives a total of  42875 points

 charge density for first step will be calculated from the start-wavefunctions


--------------------------------------------------------------------------------------------------------


 Maximum index for augmentation-charges        18905 (set IRDMAX)


--------------------------------------------------------------------------------------------------------


 initial charge from wavefunction
 First call to EWALD:  gamma=   0.163
 Maximum number of real-space cells 3x 3x 3
 Maximum number of reciprocal cells 3x 3x 3

    FEWALD:  cpu time    0.0064: real time    0.0170


--------------------------------------- Iteration      1(   1)  ---------------------------------------


    POTLOK:  cpu time    0.4166: real time    0.8845
    SETDIJ:  cpu time    0.2491: real time    0.5097
     EDDAV:  cpu time  111.2164: real time  233.3688
       DOS:  cpu time    0.0016: real time    0.0019
    CHARGE:  cpu time    4.0407: real time    8.5491
    MIXING:  cpu time    0.0191: real time    0.0479
    --------------------------------------------
      LOOP:  cpu time  115.9435: real time  243.3619

 eigenvalue-minimisations  :  6888
 total energy-change (2. order) : 0.1034505E+04  (-0.3001430E+02)
 number of electron     255.9999997 magnetization 
 augmentation part       -9.2443557 magnetization 

 Broyden mixing:
  rms(total) = 0.68551E+02    rms(broyden)= 0.68200E+02
  rms(prec ) = 0.68437E+02
  weight for this iteration     100.00

 Free energy of the ion-electron system (eV)
  ---------------------------------------------------
  alpha Z        PSCENC =       107.59325768
  Ewald energy   TEWEN  =     -7312.68491912
  -Hartree energ DENC   =        -4.04072662
  -exchange      EXHF   =         0.00000000
  -V(xc)+E(xc)   XCENC  =     -1164.75957651
  PAW double counting   =      1312.88335940     -143.50310410
  entropy T*S    EENTRO =        -0.00119446
  eigenvalues    EBANDS =      1642.81038194
  atomic energy  EATOM  =      6596.20775861
  Solvation  Ediel_sol  =         0.00000000
  ---------------------------------------------------
  free energy    TOTEN  =      1034.50523685 eV

  energy without entropy =     1034.50643131  energy(sigma->0) =     1034.50583408


--------------------------------------------------------------------------------------------------------




--------------------------------------- Iteration      1(   2)  ---------------------------------------


    POTLOK:  cpu time    0.4015: real time    0.8614
    SETDIJ:  cpu time    0.2420: real time    0.5129
     EDDAV:  cpu time  132.0179: real time  269.3234
       DOS:  cpu time    0.0005: real time    0.0005
    CHARGE:  cpu time    4.0897: real time    8.3973
    MIXING:  cpu time    0.0135: real time    0.0275
    --------------------------------------------
      LOOP:  cpu time  136.7650: real time  279.1230

 eigenvalue-minimisations  :  8500
 total energy-change (2. order) :-0.1549206E+04  (-0.9183453E+03)
 number of electron     255.9999995 magnetization 
 augmentation part      -16.3672382 magnetization 

 Broyden mixing:
  rms(total) = 0.25138E+02    rms(broyden)= 0.25138E+02
  rms(prec ) = 0.25705E+02
  weight for this iteration     100.00

 eigenvalues of (default mixing * dielectric matrix)
  average eigenvalue GAMMA=   0.7340
  0.7340

 Free energy of the ion-electron system (eV)
  ---------------------------------------------------
  alpha Z        PSCENC =       107.59325768
  Ewald energy   TEWEN  =     -7312.68491912
  -Hartree energ DENC   =       -40.44931313
  -exchange      EXHF   =         0.00000000
  -V(xc)+E(xc)   XCENC  =      -624.17229691
  PAW double counting   =    400830.42266539  -399670.17434581
  entropy T*S    EENTRO =        -0.00000000
  eigenvalues    EBANDS =      -401.44390676
  atomic energy  EATOM  =      6596.20775861
  Solvation  Ediel_sol  =         0.00000000
  ---------------------------------------------------
  free energy    TOTEN  =      -514.70110005 eV

  energy without entropy =     -514.70110005  energy(sigma->0) =     -514.70110005


--------------------------------------------------------------------------------------------------------




--------------------------------------- Iteration      1(   3)  ---------------------------------------


    POTLOK:  cpu time    0.4247: real time    0.8766
    SETDIJ:  cpu time    0.2461: real time    0.5325
     EDDAV:  cpu time  135.3504: real time  275.8643
       DOS:  cpu time    0.0005: real time    0.0005
    CHARGE:  cpu time    4.1148: real time    8.2865
    MIXING:  cpu time    0.0189: real time    0.0483
    --------------------------------------------
      LOOP:  cpu time  140.1554: real time  285.6086

 eigenvalue-minimisations  :  8680
 total energy-change (2. order) : 0.6243026E+02  (-0.5641417E+02)
 number of electron     255.9999995 magnetization 
 augmentation part      -16.9441399 magnetization 

 Broyden mixing:
  rms(total) = 0.19718E+02    rms(broyden)= 0.19718E+02
  rms(prec ) = 0.20121E+02
  weight for this iteration     100.00

 eigenvalues of (default mixing * dielectric matrix)
  average eigenvalue GAMMA=   1.0997
  1.0997  1.0997

 Free energy of the ion-electron system (eV)
  ---------------------------------------------------
  alpha Z        PSCENC =       107.59325768
  Ewald energy   TEWEN  =     -7312.68491912
  -Hartree energ DENC   =      -118.15633572
  -exchange      EXHF   =         0.00000000
  -V(xc)+E(xc)   XCENC  =      -614.38986409
  PAW double counting   =    259466.06463885  -258318.54799114
  entropy T*S    EENTRO =        -0.00000000
  eigenvalues    EBANDS =      -258.35738392
  atomic energy  EATOM  =      6596.20775861
  Solvation  Ediel_sol  =         0.00000000
  ---------------------------------------------------
  free energy    TOTEN  =      -452.27083885 eV

  energy without entropy =     -452.27083885  energy(sigma->0) =     -452.27083885


--------------------------------------------------------------------------------------------------------




--------------------------------------- Iteration      1(   4)  ---------------------------------------


    POTLOK:  cpu time    0.4281: real time    0.8490
    SETDIJ:  cpu time    0.2855: real time    0.5762
     EDDAV:  cpu time  128.5311: real time  264.0499
       DOS:  cpu time    0.0005: real time    0.0005
    CHARGE:  cpu time    4.1439: real time    8.3743
    MIXING:  cpu time    0.0199: real time    0.0408
    --------------------------------------------
      LOOP:  cpu time  133.4091: real time  273.8906

 eigenvalue-minimisations  :  8096
 total energy-change (2. order) : 0.1024732E+03  (-0.1478157E+02)
 number of electron     255.9999996 magnetization 
 augmentation part      -15.2812427 magnetization 

 Broyden mixing:
  rms(total) = 0.59504E+01    rms(broyden)= 0.59504E+01
  rms(prec ) = 0.60514E+01
  weight for this iteration     100.00

 eigenvalues of (default mixing * dielectric matrix)
  average eigenvalue GAMMA=   1.3410
  2.1803  1.0859  0.7567

 Free energy of the ion-electron system (eV)
  ---------------------------------------------------
  alpha Z        PSCENC =       107.59325768
  Ewald energy   TEWEN  =     -7312.68491912
  -Hartree energ DENC   =      -353.56179537
  -exchange      EXHF   =         0.00000000
  -V(xc)+E(xc)   XCENC  =      -589.54834951
  PAW double counting   =     56494.02227871   -55370.80208989
  entropy T*S    EENTRO =        -0.00000000
  eigenvalues    EBANDS =        78.97623204
  atomic energy  EATOM  =      6596.20775861
  Solvation  Ediel_sol  =         0.00000000
  ---------------------------------------------------
  free energy    TOTEN  =      -349.79762685 eV

  energy without entropy =     -349.79762685  energy(sigma->0) =     -349.79762685


--------------------------------------------------------------------------------------------------------




--------------------------------------- Iteration      1(   5)  ---------------------------------------


    POTLOK:  cpu time    0.4192: real time    0.8341
    SETDIJ:  cpu time    0.2460: real time    0.5288
     EDDAV:  cpu time  137.6112: real time  278.7377
       DOS:  cpu time    0.0005: real time    0.0005
    CHARGE:  cpu time    4.2042: real time    8.3904
    MIXING:  cpu time    0.0287: real time    0.0734
    --------------------------------------------
      LOOP:  cpu time  142.5098: real time  288.5648

 eigenvalue-minimisations  :  8816
 total energy-change (2. order) : 0.3327502E+01  (-0.3270577E+01)
 number of electron     255.9999996 magnetization 
 augmentation part      -14.5364147 magnetization 

 Broyden mixing:
  rms(total) = 0.10414E+01    rms(broyden)= 0.10414E+01
  rms(prec ) = 0.11030E+01
  weight for this iteration     100.00

 eigenvalues of (default mixing * dielectric matrix)
  average eigenvalue GAMMA=   1.2769
  2.1433  1.0900  0.9370  0.9370

 Free energy of the ion-electron system (eV)
  ---------------------------------------------------
  alpha Z        PSCENC =       107.59325768
  Ewald energy   TEWEN  =     -7312.68491912
  -Hartree energ DENC   =      -484.32049223
  -exchange      EXHF   =         0.00000000
  -V(xc)+E(xc)   XCENC  =      -575.42027775
  PAW double counting   =     19779.26043257   -18664.73338444
  entropy T*S    EENTRO =        -0.00000000
  eigenvalues    EBANDS =       207.62750007
  atomic energy  EATOM  =      6596.20775861
  Solvation  Ediel_sol  =         0.00000000
  ---------------------------------------------------
  free energy    TOTEN  =      -346.47012460 eV

  energy without entropy =     -346.47012460  energy(sigma->0) =     -346.47012460


--------------------------------------------------------------------------------------------------------




--------------------------------------- Iteration      1(   6)  ---------------------------------------


    POTLOK:  cpu time    0.4404: real time    0.8719
    SETDIJ:  cpu time    0.2617: real time    0.5331
     EDDAV:  cpu time  126.1574: real time  266.0879
       DOS:  cpu time    0.0005: real time    0.0005
    CHARGE:  cpu time    4.2135: real time    8.4193
    MIXING:  cpu time    0.0253: real time    0.0631
    --------------------------------------------
      LOOP:  cpu time  131.0988: real time  275.9758

 eigenvalue-minimisations  :  8052
 total energy-change (2. order) :-0.1325074E+00  (-0.2134866E+00)
 number of electron     255.9999996 magnetization 
 augmentation part      -14.6280341 magnetization 

 Broyden mixing:
  rms(total) = 0.67471E+00    rms(broyden)= 0.67471E+00
  rms(prec ) = 0.70363E+00
  weight for this iteration     100.00

 eigenvalues of (default mixing * dielectric matrix)
  average eigenvalue GAMMA=   1.4995
  2.4715  1.5302  1.5302  1.0441  0.9217

 Free energy of the ion-electron system (eV)
  ---------------------------------------------------
  alpha Z        PSCENC =       107.59325768
  Ewald energy   TEWEN  =     -7312.68491912
  -Hartree energ DENC   =      -473.45101931
  -exchange      EXHF   =         0.00000000
  -V(xc)+E(xc)   XCENC  =      -576.13260272
  PAW double counting   =     23952.38023782   -22835.86444833
  entropy T*S    EENTRO =        -0.00000000
  eigenvalues    EBANDS =       195.34910339
  atomic energy  EATOM  =      6596.20775861
  Solvation  Ediel_sol  =         0.00000000
  ---------------------------------------------------
  free energy    TOTEN  =      -346.60263198 eV

  energy without entropy =     -346.60263198  energy(sigma->0) =     -346.60263198


--------------------------------------------------------------------------------------------------------




--------------------------------------- Iteration      1(   7)  ---------------------------------------


    POTLOK:  cpu time    0.4347: real time    0.8580
    SETDIJ:  cpu time    0.2536: real time    0.5215
     EDDAV:  cpu time  127.1154: real time  258.5875
       DOS:  cpu time    0.0006: real time    0.0006
    CHARGE:  cpu time    4.2188: real time    8.4228
    MIXING:  cpu time    0.0226: real time    0.0582
    --------------------------------------------
      LOOP:  cpu time  132.0457: real time  268.4486

 eigenvalue-minimisations  :  8032
 total energy-change (2. order) :-0.3866229E+00  (-0.4049706E-01)
 number of electron     255.9999996 magnetization 
 augmentation part      -14.6071198 magnetization 

 Broyden mixing:
  rms(total) = 0.53741E+00    rms(broyden)= 0.53741E+00
  rms(prec ) = 0.55939E+00
  weight for this iteration     100.00

 eigenvalues of (default mixing * dielectric matrix)
  average eigenvalue GAMMA=   1.5078
  2.7614  2.2043  1.0677  0.9310  1.0410  1.0410

 Free energy of the ion-electron system (eV)
  ---------------------------------------------------
  alpha Z        PSCENC =       107.59325768
  Ewald energy   TEWEN  =     -7312.68491912
  -Hartree energ DENC   =      -485.86221941
  -exchange      EXHF   =         0.00000000
  -V(xc)+E(xc)   XCENC  =      -574.49025197
  PAW double counting   =     22891.82166158   -21775.21203359
  entropy T*S    EENTRO =        -0.00000000
  eigenvalues    EBANDS =       205.63749135
  atomic energy  EATOM  =      6596.20775861
  Solvation  Ediel_sol  =         0.00000000
  ---------------------------------------------------
  free energy    TOTEN  =      -346.98925487 eV

  energy without entropy =     -346.98925487  energy(sigma->0) =     -346.98925487


--------------------------------------------------------------------------------------------------------




--------------------------------------- Iteration      1(   8)  ---------------------------------------


    POTLOK:  cpu time    0.4590: real time    0.9141
    SETDIJ:  cpu time    0.2464: real time    0.5034
     EDDAV:  cpu time  135.6038: real time  288.1695
       DOS:  cpu time    0.0005: real time    0.0005
    CHARGE:  cpu time    4.0100: real time    8.0197
    MIXING:  cpu time    0.0531: real time    0.1086
    --------------------------------------------
      LOOP:  cpu time  140.3728: real time  297.7158

 eigenvalue-minimisations  :  7988
 total energy-change (2. order) :-0.4672411E-01  (-0.5830769E-01)
 number of electron     255.9999996 magnetization 
 augmentation part      -14.6804549 magnetization 

 Broyden mixing:
  rms(total) = 0.10649E+00    rms(broyden)= 0.10649E+00
  rms(prec ) = 0.12392E+00
  weight for this iteration     100.00

 eigenvalues of (default mixing * dielectric matrix)
  average eigenvalue GAMMA=   1.4889
  2.9595  2.2215  1.1907  1.1907  1.0761  0.8919  0.8919

 Free energy of the ion-electron system (eV)
  ---------------------------------------------------
  alpha Z        PSCENC =       107.59325768
  Ewald energy   TEWEN  =     -7312.68491912
  -Hartree energ DENC   =      -474.81188013
  -exchange      EXHF   =         0.00000000
  -V(xc)+E(xc)   XCENC  =      -575.12273167
  PAW double counting   =     28413.48051982   -27294.52746465
  entropy T*S    EENTRO =        -0.00000000
  eigenvalues    EBANDS =       192.82948047
  atomic energy  EATOM  =      6596.20775861
  Solvation  Ediel_sol  =         0.00000000
  ---------------------------------------------------
  free energy    TOTEN  =      -347.03597898 eV

  energy without entropy =     -347.03597898  energy(sigma->0) =     -347.03597898


--------------------------------------------------------------------------------------------------------




--------------------------------------- Iteration      1(   9)  ---------------------------------------


    POTLOK:  cpu time    0.4558: real time    0.9160
    SETDIJ:  cpu time    0.2764: real time    0.5550
     EDDAV:  cpu time  141.9017: real time  169.6272
       DOS:  cpu time    0.0005: real time    0.0005
    CHARGE:  cpu time    4.7235: real time    4.7249
    MIXING:  cpu time    0.0165: real time    0.0165
    --------------------------------------------
      LOOP:  cpu time  147.3744: real time  175.8401

 eigenvalue-minimisations  :  8092
 total energy-change (2. order) :-0.2587103E-02  (-0.5286045E-02)
 number of electron     255.9999996 magnetization 
 augmentation part      -14.6962723 magnetization 

 Broyden mixing:
  rms(total) = 0.11689E+00    rms(broyden)= 0.11689E+00
  rms(prec ) = 0.12709E+00
  weight for this iteration     100.00

 eigenvalues of (default mixing * dielectric matrix)
  average eigenvalue GAMMA=   1.5398
  2.8782  2.3687  1.6748  1.6748  1.0269  0.8973  0.8973  0.9006

 Free energy of the ion-electron system (eV)
  ---------------------------------------------------
  alpha Z        PSCENC =       107.59325768
  Ewald energy   TEWEN  =     -7312.68491912
  -Hartree energ DENC   =      -474.55638054
  -exchange      EXHF   =         0.00000000
  -V(xc)+E(xc)   XCENC  =      -575.09721093
  PAW double counting   =     28780.08446525   -27660.99056189
  entropy T*S    EENTRO =        -0.00000000
  eigenvalues    EBANDS =       192.40502486
  atomic energy  EATOM  =      6596.20775861
  Solvation  Ediel_sol  =         0.00000000
  ---------------------------------------------------
  free energy    TOTEN  =      -347.03856608 eV

  energy without entropy =     -347.03856608  energy(sigma->0) =     -347.03856608


--------------------------------------------------------------------------------------------------------




--------------------------------------- Iteration      1(  10)  ---------------------------------------


    POTLOK:  cpu time    0.4691: real time    0.4692
    SETDIJ:  cpu time    0.2888: real time    0.6648
     EDDAV:  cpu time  146.6066: real time  156.1676
       DOS:  cpu time    0.0005: real time    0.0005
    CHARGE:  cpu time    4.6240: real time    4.8271
    MIXING:  cpu time    0.0189: real time    0.0194
    --------------------------------------------
      LOOP:  cpu time  152.0078: real time  162.1485

 eigenvalue-minimisations  :  8688
 total energy-change (2. order) : 0.7258373E-02  (-0.2568306E-02)
 number of electron     255.9999996 magnetization 
 augmentation part      -14.6929992 magnetization 

 Broyden mixing:
  rms(total) = 0.48695E-01    rms(broyden)= 0.48695E-01
  rms(prec ) = 0.50769E-01
  weight for this iteration     100.00

 eigenvalues of (default mixing * dielectric matrix)
  average eigenvalue GAMMA=   1.4772
  3.0261  2.1601  1.5641  1.5641  1.0897  0.9018  0.9018  1.0438  1.0438

 Free energy of the ion-electron system (eV)
  ---------------------------------------------------
  alpha Z        PSCENC =       107.59325768
  Ewald energy   TEWEN  =     -7312.68491912
  -Hartree energ DENC   =      -475.93507570
  -exchange      EXHF   =         0.00000000
  -V(xc)+E(xc)   XCENC  =      -574.97792067
  PAW double counting   =     28285.53963274   -27166.59165447
  entropy T*S    EENTRO =        -0.00000000
  eigenvalues    EBANDS =       193.81761321
  atomic energy  EATOM  =      6596.20775861
  Solvation  Ediel_sol  =         0.00000000
  ---------------------------------------------------
  free energy    TOTEN  =      -347.03130771 eV

  energy without entropy =     -347.03130771  energy(sigma->0) =     -347.03130771


--------------------------------------------------------------------------------------------------------




--------------------------------------- Iteration      1(  11)  ---------------------------------------


    POTLOK:  cpu time    0.4653: real time    0.4661
    SETDIJ:  cpu time    0.3069: real time    0.3072
     EDDAV:  cpu time  136.0589: real time  142.3946
       DOS:  cpu time    0.0005: real time    0.0005
    CHARGE:  cpu time    4.6654: real time    4.8627
    MIXING:  cpu time    0.0219: real time    0.0312
    --------------------------------------------
      LOOP:  cpu time  141.5189: real time  148.0624

 eigenvalue-minimisations  :  7920
 total energy-change (2. order) : 0.4902168E-04  (-0.7143986E-03)
 number of electron     255.9999996 magnetization 
 augmentation part      -14.6901400 magnetization 

 Broyden mixing:
  rms(total) = 0.26503E-01    rms(broyden)= 0.26503E-01
  rms(prec ) = 0.27792E-01
  weight for this iteration     100.00

 eigenvalues of (default mixing * dielectric matrix)
  average eigenvalue GAMMA=   1.4197
  3.0324  2.1716  1.6239  1.6239  1.1732  1.1732  1.0815  0.8908  0.8908  0.5357

 Free energy of the ion-electron system (eV)
  ---------------------------------------------------
  alpha Z        PSCENC =       107.59325768
  Ewald energy   TEWEN  =     -7312.68491912
  -Hartree energ DENC   =      -476.87119761
  -exchange      EXHF   =         0.00000000
  -V(xc)+E(xc)   XCENC  =      -574.88872562
  PAW double counting   =     28072.21117381   -26953.32837094
  entropy T*S    EENTRO =        -0.00000000
  eigenvalues    EBANDS =       194.72976450
  atomic energy  EATOM  =      6596.20775861
  Solvation  Ediel_sol  =         0.00000000
  ---------------------------------------------------
  free energy    TOTEN  =      -347.03125869 eV

  energy without entropy =     -347.03125869  energy(sigma->0) =     -347.03125869


--------------------------------------------------------------------------------------------------------




--------------------------------------- Iteration      1(  12)  ---------------------------------------


    POTLOK:  cpu time    0.4234: real time    0.5022
    SETDIJ:  cpu time    0.2916: real time    0.3126
     EDDAV:  cpu time  139.6497: real time  146.6672
       DOS:  cpu time    0.0005: real time    0.0005
    CHARGE:  cpu time    4.6990: real time    4.7071
    MIXING:  cpu time    0.0202: real time    0.0202
    --------------------------------------------
      LOOP:  cpu time  145.0844: real time  152.2098

 eigenvalue-minimisations  :  8208
 total energy-change (2. order) : 0.5876388E-04  (-0.6956175E-04)
 number of electron     255.9999996 magnetization 
 augmentation part      -14.6880202 magnetization 

 Broyden mixing:
  rms(total) = 0.20192E-01    rms(broyden)= 0.20192E-01
  rms(prec ) = 0.21250E-01
  weight for this iteration     100.00

 eigenvalues of (default mixing * dielectric matrix)
  average eigenvalue GAMMA=   1.5105
  3.1583  2.4628  1.6968  1.6968  1.4510  1.4510  0.9973  0.9295  0.9295  0.9215
  0.9215

 Free energy of the ion-electron system (eV)
  ---------------------------------------------------
  alpha Z        PSCENC =       107.59325768
  Ewald energy   TEWEN  =     -7312.68491912
  -Hartree energ DENC   =      -477.18634403
  -exchange      EXHF   =         0.00000000
  -V(xc)+E(xc)   XCENC  =      -574.86851396
  PAW double counting   =     27956.27818153   -26837.42593337
  entropy T*S    EENTRO =        -0.00000000
  eigenvalues    EBANDS =       195.05531274
  atomic energy  EATOM  =      6596.20775861
  Solvation  Ediel_sol  =         0.00000000
  ---------------------------------------------------
  free energy    TOTEN  =      -347.03119993 eV

  energy without entropy =     -347.03119993  energy(sigma->0) =     -347.03119993


--------------------------------------------------------------------------------------------------------




--------------------------------------- Iteration      1(  13)  ---------------------------------------


    POTLOK:  cpu time    0.4625: real time    0.4677
    SETDIJ:  cpu time    0.3075: real time    0.3078
     EDDAV:  cpu time  158.0371: real time  167.0640
       DOS:  cpu time    0.0005: real time    0.0005
    CHARGE:  cpu time    5.2387: real time    5.2892
    MIXING:  cpu time    0.0426: real time    0.0426
    --------------------------------------------
      LOOP:  cpu time  164.0889: real time  173.1717

 eigenvalue-minimisations  :  9088
 total energy-change (2. order) : 0.9884822E-04  (-0.2733587E-04)
 number of electron     255.9999996 magnetization 
 augmentation part      -14.6871424 magnetization 

 Broyden mixing:
  rms(total) = 0.79285E-02    rms(broyden)= 0.79285E-02
  rms(prec ) = 0.82001E-02
  weight for this iteration     100.00

 eigenvalues of (default mixing * dielectric matrix)
  average eigenvalue GAMMA=   1.5036
  3.1347  2.3992  2.1260  1.5637  1.5637  1.2629  1.2629  1.0440  0.9897  0.9095
  0.8935  0.8935

 Free energy of the ion-electron system (eV)
  ---------------------------------------------------
  alpha Z        PSCENC =       107.59325768
  Ewald energy   TEWEN  =     -7312.68491912
  -Hartree energ DENC   =      -477.39272130
  -exchange      EXHF   =         0.00000000
  -V(xc)+E(xc)   XCENC  =      -574.86092076
  PAW double counting   =     27838.18354064   -26719.35334892
  entropy T*S    EENTRO =        -0.00000000
  eigenvalues    EBANDS =       195.27625208
  atomic energy  EATOM  =      6596.20775861
  Solvation  Ediel_sol  =         0.00000000
  ---------------------------------------------------
  free energy    TOTEN  =      -347.03110108 eV

  energy without entropy =     -347.03110108  energy(sigma->0) =     -347.03110108


--------------------------------------------------------------------------------------------------------




--------------------------------------- Iteration      1(  14)  ---------------------------------------


    POTLOK:  cpu time    0.4825: real time    0.4827
    SETDIJ:  cpu time    0.3216: real time    0.3217
     EDDAV:  cpu time  152.9604: real time  169.6122
       DOS:  cpu time    0.0005: real time    0.0005
    CHARGE:  cpu time    4.7030: real time    5.5670
    MIXING:  cpu time    0.0278: real time    0.0341
    --------------------------------------------
      LOOP:  cpu time  158.4957: real time  176.0182

 eigenvalue-minimisations  :  8384
 total energy-change (2. order) :-0.1939607E-04  (-0.2107496E-04)
 number of electron     255.9999996 magnetization 
 augmentation part      -14.6856371 magnetization 

 Broyden mixing:
  rms(total) = 0.18673E-02    rms(broyden)= 0.18673E-02
  rms(prec ) = 0.19463E-02
  weight for this iteration     100.00

 eigenvalues of (default mixing * dielectric matrix)
  average eigenvalue GAMMA=   1.4769
  3.1264  2.4481  2.0637  1.6329  1.6329  1.3930  1.3930  1.0829  0.8729  0.8729
  0.9771  0.8794  0.8242

 Free energy of the ion-electron system (eV)
  ---------------------------------------------------
  alpha Z        PSCENC =       107.59325768
  Ewald energy   TEWEN  =     -7312.68491912
  -Hartree energ DENC   =      -477.56383635
  -exchange      EXHF   =         0.00000000
  -V(xc)+E(xc)   XCENC  =      -574.84962320
  PAW double counting   =     27761.44597717   -26642.63602521
  entropy T*S    EENTRO =        -0.00000000
  eigenvalues    EBANDS =       195.45628993
  atomic energy  EATOM  =      6596.20775861
  Solvation  Ediel_sol  =         0.00000000
  ---------------------------------------------------
  free energy    TOTEN  =      -347.03112047 eV

  energy without entropy =     -347.03112047  energy(sigma->0) =     -347.03112047


--------------------------------------------------------------------------------------------------------




--------------------------------------- Iteration      1(  15)  ---------------------------------------


    POTLOK:  cpu time    0.4324: real time    0.6025
    SETDIJ:  cpu time    0.2518: real time    0.3583
     EDDAV:  cpu time  134.8342: real time  138.9628
       DOS:  cpu time    0.0005: real time    0.0008
    CHARGE:  cpu time    4.6798: real time    4.7197
    MIXING:  cpu time    0.0244: real time    0.0244
    --------------------------------------------
      LOOP:  cpu time  140.2231: real time  144.6685

 eigenvalue-minimisations  :  7824
 total energy-change (2. order) : 0.1923072E-05  (-0.1993467E-05)
 number of electron     255.9999996 magnetization 
 augmentation part      -14.6860028 magnetization 

 Broyden mixing:
  rms(total) = 0.25404E-02    rms(broyden)= 0.25404E-02
  rms(prec ) = 0.26233E-02
  weight for this iteration     100.00

 eigenvalues of (default mixing * dielectric matrix)
  average eigenvalue GAMMA=   1.4997
  2.9953  2.9953  2.2809  1.6180  1.6180  1.5334  1.5334  1.0135  1.0135  1.0791
  0.8883  0.8389  0.8389  0.7487

 Free energy of the ion-electron system (eV)
  ---------------------------------------------------
  alpha Z        PSCENC =       107.59325768
  Ewald energy   TEWEN  =     -7312.68491912
  -Hartree energ DENC   =      -477.52722230
  -exchange      EXHF   =         0.00000000
  -V(xc)+E(xc)   XCENC  =      -574.85323442
  PAW double counting   =     27768.15693592   -26649.34415345
  entropy T*S    EENTRO =        -0.00000000
  eigenvalues    EBANDS =       195.42045852
  atomic energy  EATOM  =      6596.20775861
  Solvation  Ediel_sol  =         0.00000000
  ---------------------------------------------------
  free energy    TOTEN  =      -347.03111855 eV

  energy without entropy =     -347.03111855  energy(sigma->0) =     -347.03111855


--------------------------------------------------------------------------------------------------------




--------------------------------------- Iteration      1(  16)  ---------------------------------------


    POTLOK:  cpu time    0.4629: real time    0.4661
    SETDIJ:  cpu time    0.3029: real time    0.3061
     EDDAV:  cpu time  139.1622: real time  141.7118
       DOS:  cpu time    0.0005: real time    0.0005
    CHARGE:  cpu time    4.6838: real time    4.6848
    MIXING:  cpu time    0.0226: real time    0.0226
    --------------------------------------------
      LOOP:  cpu time  144.6348: real time  147.1919

 eigenvalue-minimisations  :  8168
 total energy-change (2. order) :-0.1826083E-06  (-0.1336634E-06)
 number of electron     255.9999996 magnetization 
 augmentation part      -14.6859168 magnetization 

 Broyden mixing:
  rms(total) = 0.11477E-02    rms(broyden)= 0.11477E-02
  rms(prec ) = 0.12431E-02
  weight for this iteration     100.00

 eigenvalues of (default mixing * dielectric matrix)
  average eigenvalue GAMMA=   1.4624
  3.1235  2.6891  2.0982  1.4716  1.4716  1.5628  1.5628  1.2590  1.2590  1.1388
  0.8378  0.8378  0.9318  0.8781  0.8136

 Free energy of the ion-electron system (eV)
  ---------------------------------------------------
  alpha Z        PSCENC =       107.59325768
  Ewald energy   TEWEN  =     -7312.68491912
  -Hartree energ DENC   =      -477.53177725
  -exchange      EXHF   =         0.00000000
  -V(xc)+E(xc)   XCENC  =      -574.85377056
  PAW double counting   =     27761.31129201   -26642.50014444
  entropy T*S    EENTRO =        -0.00000000
  eigenvalues    EBANDS =       195.42718433
  atomic energy  EATOM  =      6596.20775861
  Solvation  Ediel_sol  =         0.00000000
  ---------------------------------------------------
  free energy    TOTEN  =      -347.03111873 eV

  energy without entropy =     -347.03111873  energy(sigma->0) =     -347.03111873


--------------------------------------------------------------------------------------------------------




--------------------------------------- Iteration      1(  17)  ---------------------------------------


    POTLOK:  cpu time    0.4669: real time    0.4670
    SETDIJ:  cpu time    0.3085: real time    0.3088
     EDDAV:  cpu time  140.5608: real time  141.1521
       DOS:  cpu time    0.0005: real time    0.0005
    CHARGE:  cpu time    4.7255: real time    4.7264
    MIXING:  cpu time    0.0205: real time    0.0205
    --------------------------------------------
      LOOP:  cpu time  146.0828: real time  146.6754

 eigenvalue-minimisations  :  8264
 total energy-change (2. order) : 0.8973002E-06  (-0.1773330E-06)
 number of electron     255.9999996 magnetization 
 augmentation part      -14.6859119 magnetization 

 Broyden mixing:
  rms(total) = 0.24412E-03    rms(broyden)= 0.24412E-03
  rms(prec ) = 0.26077E-03
  weight for this iteration     100.00

 eigenvalues of (default mixing * dielectric matrix)
  average eigenvalue GAMMA=   1.4562
  3.1500  2.5668  2.1301  1.8959  1.8959  1.4607  1.4607  1.2291  1.2291  1.0899
  0.8815  0.8815  0.9491  0.9491  0.7648  0.7648

 Free energy of the ion-electron system (eV)
  ---------------------------------------------------
  alpha Z        PSCENC =       107.59325768
  Ewald energy   TEWEN  =     -7312.68491912
  -Hartree energ DENC   =      -477.53418053
  -exchange      EXHF   =         0.00000000
  -V(xc)+E(xc)   XCENC  =      -574.85358181
  PAW double counting   =     27761.09440780   -26642.28315877
  entropy T*S    EENTRO =        -0.00000000
  eigenvalues    EBANDS =       195.42929829
  atomic energy  EATOM  =      6596.20775861
  Solvation  Ediel_sol  =         0.00000000
  ---------------------------------------------------
  free energy    TOTEN  =      -347.03111784 eV

  energy without entropy =     -347.03111784  energy(sigma->0) =     -347.03111784


--------------------------------------------------------------------------------------------------------




--------------------------------------- Iteration      1(  18)  ---------------------------------------


    POTLOK:  cpu time    0.4674: real time    0.4675
    SETDIJ:  cpu time    0.3096: real time    0.3098
     EDDAV:  cpu time  141.1089: real time  143.3974
       DOS:  cpu time    0.0005: real time    0.0005
    CHARGE:  cpu time    4.6941: real time    4.7002
    MIXING:  cpu time    0.0238: real time    0.0238
    --------------------------------------------
      LOOP:  cpu time  146.6042: real time  148.8992

 eigenvalue-minimisations  :  8232
 total energy-change (2. order) :-0.6358387E-06  (-0.9371595E-07)
 number of electron     255.9999996 magnetization 
 augmentation part      -14.6858852 magnetization 

 Broyden mixing:
  rms(total) = 0.13095E-03    rms(broyden)= 0.13095E-03
  rms(prec ) = 0.13290E-03
  weight for this iteration     100.00

 eigenvalues of (default mixing * dielectric matrix)
  average eigenvalue GAMMA=   1.4563
  3.1890  2.5425  2.5425  1.7677  1.7677  1.4997  1.4997  1.3155  1.3155  1.0985
  1.0985  0.9535  0.9141  0.9141  0.8391  0.8391  0.6604

 Free energy of the ion-electron system (eV)
  ---------------------------------------------------
  alpha Z        PSCENC =       107.59325768
  Ewald energy   TEWEN  =     -7312.68491912
  -Hartree energ DENC   =      -477.53900593
  -exchange      EXHF   =         0.00000000
  -V(xc)+E(xc)   XCENC  =      -574.85308043
  PAW double counting   =     27760.59495221   -26641.78410040
  entropy T*S    EENTRO =        -0.00000000
  eigenvalues    EBANDS =       195.43401890
  atomic energy  EATOM  =      6596.20775861
  Solvation  Ediel_sol  =         0.00000000
  ---------------------------------------------------
  free energy    TOTEN  =      -347.03111847 eV

  energy without entropy =     -347.03111847  energy(sigma->0) =     -347.03111847


--------------------------------------------------------------------------------------------------------




--------------------------------------- Iteration      1(  19)  ---------------------------------------


    POTLOK:  cpu time    0.4696: real time    0.4697
    SETDIJ:  cpu time    0.2901: real time    0.6512
     EDDAV:  cpu time  114.9792: real time  117.2967
       DOS:  cpu time    0.0005: real time    0.0005
    CHARGE:  cpu time    4.5929: real time    4.6612
    MIXING:  cpu time    0.0215: real time    0.0217
    --------------------------------------------
      LOOP:  cpu time  120.3538: real time  123.1009

 eigenvalue-minimisations  :  6464
 total energy-change (2. order) :-0.8288043E-07  (-0.3532248E-08)
 number of electron     255.9999996 magnetization 
 augmentation part      -14.6858840 magnetization 

 Broyden mixing:
  rms(total) = 0.17382E-03    rms(broyden)= 0.17382E-03
  rms(prec ) = 0.17603E-03
  weight for this iteration     100.00

 eigenvalues of (default mixing * dielectric matrix)
  average eigenvalue GAMMA=   1.4616
  3.2096  2.6860  2.6860  1.6135  1.6135  1.6112  1.6112  1.3782  1.3782  1.1819
  1.1819  0.9230  0.9230  0.8923  0.8803  0.8803  0.8293  0.8293

 Free energy of the ion-electron system (eV)
  ---------------------------------------------------
  alpha Z        PSCENC =       107.59325768
  Ewald energy   TEWEN  =     -7312.68491912
  -Hartree energ DENC   =      -477.53942861
  -exchange      EXHF   =         0.00000000
  -V(xc)+E(xc)   XCENC  =      -574.85303396
  PAW double counting   =     27760.84462314   -26642.03382107
  entropy T*S    EENTRO =        -0.00000000
  eigenvalues    EBANDS =       195.43444477
  atomic energy  EATOM  =      6596.20775861
  Solvation  Ediel_sol  =         0.00000000
  ---------------------------------------------------
  free energy    TOTEN  =      -347.03111855 eV

  energy without entropy =     -347.03111855  energy(sigma->0) =     -347.03111855


--------------------------------------------------------------------------------------------------------




--------------------------------------- Iteration      1(  20)  ---------------------------------------


    POTLOK:  cpu time    0.4609: real time    0.4672
    SETDIJ:  cpu time    0.2915: real time    0.6589
     EDDAV:  cpu time   90.0293: real time   91.4486
       DOS:  cpu time    0.0005: real time    0.0005
    CHARGE:  cpu time    4.5888: real time    4.6587
    MIXING:  cpu time    0.0221: real time    0.0223
    --------------------------------------------
      LOOP:  cpu time   95.3932: real time   97.2562

 eigenvalue-minimisations  :  4528
 total energy-change (2. order) : 0.6788105E-07  (-0.7175895E-09)
 number of electron     255.9999996 magnetization 
 augmentation part      -14.6858871 magnetization 

 Broyden mixing:
  rms(total) = 0.10101E-03    rms(broyden)= 0.10101E-03
  rms(prec ) = 0.10203E-03
  weight for this iteration     100.00

 eigenvalues of (default mixing * dielectric matrix)
  average eigenvalue GAMMA=   1.5013
  3.3064  2.8912  2.4659  1.9697  1.9697  1.4832  1.4832  1.7186  1.7186  1.1232
  1.1232  1.0400  1.0400  1.0105  0.8562  0.8562  0.8634  0.8634  0.7425

 Free energy of the ion-electron system (eV)
  ---------------------------------------------------
  alpha Z        PSCENC =       107.59325768
  Ewald energy   TEWEN  =     -7312.68491912
  -Hartree energ DENC   =      -477.53881072
  -exchange      EXHF   =         0.00000000
  -V(xc)+E(xc)   XCENC  =      -574.85304829
  PAW double counting   =     27761.41489764   -26642.60402107
  entropy T*S    EENTRO =        -0.00000000
  eigenvalues    EBANDS =       195.43376677
  atomic energy  EATOM  =      6596.20775861
  Solvation  Ediel_sol  =         0.00000000
  ---------------------------------------------------
  free energy    TOTEN  =      -347.03111849 eV

  energy without entropy =     -347.03111849  energy(sigma->0) =     -347.03111849


--------------------------------------------------------------------------------------------------------




--------------------------------------- Iteration      1(  21)  ---------------------------------------


    POTLOK:  cpu time    0.4589: real time    0.4664
    SETDIJ:  cpu time    0.2917: real time    0.6573
     EDDAV:  cpu time   85.9328: real time   87.2285
       DOS:  cpu time    0.0005: real time    0.0005
    CHARGE:  cpu time    4.5805: real time    4.6920
    MIXING:  cpu time    0.0230: real time    0.0232
    --------------------------------------------
      LOOP:  cpu time   91.2874: real time   93.0679

 eigenvalue-minimisations  :  4224
 total energy-change (2. order) : 0.3200694E-07  (-0.8681020E-09)
 number of electron     255.9999996 magnetization 
 augmentation part      -14.6858893 magnetization 

 Broyden mixing:
  rms(total) = 0.12459E-04    rms(broyden)= 0.12459E-04
  rms(prec ) = 0.14820E-04
  weight for this iteration     100.00

 eigenvalues of (default mixing * dielectric matrix)
  average eigenvalue GAMMA=   1.4863
  3.3370  2.9308  2.2574  2.2574  1.8408  1.8408  1.7899  1.4688  1.4688  1.1893
  1.1893  1.1204  0.9543  0.9543  0.9319  0.9319  0.8154  0.8154  0.8352  0.7972

 Free energy of the ion-electron system (eV)
  ---------------------------------------------------
  alpha Z        PSCENC =       107.59325768
  Ewald energy   TEWEN  =     -7312.68491912
  -Hartree energ DENC   =      -477.53849059
  -exchange      EXHF   =         0.00000000
  -V(xc)+E(xc)   XCENC  =      -574.85308345
  PAW double counting   =     27761.75216835   -26642.94127195
  entropy T*S    EENTRO =        -0.00000000
  eigenvalues    EBANDS =       195.43346200
  atomic energy  EATOM  =      6596.20775861
  Solvation  Ediel_sol  =         0.00000000
  ---------------------------------------------------
  free energy    TOTEN  =      -347.03111845 eV

  energy without entropy =     -347.03111845  energy(sigma->0) =     -347.03111845


--------------------------------------------------------------------------------------------------------




--------------------------------------- Iteration      1(  22)  ---------------------------------------


    POTLOK:  cpu time    0.4609: real time    0.4676
    SETDIJ:  cpu time    0.2910: real time    0.6599
     EDDAV:  cpu time   85.4552: real time   86.7982
       DOS:  cpu time    0.0005: real time    0.0005
    CHARGE:  cpu time    4.6897: real time    4.7594
    MIXING:  cpu time    0.0283: real time    0.0285
    --------------------------------------------
      LOOP:  cpu time   90.9257: real time   92.7142

 eigenvalue-minimisations  :  4200
 total energy-change (2. order) : 0.1993612E-07  (-0.1224373E-09)
 number of electron     255.9999996 magnetization 
 augmentation part      -14.6858897 magnetization 

 Broyden mixing:
  rms(total) = 0.13476E-04    rms(broyden)= 0.13476E-04
  rms(prec ) = 0.14525E-04
  weight for this iteration     100.00

 eigenvalues of (default mixing * dielectric matrix)
  average eigenvalue GAMMA=   1.4651
  3.2377  2.6044  2.6044  2.1991  1.8398  1.7485  1.7485  1.4421  1.4421  1.4147
  1.4147  0.9920  0.9920  1.0544  1.0544  0.8338  0.8338  0.8894  0.8522  0.8522
  0.7164

 Free energy of the ion-electron system (eV)
  ---------------------------------------------------
  alpha Z        PSCENC =       107.59325768
  Ewald energy   TEWEN  =     -7312.68491912
  -Hartree energ DENC   =      -477.53840630
  -exchange      EXHF   =         0.00000000
  -V(xc)+E(xc)   XCENC  =      -574.85309305
  PAW double counting   =     27761.81215595   -26643.00124544
  entropy T*S    EENTRO =        -0.00000000
  eigenvalues    EBANDS =       195.43337323
  atomic energy  EATOM  =      6596.20775861
  Solvation  Ediel_sol  =         0.00000000
  ---------------------------------------------------
  free energy    TOTEN  =      -347.03111844 eV

  energy without entropy =     -347.03111844  energy(sigma->0) =     -347.03111844


--------------------------------------------------------------------------------------------------------




--------------------------------------- Iteration      1(  23)  ---------------------------------------


    POTLOK:  cpu time    0.4614: real time    0.4676
    SETDIJ:  cpu time    0.2894: real time    0.6525
     EDDAV:  cpu time   84.5806: real time   85.9243
       DOS:  cpu time    0.0005: real time    0.0005
    --------------------------------------------
      LOOP:  cpu time   85.3320: real time   87.0450

 eigenvalue-minimisations  :  4136
 total energy-change (2. order) :-0.1444278E-08  (-0.1919926E-10)
 number of electron     255.9999996 magnetization 
 augmentation part      -14.6858897 magnetization 

 Free energy of the ion-electron system (eV)
  ---------------------------------------------------
  alpha Z        PSCENC =       107.59325768
  Ewald energy   TEWEN  =     -7312.68491912
  -Hartree energ DENC   =      -477.53836050
  -exchange      EXHF   =         0.00000000
  -V(xc)+E(xc)   XCENC  =      -574.85309336
  PAW double counting   =     27761.79685806   -26642.98594523
  entropy T*S    EENTRO =        -0.00000000
  eigenvalues    EBANDS =       195.43332542
  atomic energy  EATOM  =      6596.20775861
  Solvation  Ediel_sol  =         0.00000000
  ---------------------------------------------------
  free energy    TOTEN  =      -347.03111844 eV

  energy without entropy =     -347.03111844  energy(sigma->0) =     -347.03111844


--------------------------------------------------------------------------------------------------------




 average (electrostatic) potential at core
  the test charge radii are     0.9892
  (the norm of the test charge is              1.0000)
       1 -83.2502       2 -83.2502       3 -83.2502       4 -83.2502       5 -83.2502
       6 -83.2502       7 -83.2502       8 -83.2502       9 -83.2501      10 -83.2503
      11 -83.2501      12 -83.2503      13 -83.2503      14 -83.2501      15 -83.2503
      16 -83.2501      17 -83.2523      18 -83.2499      19 -83.2481      20 -83.2505
      21 -83.2481      22 -83.2505      23 -83.2523      24 -83.2499      25 -83.2501
      26 -83.2503      27 -83.2503      28 -83.2501      29 -83.2501      30 -83.2503
      31 -83.2503      32 -83.2501      33 -83.2499      34 -83.2499      35 -83.2500
      36 -83.2504      37 -83.2500      38 -83.2504      39 -83.2515      40 -83.2500
      41 -83.2500      42 -83.2504      43 -83.2505      44 -83.2505      45 -83.2504
      46 -83.2489      47 -83.2500      48 -83.2504      49 -83.2500      50 -83.2504
      51 -83.2504      52 -83.2489      53 -83.2505      54 -83.2505      55 -83.2500
      56 -83.2504      57 -83.2515      58 -83.2500      59 -83.2500      60 -83.2504
      61 -83.2500      62 -83.2504      63 -83.2499      64 -83.2499
 
 
 
 E-fermi :   5.9165     XC(G=0):  -9.4086     alpha+bet :-11.9779


 k-point     1 :       0.0000    0.0000    0.0000
  band No.  band energies     occupation 
      1      -6.1323      2.00000
      2      -5.0522      2.00000
      3      -5.0509      2.00000
      4      -5.0504      2.00000
      5      -5.0504      2.00000
      6      -5.0499      2.00000
      7      -5.0486      2.00000
      8      -4.0928      2.00000
      9      -4.0901      2.00000
     10      -4.0890      2.00000
     11      -4.0889      2.00000
     12      -4.0888      2.00000
     13      -4.0888      2.00000
     14      -4.0888      2.00000
     15      -4.0887      2.00000
     16      -4.0887      2.00000
     17      -4.0885      2.00000
     18      -4.0875      2.00000
     19      -4.0848      2.00000
     20      -3.8026      2.00000
     21      -3.8019      2.00000
     22      -3.8010      2.00000
     23      -3.8002      2.00000
     24      -1.9906      2.00000
     25      -1.9896      2.00000
     26      -1.9886      2.00000
     27      -1.9886      2.00000
     28      -1.9876      2.00000
     29      -1.9866      2.00000
     30      -1.8286      2.00000
     31      -1.8270      2.00000
     32      -1.8252      2.00000
     33      -1.8250      2.00000
     34      -1.8249      2.00000
     35      -1.8248      2.00000
     36      -1.8248      2.00000
     37      -1.8247      2.00000
     38      -1.8246      2.00000
     39      -1.8244      2.00000
     40      -1.8226      2.00000
     41      -1.8209      2.00000
     42      -1.1421      2.00000
     43      -1.1410      2.00000
     44      -1.1406      2.00000
     45      -1.1395      2.00000
     46       0.3446      2.00000
     47       0.3449      2.00000
     48       0.3473      2.00000
     49       0.3475      2.00000
     50       0.3475      2.00000
     51       0.3476      2.00000
     52       0.3476      2.00000
     53       0.3477      2.00000
     54       0.3478      2.00000
     55       0.3479      2.00000
     56       0.3504      2.00000
     57       0.3507      2.00000
     58       1.9733      2.00000
     59       1.9749      2.00000
     60       1.9751      2.00000
     61       1.9753      2.00000
     62       1.9755      2.00000
     63       1.9756      2.00000
     64       1.9756      2.00000
     65       1.9758      2.00000
     66       1.9760      2.00000
     67       1.9761      2.00000
     68       1.9763      2.00000
[...]


 soft charge-density along one line, spin component           1
         0         1         2         3         4         5         6         7         8         9
 total charge-density along one line
 
 pseudopotential strength for first ion, spin component:           1
 18.414  25.690   0.000   0.000   0.000   0.000   0.000   0.000
 25.690  35.847   0.000   0.000   0.000   0.000   0.000   0.000
  0.000   0.000   4.178   0.000   0.000   7.786   0.000   0.000
  0.000   0.000   0.000   4.178   0.000   0.000   7.786   0.000
  0.000   0.000   0.000   0.000   4.178   0.000   0.000   7.786
  0.000   0.000   7.786   0.000   0.000  14.519   0.000   0.000
  0.000   0.000   0.000   7.786   0.000   0.000  14.519   0.000
  0.000   0.000   0.000   0.000   7.786   0.000   0.000  14.519
 total augmentation occupancy for first ion, spin component:           1
  5.705  -2.161   0.000   0.000   0.020   0.000   0.000  -0.007
 -2.161   0.934   0.000   0.000  -0.009   0.000   0.000   0.003
  0.000   0.000   2.978   0.023   0.000  -0.671  -0.007   0.000
  0.000   0.000   0.023   2.978   0.000  -0.007  -0.671   0.000
  0.020  -0.009   0.000   0.000   2.978   0.000   0.000  -0.671
  0.000   0.000  -0.671  -0.007   0.000   0.160   0.002   0.000
  0.000   0.000  -0.007  -0.671   0.000   0.002   0.160   0.000
 -0.007   0.003   0.000   0.000  -0.671   0.000   0.000   0.160


------------------------ aborting loop because EDIFF is reached ----------------------------------------


    CHARGE:  cpu time    4.6851: real time    4.7538
    FORLOC:  cpu time    0.1810: real time    0.1822
    FORNL :  cpu time   58.9508: real time   59.5058
    STRESS:  cpu time  123.0789: real time  124.9722
    FORCOR:  cpu time    0.6122: real time    0.6197
    FORHAR:  cpu time    0.2766: real time    0.2796
    MIXING:  cpu time    0.0204: real time    0.0225
    OFIELD:  cpu time    0.0000: real time    0.0000

  FORCE on cell =-STRESS in cart. coord.  units (eV):
  Direction    XX          YY          ZZ          XY          YZ          ZX
  --------------------------------------------------------------------------------------
  Alpha Z   107.59326   107.59326   107.59326
  Ewald   -2437.58337 -2437.57373 -2437.57373     0.00000     0.78561    -0.00000
  Hartree   159.17822   159.18005   159.18005    -0.00000     0.08750    -0.00000
  E(xc)    -811.70241  -811.70251  -811.70251     0.00000    -0.00703    -0.00000
  Local    -935.36596  -935.37702  -935.37702    -0.00000    -0.82463     0.00000
  n-local  2491.07602  2491.36932  2490.78681    -1.15489     0.16509    -2.23875
  augment  -372.99182  -372.99193  -372.99193     0.00000    -0.00734     0.00000
  Kinetic  1815.12871  1816.08923  1814.16741    -1.50068    -0.09990    -3.64479
  Fock        0.00000     0.00000     0.00000     0.00000     0.00000     0.00000
  -------------------------------------------------------------------------------------
  Total      15.33264    15.33450    15.33450     0.00000     0.09932     0.00000
  in kB      19.16894    19.17127    19.17127     0.00000     0.12417     0.00000
  external pressure =       19.17 kB  Pullay stress =        0.00 kB


 VOLUME and BASIS-vectors are now :
 -----------------------------------------------------------------------------
  energy-cutoff  :      400.00
  volume of cell :     1281.53
      direct lattice vectors                 reciprocal lattice vectors
    10.862000000  0.000000000  0.000000000     0.092064077  0.000000000  0.000000000
     0.000000000 10.862000000  0.000000000     0.000000000  0.092064077  0.000000000
     0.000000000  0.000000000 10.862000000     0.000000000  0.000000000  0.092064077

  length of vectors
    10.862000000 10.862000000 10.862000000     0.092064077  0.092064077  0.092064077


 FORCES acting on ions
    electron-ion (+dipol)            ewald-force                    non-local-force                 convergence-correction
 -----------------------------------------------------------------------------------------------
   0.521E+00 0.171E-10 0.163E-07   -.474E+00 0.622E-14 -.755E-14   -.181E+00 0.000E+00 0.000E+00   -.425E-05 0.483E-16 -.381E-14
   -.610E-01 -.147E-10 -.146E-07   0.616E-01 0.711E-14 -.711E-14   -.486E-03 0.000E+00 0.000E+00   0.413E-05 -.497E-15 -.462E-14
   0.208E-01 -.621E-13 -.373E-11   -.195E-01 0.711E-14 -.147E-13   -.848E-03 0.000E+00 0.000E+00   -.767E-05 0.593E-15 -.351E-14
   -.163E-01 0.331E-12 -.391E-11   0.153E-01 0.355E-14 -.311E-14   0.972E-03 0.000E+00 0.000E+00   0.796E-05 0.194E-14 -.426E-14
   0.208E-01 0.208E-13 -.320E-10   -.195E-01 0.799E-14 -.178E-14   -.848E-03 0.000E+00 0.000E+00   -.767E-05 0.370E-17 0.168E-14
   -.163E-01 0.248E-13 -.318E-10   0.153E-01 -.533E-14 -.533E-14   0.972E-03 0.000E+00 0.000E+00   0.796E-05 0.180E-14 0.688E-15
   -.261E-02 -.238E-13 -.266E-10   -.805E-02 0.422E-14 -.799E-14   0.674E-02 0.000E+00 0.000E+00   -.694E-05 -.856E-15 0.219E-15
   -.702E-02 -.429E-12 -.264E-10   0.753E-02 0.488E-14 -.115E-13   -.319E-03 0.000E+00 0.000E+00   0.642E-05 -.111E-15 -.284E-15
   -.299E-01 -.561E-01 0.175E-02   0.296E-01 0.568E-01 0.113E-13   0.221E-02 0.121E-02 -.793E-03   0.763E-05 0.640E-05 -.802E-06
   -.300E-01 0.558E-01 0.168E-02   0.298E-01 -.565E-01 0.444E-15   0.219E-02 -.120E-02 -.743E-03   -.787E-05 0.100E-04 0.226E-06
   -.299E-01 0.561E-01 -.175E-02   0.296E-01 -.568E-01 0.711E-14   0.221E-02 -.121E-02 0.793E-03   0.763E-05 -.640E-05 0.802E-06
   -.300E-01 -.558E-01 -.168E-02   0.298E-01 0.565E-01 -.355E-14   0.219E-02 0.120E-02 0.743E-03   -.787E-05 -.100E-04 -.226E-06
   -.522E-03 -.614E-02 0.504E-03   0.913E-03 0.468E-02 0.444E-14   -.499E-04 0.835E-03 -.426E-03   0.638E-05 0.839E-05 0.159E-05
   -.580E-03 0.611E-02 0.513E-03   0.982E-03 -.467E-02 0.444E-15   -.470E-04 -.833E-03 -.433E-03   -.642E-05 0.716E-05 -.647E-06
   -.522E-03 0.614E-02 -.504E-03   0.913E-03 -.468E-02 0.400E-14   -.499E-04 -.835E-03 0.426E-03   0.638E-05 -.839E-05 -.159E-05
   -.580E-03 -.611E-02 -.513E-03   0.982E-03 0.467E-02 -.533E-14   -.470E-04 0.833E-03 0.433E-03   -.642E-05 -.716E-05 0.647E-06
   0.263E-01 0.499E-02 0.499E-02   -.368E-01 -.107E-03 -.107E-03   0.619E-02 -.585E-02 -.585E-02   -.684E-05 0.864E-05 0.864E-05
   -.203E-01 -.147E-03 -.147E-03   0.207E-01 0.319E-04 0.319E-04   -.459E-03 0.284E-04 0.284E-04   0.750E-05 0.722E-05 0.722E-05
   0.263E-01 0.475E-02 -.475E-02   -.368E-01 0.107E-03 -.107E-03   0.616E-02 -.579E-02 0.579E-02   -.571E-05 -.871E-05 0.871E-05
   -.203E-01 -.656E-04 0.656E-04   0.207E-01 -.319E-04 0.319E-04   -.466E-03 0.259E-04 -.259E-04   0.540E-05 -.736E-05 0.736E-05
   0.263E-01 -.475E-02 0.475E-02   -.368E-01 -.107E-03 0.107E-03   0.616E-02 0.579E-02 -.579E-02   -.571E-05 0.871E-05 -.871E-05
   -.203E-01 0.656E-04 -.656E-04   0.207E-01 0.319E-04 -.319E-04   -.466E-03 -.259E-04 0.259E-04   0.540E-05 0.736E-05 -.736E-05
   0.263E-01 -.499E-02 -.499E-02   -.368E-01 0.107E-03 0.107E-03   0.619E-02 0.585E-02 0.585E-02   -.684E-05 -.864E-05 -.864E-05
   -.203E-01 0.147E-03 0.147E-03   0.207E-01 -.319E-04 -.319E-04   -.459E-03 -.284E-04 -.284E-04   0.750E-05 -.722E-05 -.722E-05
   -.299E-01 0.175E-02 -.561E-01   0.296E-01 0.200E-14 0.568E-01   0.221E-02 -.793E-03 0.121E-02   0.763E-05 -.802E-06 0.640E-05
   -.300E-01 0.168E-02 0.558E-01   0.298E-01 0.444E-14 -.565E-01   0.219E-02 -.743E-03 -.120E-02   -.787E-05 0.226E-06 0.100E-04
   -.522E-03 0.504E-03 -.614E-02   0.913E-03 0.289E-14 0.468E-02   -.499E-04 -.426E-03 0.835E-03   0.638E-05 0.159E-05 0.839E-05
   -.580E-03 0.513E-03 0.611E-02   0.982E-03 0.311E-14 -.467E-02   -.470E-04 -.433E-03 -.833E-03   -.642E-05 -.647E-06 0.716E-05
   -.299E-01 -.175E-02 0.561E-01   0.296E-01 0.755E-14 -.568E-01   0.221E-02 0.793E-03 -.121E-02   0.763E-05 0.802E-06 -.640E-05
   -.300E-01 -.168E-02 -.558E-01   0.298E-01 0.107E-13 0.565E-01   0.219E-02 0.743E-03 0.120E-02   -.787E-05 -.226E-06 -.100E-04
   -.522E-03 -.504E-03 0.614E-02   0.913E-03 0.124E-13 -.468E-02   -.499E-04 0.426E-03 -.835E-03   0.638E-05 -.159E-05 -.839E-05
   -.580E-03 -.513E-03 -.611E-02   0.982E-03 0.533E-14 0.467E-02   -.470E-04 0.433E-03 0.833E-03   -.642E-05 0.647E-06 -.716E-05
   -.842E-02 -.202E+00 -.202E+00   0.665E-02 0.177E+00 0.177E+00   0.346E-01 0.489E-01 0.489E-01   0.187E-05 0.487E-05 0.487E-05
   -.518E-01 0.173E-01 0.173E-01   0.523E-01 -.167E-01 -.167E-01   -.554E-03 -.313E-03 -.313E-03   -.211E-05 0.602E-05 0.602E-05
   0.132E-01 0.179E-01 -.520E-02   -.150E-01 -.168E-01 0.669E-02   0.129E-02 -.801E-03 -.109E-02   0.300E-06 -.533E-05 0.607E-05
   -.155E-01 -.874E-02 0.373E-02   0.151E-01 0.807E-02 -.361E-02   0.666E-03 0.886E-03 0.113E-03   -.234E-06 -.659E-05 0.515E-05
   0.132E-01 -.520E-02 0.179E-01   -.150E-01 0.669E-02 -.168E-01   0.129E-02 -.109E-02 -.801E-03   0.300E-06 0.607E-05 -.533E-05
   -.155E-01 0.373E-02 -.874E-02   0.151E-01 -.361E-02 0.807E-02   0.666E-03 0.113E-03 0.886E-03   -.234E-06 0.515E-05 -.659E-05
   0.138E-01 0.848E-03 0.848E-03   -.755E-02 -.362E-02 -.362E-02   -.417E-02 0.301E-02 0.301E-02   -.117E-05 -.659E-05 -.659E-05
   -.763E-02 -.218E-02 -.218E-02   0.755E-02 0.261E-02 0.261E-02   -.838E-04 -.186E-03 -.186E-03   0.127E-05 -.521E-05 -.521E-05
   -.155E-01 -.882E-02 -.381E-02   0.150E-01 0.813E-02 0.364E-02   0.675E-03 0.900E-03 -.760E-04   0.102E-04 0.505E-05 0.452E-05
   0.130E-01 0.179E-01 0.521E-02   -.148E-01 -.168E-01 -.671E-02   0.129E-02 -.805E-03 0.109E-02   -.102E-04 0.759E-05 0.591E-05
   -.520E-01 0.175E-01 -.175E-01   0.524E-01 -.169E-01 0.169E-01   -.543E-03 -.319E-03 0.319E-03   0.930E-05 -.528E-05 0.528E-05
   -.105E-01 -.201E+00 0.201E+00   0.840E-02 0.176E+00 -.176E+00   0.346E-01 0.481E-01 -.481E-01   -.865E-05 -.611E-05 0.611E-05
   -.761E-02 -.221E-02 0.221E-02   0.751E-02 0.263E-02 -.263E-02   -.800E-04 -.180E-03 0.180E-03   0.894E-05 0.482E-05 -.482E-05
   0.138E-01 0.839E-03 -.839E-03   -.750E-02 -.363E-02 0.363E-02   -.419E-02 0.302E-02 -.302E-02   -.902E-05 0.639E-05 -.639E-05
   -.155E-01 0.381E-02 0.882E-02   0.150E-01 -.364E-02 -.813E-02   0.675E-03 0.760E-04 -.900E-03   0.102E-04 -.452E-05 -.505E-05
   0.130E-01 -.521E-02 -.179E-01   -.148E-01 0.671E-02 0.168E-01   0.129E-02 -.109E-02 0.805E-03   -.102E-04 -.591E-05 -.759E-05
   -.155E-01 -.381E-02 -.882E-02   0.150E-01 0.364E-02 0.813E-02   0.675E-03 -.760E-04 0.900E-03   0.102E-04 0.452E-05 0.505E-05
   0.130E-01 0.521E-02 0.179E-01   -.148E-01 -.671E-02 -.168E-01   0.129E-02 0.109E-02 -.805E-03   -.102E-04 0.591E-05 0.759E-05
   -.761E-02 0.221E-02 -.221E-02   0.751E-02 -.263E-02 0.263E-02   -.800E-04 0.180E-03 -.180E-03   0.894E-05 -.482E-05 0.482E-05
   0.138E-01 -.839E-03 0.839E-03   -.750E-02 0.363E-02 -.363E-02   -.419E-02 -.302E-02 0.302E-02   -.902E-05 -.639E-05 0.639E-05
   -.520E-01 -.175E-01 0.175E-01   0.524E-01 0.169E-01 -.169E-01   -.543E-03 0.319E-03 -.319E-03   0.930E-05 0.528E-05 -.528E-05
   -.105E-01 0.201E+00 -.201E+00   0.840E-02 -.176E+00 0.176E+00   0.346E-01 -.481E-01 0.481E-01   -.865E-05 0.611E-05 -.611E-05
   -.155E-01 0.882E-02 0.381E-02   0.150E-01 -.813E-02 -.364E-02   0.675E-03 -.900E-03 0.760E-04   0.102E-04 -.505E-05 -.452E-05
   0.130E-01 -.179E-01 -.521E-02   -.148E-01 0.168E-01 0.671E-02   0.129E-02 0.805E-03 -.109E-02   -.102E-04 -.759E-05 -.591E-05
   0.138E-01 -.848E-03 -.848E-03   -.755E-02 0.362E-02 0.362E-02   -.417E-02 -.301E-02 -.301E-02   -.117E-05 0.659E-05 0.659E-05
   -.763E-02 0.218E-02 0.218E-02   0.755E-02 -.261E-02 -.261E-02   -.838E-04 0.186E-03 0.186E-03   0.127E-05 0.521E-05 0.521E-05
   0.132E-01 0.520E-02 -.179E-01   -.150E-01 -.669E-02 0.168E-01   0.129E-02 0.109E-02 0.801E-03   0.300E-06 -.607E-05 0.533E-05
   -.155E-01 -.373E-02 0.874E-02   0.151E-01 0.361E-02 -.807E-02   0.666E-03 -.113E-03 -.886E-03   -.234E-06 -.515E-05 0.659E-05
   0.132E-01 -.179E-01 0.520E-02   -.150E-01 0.168E-01 -.669E-02   0.129E-02 0.801E-03 0.109E-02   0.300E-06 0.533E-05 -.607E-05
   -.155E-01 0.874E-02 -.373E-02   0.151E-01 -.807E-02 0.361E-02   0.666E-03 -.886E-03 -.113E-03   -.234E-06 0.659E-05 -.515E-05
   -.842E-02 0.202E+00 0.202E+00   0.665E-02 -.177E+00 -.177E+00   0.346E-01 -.489E-01 -.489E-01   0.187E-05 -.487E-05 -.487E-05
   -.518E-01 -.173E-01 -.173E-01   0.523E-01 0.167E-01 0.167E-01   -.554E-03 0.313E-03 0.313E-03   -.211E-05 -.602E-05 -.602E-05
 -----------------------------------------------------------------------------------------------
   -.809E-06 -.674E-11 0.194E-09   -.549E-13 -.763E-14 0.253E-13   0.446E-05 -.867E-17 -.173E-16   0.578E-06 0.252E-13 -.122E-12
 
 
 POSITION                                       TOTAL-FORCE (eV/Angst)
 -----------------------------------------------------------------------------------
      0.01000      0.00000      0.00000        -0.134256      0.000000      0.000000
      5.43100      0.00000      0.00000         0.000166      0.000000      0.000000
      0.00000      5.43100      0.00000         0.000455      0.000000      0.000000
      5.43100      5.43100      0.00000        -0.000043      0.000000      0.000000
      0.00000      0.00000      5.43100         0.000455      0.000000      0.000000
      5.43100      0.00000      5.43100        -0.000043      0.000000      0.000000
      0.00000      5.43100      5.43100        -0.003927      0.000000      0.000000
      5.43100      5.43100      5.43100         0.000196      0.000000      0.000000
      2.71550      2.71550      0.00000         0.001982      0.001940      0.000952
      8.14650      2.71550      0.00000         0.001966     -0.001928      0.000941
      2.71550      8.14650      0.00000         0.001982     -0.001940     -0.000952
      8.14650      8.14650      0.00000         0.001966      0.001928     -0.000941
      2.71550      2.71550      5.43100         0.000347     -0.000617      0.000079
      8.14650      2.71550      5.43100         0.000348      0.000618      0.000079
      2.71550      8.14650      5.43100         0.000347      0.000617     -0.000079
      8.14650      8.14650      5.43100         0.000348     -0.000618     -0.000079
      0.00000      2.71550      2.71550        -0.004310     -0.000953     -0.000953
      5.43100      2.71550      2.71550        -0.000030     -0.000079     -0.000079
      0.00000      8.14650      2.71550        -0.004298     -0.000940      0.000940
      5.43100      8.14650      2.71550        -0.000027     -0.000079      0.000079
      0.00000      2.71550      8.14650        -0.004298      0.000940     -0.000940
      5.43100      2.71550      8.14650        -0.000027      0.000079     -0.000079
      0.00000      8.14650      8.14650        -0.004310      0.000953      0.000953
      5.43100      8.14650      8.14650        -0.000030      0.000079      0.000079
      2.71550      0.00000      2.71550         0.001982      0.000952      0.001940
      8.14650      0.00000      2.71550         0.001966      0.000941     -0.001928
      2.71550      5.43100      2.71550         0.000347      0.000079     -0.000617
      8.14650      5.43100      2.71550         0.000348      0.000079      0.000618
      2.71550      0.00000      8.14650         0.001982     -0.000952     -0.001940
      8.14650      0.00000      8.14650         0.001966     -0.000941      0.001928
      2.71550      5.43100      8.14650         0.000347     -0.000079      0.000617
      8.14650      5.43100      8.14650         0.000348     -0.000079     -0.000618
      1.35775      1.35775      1.35775         0.032809      0.023130      0.023130
      6.78875      1.35775      1.35775        -0.000078      0.000314      0.000314
      1.35775      6.78875      1.35775        -0.000507      0.000317      0.000401
      6.78875      6.78875      1.35775         0.000223      0.000209      0.000233
      1.35775      1.35775      6.78875        -0.000507      0.000401      0.000317
      6.78875      1.35775      6.78875         0.000223      0.000233      0.000209
      1.35775      6.78875      6.78875         0.002089      0.000238      0.000238
      6.78875      6.78875      6.78875        -0.000166      0.000244      0.000244
      4.07325      4.07325      1.35775         0.000227      0.000213     -0.000240
      9.50425      4.07325      1.35775        -0.000501      0.000312     -0.000406
      4.07325      9.50425      1.35775        -0.000078      0.000314     -0.000314
      9.50425      9.50425      1.35775         0.032501      0.022526     -0.022526
      4.07325      4.07325      6.78875        -0.000167      0.000242     -0.000242
      9.50425      4.07325      6.78875         0.002082      0.000235     -0.000235
      4.07325      9.50425      6.78875         0.000227      0.000240     -0.000213
      9.50425      9.50425      6.78875        -0.000501      0.000406     -0.000312
      4.07325      1.35775      4.07325         0.000227     -0.000240      0.000213
      9.50425      1.35775      4.07325        -0.000501     -0.000406      0.000312
      4.07325      6.78875      4.07325        -0.000167     -0.000242      0.000242
      9.50425      6.78875      4.07325         0.002082     -0.000235      0.000235
      4.07325      1.35775      9.50425        -0.000078     -0.000314      0.000314
      9.50425      1.35775      9.50425         0.032501     -0.022526      0.022526
      4.07325      6.78875      9.50425         0.000227     -0.000213      0.000240
      9.50425      6.78875      9.50425        -0.000501     -0.000312      0.000406
      1.35775      4.07325      4.07325         0.002089     -0.000238     -0.000238
      6.78875      4.07325      4.07325        -0.000166     -0.000244     -0.000244
      1.35775      9.50425      4.07325        -0.000507     -0.000401     -0.000317
      6.78875      9.50425      4.07325         0.000223     -0.000233     -0.000209
      1.35775      4.07325      9.50425        -0.000507     -0.000317     -0.000401
      6.78875      4.07325      9.50425         0.000223     -0.000209     -0.000233
      1.35775      9.50425      9.50425         0.032809     -0.023130     -0.023130
      6.78875      9.50425      9.50425        -0.000078     -0.000314     -0.000314
 -----------------------------------------------------------------------------------
    total drift:                                0.000004     -0.000000      0.000000


--------------------------------------------------------------------------------------------------------



  FREE ENERGIE OF THE ION-ELECTRON SYSTEM (eV)
  ---------------------------------------------------
  free  energy   TOTEN  =      -347.03111844 eV

  energy  without entropy=     -347.03111844  energy(sigma->0) =     -347.03111844
 


--------------------------------------------------------------------------------------------------------


    POTLOK:  cpu time    0.7576: real time    0.7699


--------------------------------------------------------------------------------------------------------


     LOOP+:  cpu time 3230.5930: real time 4472.2027
    4ORBIT:  cpu time    0.0000: real time    0.0000

 total amount of memory used by VASP MPI-rank0   576099. kBytes
=======================================================================

   base      :      30000. kBytes
   nonl-proj :      55250. kBytes
   fftplans  :     111003. kBytes
   grid      :      51176. kBytes
   one-center:        196. kBytes
   wavefun   :     328474. kBytes
 
  
  
 General timing and accounting informations for this job:
 ========================================================
  
                  Total CPU time used (sec):     3250.794
                            User time (sec):     3218.856
                          System time (sec):       31.939
                         Elapsed time (sec):     4514.574
  
                   Maximum memory used (kb):      744296.
                   Average memory used (kb):           0.
  
                          Minor page faults:      1196911
                          Major page faults:            0
                 Voluntary context switches:           45
