PROCAR lm decomposed
# of k-points:   96         # of bands:   16         # of ions:    2

 k-point     1 :    0.50000000 0.50000000 0.50000000     weight = 0.01041667

band     1 # energy   -8.17962177 # occ.  2.00000000
 
ion      s     py     pz     px    dxy    dyz    dz2    dxz  x2-y2    tot
    1  0.349  0.006  0.006  0.006  0.001  0.001  0.000  0.001  0.000  0.369
    2  0.349  0.006  0.006  0.006  0.001  0.001  0.000  0.001  0.000  0.369
tot    0.697  0.011  0.011  0.011  0.002  0.002  0.000  0.002  0.000  0.738
 
band     2 # energy   -4.99455445 # occ.  2.00000000
 
ion      s     py     pz     px    dxy    dyz    dz2    dxz  x2-y2    tot
    1  0.252  0.032  0.032  0.032  0.001  0.001  0.000  0.001  0.000  0.353
    2  0.252  0.032  0.032  0.032  0.001  0.001  0.000  0.001  0.000  0.353
tot    0.504  0.065  0.065  0.065  0.003  0.003  0.000  0.003  0.000  0.707
 
band     3 # energy    0.57759739 # occ.  2.00000000
 
ion      s     py     pz     px    dxy    dyz    dz2    dxz  x2-y2    tot
    1  0.000  0.054  0.214  0.053  0.009  0.002  0.001  0.002  0.000  0.336
    2  0.000  0.054  0.214  0.053  0.009  0.002  0.001  0.002  0.000  0.336
tot    0.000  0.107  0.428  0.107  0.018  0.004  0.003  0.005  0.000  0.671
 
band     4 # energy    0.57759779 # occ.  2.00000000
 
ion      s     py     pz     px    dxy    dyz    dz2    dxz  x2-y2    tot
    1  0.000  0.160  0.000  0.160  0.000  0.007  0.000  0.007  0.001  0.336
    2  0.000  0.160  0.000  0.160  0.000  0.007  0.000  0.007  0.001  0.336
tot    0.000  0.321  0.000  0.321  0.000  0.013  0.000  0.013  0.003  0.671
 
band     5 # energy    2.26122933 # occ.  0.00000000
 
ion      s     py     pz     px    dxy    dyz    dz2    dxz  x2-y2    tot
    1  0.157  0.043  0.043  0.043  0.004  0.004  0.000  0.004  0.000  0.300
    2  0.157  0.043  0.043  0.043  0.004  0.004  0.000  0.004  0.000  0.300
tot    0.314  0.087  0.087  0.087  0.009  0.009  0.000  0.009  0.000  0.601
 
band     6 # energy    5.90393219 # occ.  0.00000000
 
ion      s     py     pz     px    dxy    dyz    dz2    dxz  x2-y2    tot
    1  0.000  0.033  0.134  0.033  0.020  0.005  0.026  0.005  0.000  0.256
    2  0.000  0.033  0.134  0.033  0.020  0.005  0.026  0.005  0.000  0.256
tot    0.000  0.067  0.267  0.067  0.040  0.010  0.051  0.010  0.000  0.512
 
band     7 # energy    5.90393234 # occ.  0.00000000
 
ion      s     py     pz     px    dxy    dyz    dz2    dxz  x2-y2    tot
    1  0.000  0.100  0.000  0.100  0.000  0.015  0.000  0.015  0.026  0.256
    2  0.000  0.100  0.000  0.100  0.000  0.015  0.000  0.015  0.026  0.256
tot    0.000  0.201  0.000  0.200  0.000  0.030  0.000  0.030  0.051  0.512
 
band     8 # energy    9.82230361 # occ.  0.00000000
 
ion      s     py     pz     px    dxy    dyz    dz2    dxz  x2-y2    tot
    1  0.007  0.083  0.083  0.083  0.006  0.006  0.000  0.006  0.000  0.274
    2  0.007  0.083  0.083  0.083  0.006  0.006  0.000  0.006  0.000  0.274
tot    0.014  0.167  0.167  0.167  0.011  0.011  0.000  0.011  0.000  0.548
 
band     9 # energy   12.16227553 # occ.  0.00000000
 
ion      s     py     pz     px    dxy    dyz    dz2    dxz  x2-y2    tot
    1  0.010  0.040  0.040  0.040  0.028  0.028  0.000  0.028  0.000  0.212
    2  0.010  0.040  0.040  0.040  0.028  0.028  0.000  0.028  0.000  0.212
tot    0.019  0.080  0.080  0.080  0.055  0.055  0.000  0.055  0.000  0.425
 
band    10 # energy   12.39415988 # occ.  0.00000000
 
ion      s     py     pz     px    dxy    dyz    dz2    dxz  x2-y2    tot
    1  0.059  0.033  0.033  0.033  0.002  0.002  0.000  0.002  0.000  0.164
    2  0.059  0.033  0.033  0.033  0.002  0.002  0.000  0.002  0.000  0.164
tot    0.119  0.066  0.066  0.066  0.004  0.004  0.000  0.004  0.000  0.327
 
band    11 # energy   13.14799367 # occ.  0.00000000
 
ion      s     py     pz     px    dxy    dyz    dz2    dxz  x2-y2    tot
    1  0.000  0.046  0.000  0.045  0.000  0.000  0.000  0.000  0.121  0.212
    2  0.000  0.046  0.000  0.045  0.000  0.000  0.000  0.000  0.121  0.212
tot    0.000  0.091  0.000  0.091  0.000  0.000  0.000  0.000  0.241  0.424
 
band    12 # energy   13.14799527 # occ.  0.00000000
 
ion      s     py     pz     px    dxy    dyz    dz2    dxz  x2-y2    tot
    1  0.000  0.015  0.061  0.015  0.000  0.000  0.121  0.000  0.000  0.212
    2  0.000  0.015  0.061  0.015  0.000  0.000  0.121  0.000  0.000  0.212
tot    0.000  0.030  0.121  0.030  0.000  0.000  0.241  0.000  0.000  0.424
 
band    13 # energy   13.83511605 # occ.  0.00000000
 
ion      s     py     pz     px    dxy    dyz    dz2    dxz  x2-y2    tot
    1  0.000  0.000  0.001  0.000  0.130  0.026  0.065  0.040  0.000  0.261
    2  0.000  0.000  0.001  0.000  0.130  0.026  0.065  0.040  0.000  0.261
tot    0.000  0.000  0.001  0.000  0.259  0.051  0.130  0.080  0.001  0.523
 
band    14 # energy   13.83511607 # occ.  0.00000000
 
ion      s     py     pz     px    dxy    dyz    dz2    dxz  x2-y2    tot
    1  0.000  0.000  0.000  0.000  0.001  0.105  0.000  0.090  0.065  0.261
    2  0.000  0.000  0.000  0.000  0.001  0.105  0.000  0.090  0.065  0.261
tot    0.000  0.001  0.000  0.001  0.001  0.209  0.001  0.180  0.130  0.523
 
band    15 # energy   19.68085231 # occ.  0.00000000
 
ion      s     py     pz     px    dxy    dyz    dz2    dxz  x2-y2    tot
    1  0.015  0.011  0.011  0.011  0.028  0.028  0.000  0.028  0.000  0.132
    2  0.015  0.011  0.011  0.011  0.028  0.028  0.000  0.028  0.000  0.132
tot    0.030  0.023  0.023  0.023  0.056  0.056  0.000  0.056  0.000  0.265
 
band    16 # energy   20.85472442 # occ.  0.00000000
 
ion      s     py     pz     px    dxy    dyz    dz2    dxz  x2-y2    tot
    1  0.034  0.002  0.002  0.002  0.091  0.093  0.000  0.091  0.000  0.315
    2  0.034  0.002  0.002  0.002  0.093  0.091  0.000  0.092  0.000  0.315
tot    0.067  0.004  0.004  0.004  0.184  0.184  0.000  0.183  0.000  0.630
 

 k-point     2 :    0.47826087 0.47826087 0.47826087     weight = 0.01041667

band     1 # energy   -8.19319046 # occ.  2.00000000
 
ion      s     py     pz     px    dxy    dyz    dz2    dxz  x2-y2    tot
    1  0.348  0.006  0.006  0.006  0.001  0.001  0.000  0.001  0.000  0.369
    2  0.348  0.006  0.006  0.006  0.001  0.001  0.000  0.001  0.000  0.369
tot    0.697  0.011  0.011  0.011  0.002  0.002  0.000  0.002  0.000  0.737
 
band     2 # energy   -4.97131566 # occ.  2.00000000
 
ion      s     py     pz     px    dxy    dyz    dz2    dxz  x2-y2    tot
    1  0.252  0.032  0.032  0.032  0.001  0.001  0.000  0.001  0.000  0.354
    2  0.252  0.032  0.032  0.032  0.001  0.001  0.000  0.001  0.000  0.354
tot    0.505  0.065  0.065  0.065  0.003  0.003  0.000  0.003  0.000  0.708
 
band     3 # energy    0.58156641 # occ.  2.00000000
 
ion      s     py     pz     px    dxy    dyz    dz2    dxz  x2-y2    tot
    1  0.000  0.054  0.214  0.053  0.009  0.002  0.001  0.002  0.000  0.336
    2  0.000  0.054  0.214  0.053  0.009  0.002  0.001  0.002  0.000  0.336
tot    0.000  0.107  0.428  0.107  0.018  0.005  0.003  0.005  0.000  0.671
 
band     4 # energy    0.58156679 # occ.  2.00000000
 
ion      s     py     pz     px    dxy    dyz    dz2    dxz  x2-y2    tot
    1  0.000  0.160  0.000  0.160  0.000  0.007  0.000  0.007  0.001  0.336
    2  0.000  0.160  0.000  0.160  0.000  0.007  0.000  0.007  0.001  0.336
tot    0.000  0.321  0.000  0.321  0.000  0.014  0.000  0.014  0.003  0.671
 
band     5 # energy    2.26428833 # occ.  0.00000000
 
ion      s     py     pz     px    dxy    dyz    dz2    dxz  x2-y2    tot
    1  0.157  0.044  0.044  0.044  0.004  0.004  0.000  0.004  0.000  0.300
    2  0.157  0.044  0.044  0.044  0.004  0.004  0.000  0.004  0.000  0.300
tot    0.314  0.087  0.087  0.087  0.009  0.009  0.000  0.009  0.000  0.601
 
band     6 # energy    5.90241979 # occ.  0.00000000
 
ion      s     py     pz     px    dxy    dyz    dz2    dxz  x2-y2    tot
    1  0.000  0.033  0.134  0.034  0.020  0.005  0.025  0.005  0.000  0.256
    2  0.000  0.033  0.134  0.034  0.020  0.005  0.025  0.005  0.000  0.256
tot    0.000  0.067  0.268  0.067  0.040  0.010  0.051  0.010  0.000  0.512
 
band     7 # energy    5.90241991 # occ.  0.00000000
 
ion      s     py     pz     px    dxy    dyz    dz2    dxz  x2-y2    tot
    1  0.000  0.100  0.000  0.100  0.000  0.015  0.000  0.015  0.025  0.256
    2  0.000  0.100  0.000  0.100  0.000  0.015  0.000  0.015  0.025  0.256
tot    0.000  0.201  0.000  0.201  0.000  0.030  0.000  0.030  0.051  0.512
 
band     8 # energy    9.79061545 # occ.  0.00000000
 
ion      s     py     pz     px    dxy    dyz    dz2    dxz  x2-y2    tot
    1  0.008  0.084  0.084  0.084  0.006  0.006  0.000  0.006  0.000  0.278
    2  0.008  0.084  0.084  0.084  0.006  0.006  0.000  0.006  0.000  0.278
tot    0.016  0.168  0.168  0.168  0.012  0.012  0.000  0.012  0.000  0.556
 
band     9 # energy   11.97589520 # occ.  0.00000000
 
ion      s     py     pz     px    dxy    dyz    dz2    dxz  x2-y2    tot
    1  0.027  0.031  0.031  0.031  0.019  0.019  0.000  0.019  0.000  0.178
    2  0.027  0.031  0.031  0.031  0.019  0.019  0.000  0.019  0.000  0.178
tot    0.055  0.062  0.062  0.062  0.039  0.039  0.000  0.039  0.000  0.357
 
band    10 # energy   12.61120683 # occ.  0.00000000
 
ion      s     py     pz     px    dxy    dyz    dz2    dxz  x2-y2    tot
    1  0.040  0.041  0.041  0.041  0.010  0.010  0.000  0.010  0.000  0.193
    2  0.040  0.041  0.041  0.041  0.010  0.010  0.000  0.010  0.000  0.193
tot    0.081  0.083  0.083  0.083  0.019  0.019  0.000  0.019  0.000  0.386
 
band    11 # energy   13.01305721 # occ.  0.00000000
 
ion      s     py     pz     px    dxy    dyz    dz2    dxz  x2-y2    tot
    1  0.000  0.038  0.000  0.038  0.000  0.013  0.000  0.013  0.114  0.216
    2  0.000  0.038  0.000  0.038  0.000  0.013  0.000  0.013  0.114  0.216
tot    0.000  0.076  0.000  0.076  0.000  0.026  0.000  0.026  0.227  0.432
 
band    12 # energy   13.01305864 # occ.  0.00000000
 
ion      s     py     pz     px    dxy    dyz    dz2    dxz  x2-y2    tot
    1  0.000  0.013  0.051  0.013  0.018  0.004  0.114  0.004  0.000  0.216
    2  0.000  0.013  0.051  0.013  0.018  0.004  0.114  0.004  0.000  0.216
tot    0.000  0.025  0.101  0.025  0.035  0.009  0.227  0.009  0.000  0.432
 
band    13 # energy   13.98808689 # occ.  0.00000000
 
ion      s     py     pz     px    dxy    dyz    dz2    dxz  x2-y2    tot
    1  0.000  0.008  0.000  0.008  0.000  0.084  0.000  0.085  0.072  0.257
    2  0.000  0.008  0.000  0.008  0.000  0.084  0.000  0.085  0.072  0.257
tot    0.000  0.016  0.000  0.015  0.000  0.169  0.000  0.170  0.145  0.515
 
band    14 # energy   13.98808708 # occ.  0.00000000
 
ion      s     py     pz     px    dxy    dyz    dz2    dxz  x2-y2    tot
    1  0.000  0.003  0.010  0.003  0.113  0.029  0.072  0.028  0.000  0.257
    2  0.000  0.003  0.010  0.003  0.113  0.029  0.072  0.028  0.000  0.257
tot    0.000  0.005  0.021  0.005  0.226  0.057  0.145  0.056  0.000  0.515
 
band    15 # energy   19.48458521 # occ.  0.00000000
 
ion      s     py     pz     px    dxy    dyz    dz2    dxz  x2-y2    tot
    1  0.019  0.009  0.009  0.009  0.036  0.036  0.000  0.036  0.000  0.156
    2  0.019  0.009  0.009  0.009  0.036  0.036  0.000  0.036  0.000  0.156
tot    0.039  0.018  0.018  0.018  0.073  0.073  0.000  0.073  0.000  0.311
 
band    16 # energy   21.07698895 # occ.  0.00000000
 
ion      s     py     pz     px    dxy    dyz    dz2    dxz  x2-y2    tot
    1  0.030  0.003  0.004  0.004  0.082  0.085  0.000  0.083  0.000  0.291
    2  0.029  0.003  0.004  0.004  0.085  0.084  0.000  0.083  0.000  0.293
tot    0.059  0.007  0.009  0.008  0.168  0.169  0.000  0.166  0.000  0.585
 

 k-point     3 :    0.45652174 0.45652174 0.45652174     weight = 0.01041667

band     1 # energy   -8.23329082 # occ.  2.00000000
 
ion      s     py     pz     px    dxy    dyz    dz2    dxz  x2-y2    tot
    1  0.348  0.006  0.006  0.006  0.001  0.001  0.000  0.001  0.000  0.368
    2  0.348  0.006  0.006  0.006  0.001  0.001  0.000  0.001  0.000  0.368
tot    0.696  0.011  0.011  0.011  0.002  0.002  0.000  0.002  0.000  0.736
 
band     2 # energy   -4.90294037 # occ.  2.00000000
 
ion      s     py     pz     px    dxy    dyz    dz2    dxz  x2-y2    tot
    1  0.253  0.033  0.033  0.033  0.001  0.001  0.000  0.001  0.000  0.355
    2  0.253  0.033  0.033  0.033  0.001  0.001  0.000  0.001  0.000  0.355
tot    0.506  0.065  0.065  0.065  0.003  0.003  0.000  0.003  0.000  0.710
 
band     3 # energy    0.59148039 # occ.  2.00000000
 
ion      s     py     pz     px    dxy    dyz    dz2    dxz  x2-y2    tot
    1  0.000  0.054  0.214  0.053  0.009  0.002  0.001  0.002  0.000  0.336
    2  0.000  0.054  0.214  0.053  0.009  0.002  0.001  0.002  0.000  0.336
tot    0.000  0.107  0.428  0.107  0.018  0.005  0.003  0.005  0.000  0.672
 
band     4 # energy    0.59148078 # occ.  2.00000000
 
ion      s     py     pz     px    dxy    dyz    dz2    dxz  x2-y2    tot
    1  0.000  0.160  0.000  0.160  0.000  0.007  0.000  0.007  0.001  0.336
    2  0.000  0.160  0.000  0.160  0.000  0.007  0.000  0.007  0.001  0.336
tot    0.000  0.321  0.000  0.321  0.000  0.014  0.000  0.014  0.003  0.672
 
band     5 # energy    2.27206356 # occ.  0.00000000
 
ion      s     py     pz     px    dxy    dyz    dz2    dxz  x2-y2    tot
    1  0.157  0.044  0.044  0.044  0.004  0.004  0.000  0.004  0.000  0.301
    2  0.157  0.044  0.044  0.044  0.004  0.004  0.000  0.004  0.000  0.301
tot    0.314  0.088  0.088  0.088  0.008  0.008  0.000  0.008  0.000  0.602
 
band     6 # energy    5.89572013 # occ.  0.00000000
 
ion      s     py     pz     px    dxy    dyz    dz2    dxz  x2-y2    tot
    1  0.000  0.034  0.135  0.034  0.020  0.005  0.025  0.005  0.000  0.257
    2  0.000  0.034  0.135  0.034  0.020  0.005  0.025  0.005  0.000  0.257
tot    0.000  0.067  0.269  0.067  0.040  0.010  0.050  0.010  0.000  0.514
 
band     7 # energy    5.89572027 # occ.  0.00000000
 
ion      s     py     pz     px    dxy    dyz    dz2    dxz  x2-y2    tot
    1  0.000  0.101  0.000  0.101  0.000  0.015  0.000  0.015  0.025  0.257
    2  0.000  0.101  0.000  0.101  0.000  0.015  0.000  0.015  0.025  0.257
tot    0.000  0.202  0.000  0.202  0.000  0.030  0.000  0.030  0.050  0.514
 
band     8 # energy    9.69440972 # occ.  0.00000000
 
ion      s     py     pz     px    dxy    dyz    dz2    dxz  x2-y2    tot
    1  0.011  0.086  0.086  0.086  0.006  0.006  0.000  0.006  0.000  0.289
    2  0.011  0.086  0.086  0.086  0.006  0.006  0.000  0.006  0.000  0.289
tot    0.022  0.173  0.173  0.173  0.013  0.013  0.000  0.013  0.000  0.579
 
band     9 # energy   11.75134414 # occ.  0.00000000
 
ion      s     py     pz     px    dxy    dyz    dz2    dxz  x2-y2    tot
    1  0.032  0.023  0.023  0.023  0.017  0.017  0.000  0.017  0.000  0.151
    2  0.032  0.023  0.023  0.023  0.017  0.017  0.000  0.017  0.000  0.151
tot    0.064  0.045  0.045  0.045  0.034  0.034  0.000  0.034  0.000  0.301
 
band    10 # energy   12.75569574 # occ.  0.00000000
 
ion      s     py     pz     px    dxy    dyz    dz2    dxz  x2-y2    tot
    1  0.000  0.031  0.000  0.031  0.000  0.024  0.000  0.024  0.109  0.218
    2  0.000  0.031  0.000  0.031  0.000  0.024  0.000  0.024  0.109  0.218
tot    0.000  0.062  0.000  0.061  0.000  0.047  0.000  0.047  0.217  0.435
 
band    11 # energy   12.75569705 # occ.  0.00000000
 
ion      s     py     pz     px    dxy    dyz    dz2    dxz  x2-y2    tot
    1  0.000  0.010  0.041  0.010  0.032  0.008  0.109  0.008  0.000  0.218
    2  0.000  0.010  0.041  0.010  0.032  0.008  0.109  0.008  0.000  0.218
tot    0.000  0.020  0.082  0.021  0.063  0.016  0.217  0.016  0.000  0.435
 
band    12 # energy   12.92614968 # occ.  0.00000000
 
ion      s     py     pz     px    dxy    dyz    dz2    dxz  x2-y2    tot
    1  0.032  0.048  0.048  0.048  0.011  0.011  0.000  0.011  0.000  0.207
    2  0.032  0.048  0.048  0.048  0.011  0.011  0.000  0.011  0.000  0.207
tot    0.064  0.095  0.095  0.095  0.022  0.022  0.000  0.022  0.000  0.414
 
band    13 # energy   14.29650605 # occ.  0.00000000
 
ion      s     py     pz     px    dxy    dyz    dz2    dxz  x2-y2    tot
    1  0.000  0.014  0.000  0.014  0.000  0.074  0.000  0.074  0.079  0.256
    2  0.000  0.014  0.000  0.014  0.000  0.074  0.000  0.074  0.079  0.256
tot    0.000  0.029  0.000  0.029  0.000  0.148  0.000  0.149  0.157  0.512
 
band    14 # energy   14.29650637 # occ.  0.00000000
 
ion      s     py     pz     px    dxy    dyz    dz2    dxz  x2-y2    tot
    1  0.000  0.005  0.019  0.005  0.099  0.025  0.079  0.025  0.000  0.256
    2  0.000  0.005  0.019  0.005  0.099  0.025  0.079  0.025  0.000  0.256
tot    0.000  0.010  0.038  0.010  0.198  0.050  0.157  0.049  0.000  0.512
 
band    15 # energy   19.09260573 # occ.  0.00000000
 
ion      s     py     pz     px    dxy    dyz    dz2    dxz  x2-y2    tot
    1  0.025  0.006  0.006  0.006  0.045  0.045  0.000  0.045  0.000  0.179
    2  0.025  0.006  0.006  0.006  0.045  0.045  0.000  0.045  0.000  0.179
tot    0.050  0.013  0.013  0.013  0.090  0.090  0.000  0.090  0.000  0.358
 
band    16 # energy   21.27726007 # occ.  0.00000000
 
ion      s     py     pz     px    dxy    dyz    dz2    dxz  x2-y2    tot
    1  0.001  0.000  0.008  0.013  0.025  0.018  0.063  0.003  0.037  0.168
    2  0.001  0.000  0.006  0.015  0.009  0.034  0.062  0.003  0.037  0.168
tot    0.002  0.000  0.014  0.028  0.034  0.052  0.125  0.006  0.074  0.335
 

 k-point     4 :    0.43478261 0.43478261 0.43478261     weight = 0.01041667

band     1 # energy   -8.29589038 # occ.  2.00000000
 
ion      s     py     pz     px    dxy    dyz    dz2    dxz  x2-y2    tot
    1  0.347  0.005  0.005  0.005  0.001  0.001  0.000  0.001  0.000  0.367
    2  0.347  0.005  0.005  0.005  0.001  0.001  0.000  0.001  0.000  0.367
tot    0.695  0.011  0.011  0.011  0.002  0.002  0.000  0.002  0.000  0.734
 
band     2 # energy   -4.79236193 # occ.  2.00000000
 
ion      s     py     pz     px    dxy    dyz    dz2    dxz  x2-y2    tot
    1  0.254  0.033  0.033  0.033  0.002  0.002  0.000  0.002  0.000  0.356
    2  0.254  0.033  0.033  0.033  0.002  0.002  0.000  0.002  0.000  0.356
tot    0.508  0.065  0.065  0.065  0.003  0.003  0.000  0.003  0.000  0.713
 
band     3 # energy    0.60797654 # occ.  2.00000000
 
ion      s     py     pz     px    dxy    dyz    dz2    dxz  x2-y2    tot
    1  0.000  0.054  0.214  0.053  0.009  0.002  0.001  0.002  0.000  0.336
    2  0.000  0.054  0.214  0.053  0.009  0.002  0.001  0.002  0.000  0.336
tot    0.000  0.107  0.428  0.107  0.019  0.005  0.003  0.005  0.000  0.672
 
band     4 # energy    0.60797693 # occ.  2.00000000
 
ion      s     py     pz     px    dxy    dyz    dz2    dxz  x2-y2    tot
    1  0.000  0.160  0.000  0.160  0.000  0.007  0.000  0.007  0.001  0.336
    2  0.000  0.160  0.000  0.160  0.000  0.007  0.000  0.007  0.001  0.336
tot    0.000  0.321  0.000  0.321  0.000  0.014  0.000  0.014  0.003  0.672
 
band     5 # energy    2.28485493 # occ.  0.00000000
 
ion      s     py     pz     px    dxy    dyz    dz2    dxz  x2-y2    tot
    1  0.156  0.044  0.044  0.044  0.004  0.004  0.000  0.004  0.000  0.301
    2  0.156  0.044  0.044  0.044  0.004  0.004  0.000  0.004  0.000  0.301
tot    0.313  0.088  0.088  0.088  0.008  0.008  0.000  0.008  0.000  0.603
 
band     6 # energy    5.88516444 # occ.  0.00000000
 
ion      s     py     pz     px    dxy    dyz    dz2    dxz  x2-y2    tot
    1  0.000  0.034  0.136  0.034  0.020  0.005  0.024  0.005  0.000  0.258
    2  0.000  0.034  0.136  0.034  0.020  0.005  0.024  0.005  0.000  0.258
tot    0.000  0.068  0.271  0.068  0.040  0.010  0.048  0.010  0.000  0.516
 
band     7 # energy    5.88516463 # occ.  0.00000000
 
ion      s     py     pz     px    dxy    dyz    dz2    dxz  x2-y2    tot
    1  0.000  0.102  0.000  0.102  0.000  0.015  0.000  0.015  0.024  0.258
    2  0.000  0.102  0.000  0.102  0.000  0.015  0.000  0.015  0.024  0.258
tot    0.000  0.204  0.000  0.204  0.000  0.030  0.000  0.030  0.048  0.516
 
band     8 # energy    9.53775309 # occ.  0.00000000
 
ion      s     py     pz     px    dxy    dyz    dz2    dxz  x2-y2    tot
    1  0.016  0.089  0.089  0.089  0.007  0.007  0.000  0.007  0.000  0.304
    2  0.016  0.089  0.089  0.089  0.007  0.007  0.000  0.007  0.000  0.304
tot    0.032  0.177  0.177  0.177  0.014  0.014  0.000  0.014  0.000  0.607
 
band     9 # energy   11.57637525 # occ.  0.00000000
 
ion      s     py     pz     px    dxy    dyz    dz2    dxz  x2-y2    tot
    1  0.032  0.016  0.016  0.016  0.015  0.015  0.000  0.015  0.000  0.126
    2  0.032  0.016  0.016  0.016  0.015  0.015  0.000  0.015  0.000  0.126
tot    0.065  0.032  0.032  0.032  0.031  0.031  0.000  0.031  0.000  0.253
 
band    10 # energy   12.48372623 # occ.  0.00000000
 
ion      s     py     pz     px    dxy    dyz    dz2    dxz  x2-y2    tot
    1  0.000  0.026  0.000  0.026  0.000  0.028  0.000  0.028  0.107  0.216
    2  0.000  0.026  0.000  0.026  0.000  0.028  0.000  0.028  0.107  0.216
tot    0.000  0.052  0.000  0.052  0.000  0.056  0.000  0.056  0.215  0.432
 
band    11 # energy   12.48372754 # occ.  0.00000000
 
ion      s     py     pz     px    dxy    dyz    dz2    dxz  x2-y2    tot
    1  0.000  0.009  0.035  0.009  0.037  0.009  0.107  0.009  0.000  0.216
    2  0.000  0.009  0.035  0.009  0.037  0.009  0.107  0.009  0.000  0.216
tot    0.000  0.017  0.070  0.018  0.075  0.019  0.215  0.019  0.000  0.432
 
band    12 # energy   13.25252229 # occ.  0.00000000
 
ion      s     py     pz     px    dxy    dyz    dz2    dxz  x2-y2    tot
    1  0.025  0.052  0.052  0.052  0.010  0.010  0.000  0.010  0.000  0.213
    2  0.025  0.052  0.052  0.052  0.010  0.010  0.000  0.010  0.000  0.213
tot    0.050  0.105  0.105  0.105  0.021  0.021  0.000  0.021  0.000  0.426
 
band    13 # energy   14.65622053 # occ.  0.00000000
 
ion      s     py     pz     px    dxy    dyz    dz2    dxz  x2-y2    tot
    1  0.000  0.018  0.000  0.018  0.000  0.070  0.000  0.070  0.082  0.258
    2  0.000  0.018  0.000  0.018  0.000  0.070  0.000  0.070  0.082  0.258
tot    0.000  0.036  0.000  0.036  0.000  0.140  0.000  0.141  0.163  0.516
 
band    14 # energy   14.65622085 # occ.  0.00000000
 
ion      s     py     pz     px    dxy    dyz    dz2    dxz  x2-y2    tot
    1  0.000  0.006  0.024  0.006  0.094  0.024  0.082  0.023  0.000  0.258
    2  0.000  0.006  0.024  0.006  0.094  0.024  0.082  0.023  0.000  0.258
tot    0.000  0.012  0.048  0.012  0.187  0.047  0.163  0.047  0.000  0.516
 
band    15 # energy   18.67529340 # occ.  0.00000000
 
ion      s     py     pz     px    dxy    dyz    dz2    dxz  x2-y2    tot
    1  0.030  0.004  0.004  0.004  0.051  0.051  0.000  0.051  0.000  0.194
    2  0.030  0.004  0.004  0.004  0.051  0.051  0.000  0.051  0.000  0.194
tot    0.060  0.008  0.008  0.008  0.102  0.102  0.000  0.102  0.000  0.388
 
band    16 # energy   20.79548357 # occ.  0.00000000
 
ion      s     py     pz     px    dxy    dyz    dz2    dxz  x2-y2    tot
    1  0.000  0.001  0.006  0.012  0.009  0.020  0.043  0.002  0.054  0.149
    2  0.000  0.001  0.006  0.012  0.009  0.020  0.043  0.002  0.055  0.149
tot    0.000  0.003  0.012  0.025  0.019  0.040  0.087  0.005  0.109  0.299
 

 k-point     5 :    0.41304348 0.41304348 0.41304348     weight = 0.01041667

band     1 # energy   -8.37402088 # occ.  2.00000000
 
ion      s     py     pz     px    dxy    dyz    dz2    dxz  x2-y2    tot
    1  0.346  0.005  0.005  0.005  0.001  0.001  0.000  0.001  0.000  0.365
    2  0.346  0.005  0.005  0.005  0.001  0.001  0.000  0.001  0.000  0.365
tot    0.693  0.011  0.011  0.011  0.002  0.002  0.000  0.002  0.000  0.731
 
band     2 # energy   -4.64332307 # occ.  2.00000000
 
ion      s     py     pz     px    dxy    dyz    dz2    dxz  x2-y2    tot
    1  0.255  0.033  0.033  0.033  0.002  0.002  0.000  0.002  0.000  0.358
    2  0.255  0.033  0.033  0.033  0.002  0.002  0.000  0.002  0.000  0.358
tot    0.510  0.066  0.066  0.066  0.003  0.003  0.000  0.003  0.000  0.717
 
band     3 # energy    0.63127472 # occ.  2.00000000
 
ion      s     py     pz     px    dxy    dyz    dz2    dxz  x2-y2    tot
    1  0.000  0.054  0.214  0.053  0.010  0.002  0.001  0.002  0.000  0.336
    2  0.000  0.054  0.214  0.053  0.010  0.002  0.001  0.002  0.000  0.336
tot    0.000  0.107  0.428  0.107  0.019  0.005  0.003  0.005  0.000  0.673
 
band     4 # energy    0.63127512 # occ.  2.00000000
 
ion      s     py     pz     px    dxy    dyz    dz2    dxz  x2-y2    tot
    1  0.000  0.160  0.000  0.160  0.000  0.007  0.000  0.007  0.001  0.336
    2  0.000  0.160  0.000  0.160  0.000  0.007  0.000  0.007  0.001  0.336
tot    0.000  0.321  0.000  0.321  0.000  0.014  0.000  0.014  0.003  0.673
 
band     5 # energy    2.30242530 # occ.  0.00000000
 
ion      s     py     pz     px    dxy    dyz    dz2    dxz  x2-y2    tot
    1  0.156  0.045  0.045  0.045  0.004  0.004  0.000  0.004  0.000  0.302
    2  0.156  0.045  0.045  0.045  0.004  0.004  0.000  0.004  0.000  0.302
tot    0.312  0.089  0.089  0.089  0.008  0.008  0.000  0.008  0.000  0.604
 
band     6 # energy    5.86831235 # occ.  0.00000000
 
ion      s     py     pz     px    dxy    dyz    dz2    dxz  x2-y2    tot
    1  0.000  0.034  0.137  0.034  0.020  0.005  0.023  0.005  0.000  0.260
    2  0.000  0.034  0.137  0.034  0.020  0.005  0.023  0.005  0.000  0.260
tot    0.000  0.069  0.275  0.069  0.041  0.010  0.046  0.010  0.000  0.519
 
band     7 # energy    5.86831257 # occ.  0.00000000
 
ion      s     py     pz     px    dxy    dyz    dz2    dxz  x2-y2    tot
    1  0.000  0.103  0.000  0.103  0.000  0.015  0.000  0.015  0.023  0.260
    2  0.000  0.103  0.000  0.103  0.000  0.015  0.000  0.015  0.023  0.260
tot    0.000  0.206  0.000  0.206  0.000  0.031  0.000  0.031  0.046  0.519
 
band     8 # energy    9.31783060 # occ.  0.00000000
 
ion      s     py     pz     px    dxy    dyz    dz2    dxz  x2-y2    tot
    1  0.022  0.090  0.090  0.090  0.008  0.008  0.000  0.008  0.000  0.316
    2  0.022  0.090  0.090  0.090  0.008  0.008  0.000  0.008  0.000  0.316
tot    0.044  0.179  0.179  0.179  0.016  0.016  0.000  0.016  0.000  0.632
 
band     9 # energy   11.45698510 # occ.  0.00000000
 
ion      s     py     pz     px    dxy    dyz    dz2    dxz  x2-y2    tot
    1  0.031  0.011  0.011  0.011  0.014  0.014  0.000  0.014  0.000  0.107
    2  0.031  0.011  0.011  0.011  0.014  0.014  0.000  0.014  0.000  0.107
tot    0.061  0.023  0.023  0.023  0.028  0.028  0.000  0.028  0.000  0.215
 
band    10 # energy   12.22142215 # occ.  0.00000000
 
ion      s     py     pz     px    dxy    dyz    dz2    dxz  x2-y2    tot
    1  0.000  0.023  0.000  0.023  0.000  0.030  0.000  0.030  0.108  0.213
    2  0.000  0.023  0.000  0.023  0.000  0.030  0.000  0.030  0.108  0.213
tot    0.000  0.046  0.000  0.046  0.000  0.059  0.000  0.059  0.216  0.426
 
band    11 # energy   12.22142351 # occ.  0.00000000
 
ion      s     py     pz     px    dxy    dyz    dz2    dxz  x2-y2    tot
    1  0.000  0.008  0.030  0.008  0.039  0.010  0.108  0.010  0.000  0.213
    2  0.000  0.008  0.030  0.008  0.039  0.010  0.108  0.010  0.000  0.213
tot    0.000  0.015  0.061  0.015  0.079  0.020  0.216  0.020  0.000  0.426
 
band    12 # energy   13.56419223 # occ.  0.00000000
 
ion      s     py     pz     px    dxy    dyz    dz2    dxz  x2-y2    tot
    1  0.019  0.056  0.056  0.056  0.009  0.009  0.000  0.009  0.000  0.213
    2  0.019  0.056  0.056  0.056  0.009  0.009  0.000  0.009  0.000  0.213
tot    0.038  0.112  0.112  0.112  0.017  0.017  0.000  0.017  0.000  0.426
 
band    13 # energy   15.04195407 # occ.  0.00000000
 
ion      s     py     pz     px    dxy    dyz    dz2    dxz  x2-y2    tot
    1  0.000  0.020  0.000  0.020  0.000  0.069  0.000  0.069  0.083  0.262
    2  0.000  0.020  0.000  0.020  0.000  0.069  0.000  0.069  0.083  0.262
tot    0.000  0.040  0.000  0.040  0.000  0.138  0.000  0.139  0.166  0.524
 
band    14 # energy   15.04195433 # occ.  0.00000000
 
ion      s     py     pz     px    dxy    dyz    dz2    dxz  x2-y2    tot
    1  0.000  0.007  0.027  0.007  0.092  0.023  0.083  0.023  0.000  0.262
    2  0.000  0.007  0.027  0.007  0.092  0.023  0.083  0.023  0.000  0.262
tot    0.000  0.013  0.054  0.014  0.185  0.046  0.166  0.046  0.000  0.524
 
band    15 # energy   18.28592810 # occ.  0.00000000
 
ion      s     py     pz     px    dxy    dyz    dz2    dxz  x2-y2    tot
    1  0.034  0.002  0.002  0.002  0.055  0.055  0.000  0.055  0.000  0.205
    2  0.034  0.002  0.002  0.002  0.055  0.055  0.000  0.055  0.000  0.205
tot    0.069  0.003  0.003  0.003  0.111  0.111  0.000  0.111  0.000  0.410
 
band    16 # energy   20.33015447 # occ.  0.00000000
 
ion      s     py     pz     px    dxy    dyz    dz2    dxz  x2-y2    tot
    1  0.000  0.001  0.006  0.012  0.008  0.018  0.043  0.002  0.052  0.142
    2  0.000  0.001  0.006  0.012  0.008  0.018  0.043  0.002  0.052  0.142
tot    0.000  0.002  0.012  0.024  0.017  0.036  0.086  0.003  0.103  0.283
 

 k-point     6 :    0.39130435 0.39130435 0.39130435     weight = 0.01041667

band     1 # energy   -8.46937599 # occ.  2.00000000
 
ion      s     py     pz     px    dxy    dyz    dz2    dxz  x2-y2    tot
    1  0.346  0.005  0.005  0.005  0.001  0.001  0.000  0.001  0.000  0.364
    2  0.346  0.005  0.005  0.005  0.001  0.001  0.000  0.001  0.000  0.364
tot    0.692  0.010  0.010  0.010  0.002  0.002  0.000  0.002  0.000  0.728
 
band     2 # energy   -4.46716628 # occ.  2.00000000
 
ion      s     py     pz     px    dxy    dyz    dz2    dxz  x2-y2    tot
    1  0.256  0.033  0.033  0.033  0.002  0.002  0.000  0.002  0.000  0.361
    2  0.256  0.033  0.033  0.033  0.002  0.002  0.000  0.002  0.000  0.361
tot    0.512  0.066  0.066  0.066  0.004  0.004  0.000  0.004  0.000  0.722