# Thermal properties / unit cell (natom)

unit:
  temperature:   K
  free_energy:   kJ/mol
  entropy:       J/K/mol
  heat_capacity: J/K/mol

natom: 2    
cutoff_frequency:    0.000
num_modes: 3072
num_integrated_modes: 3072

zero_point_energy:      11.9102019
high_T_entropy:        164.9522714

thermal_properties:
- temperature:         0.0000000
  free_energy:        11.9102019
  entropy:             0.0000000
  heat_capacity:       0.0000000
  energy:             11.9102019

- temperature:        10.0000000
  free_energy:        11.9101968
  entropy:             0.0027929
  heat_capacity:       0.0107355
  energy:             11.9102247

- temperature:        20.0000000
  free_energy:        11.9100464
  entropy:             0.0384342
  heat_capacity:       0.1608801
  energy:             11.9108150

- temperature:        30.0000000
  free_energy:        11.9089469
  entropy:             0.2196718
  heat_capacity:       0.9233682
  energy:             11.9155371

- temperature:        40.0000000
  free_energy:        11.9047024
  entropy:             0.6809124
  heat_capacity:       2.4630650
  energy:             11.9319389

- temperature:        50.0000000
  free_energy:        11.8943355
  entropy:             1.4376981
  heat_capacity:       4.4333432
  energy:             11.9662204

- temperature:        60.0000000
  free_energy:        11.8751617
  entropy:             2.4305328
  heat_capacity:       6.5267627
  energy:             12.0209937

- temperature:        70.0000000
  free_energy:        11.8451582
  entropy:             3.5940132
  heat_capacity:       8.6185371
  energy:             12.0967392

- temperature:        80.0000000
  free_energy:        11.8028746
  entropy:             4.8801184
  heat_capacity:      10.6869372
  energy:             12.1932841

- temperature:        90.0000000
  free_energy:        11.7472530
  entropy:             6.2574224
  heat_capacity:      12.7380129
  energy:             12.3104210

- temperature:       100.0000000
  free_energy:        11.6774925
  entropy:             7.7049939
  heat_capacity:      14.7729671
  energy:             12.4479919

- temperature:       110.0000000
  free_energy:        11.5929703
  entropy:             9.2074988
  heat_capacity:      16.7821294
  energy:             12.6057952

- temperature:       120.0000000
  free_energy:        11.4932013
  entropy:            10.7524335
  heat_capacity:      18.7488824
  energy:             12.7834933

- temperature:       130.0000000
  free_energy:        11.3778167
  entropy:            12.3288736
  heat_capacity:      20.6549590
  energy:             12.9805703

- temperature:       140.0000000
  free_energy:        11.2465515
  entropy:            13.9270305
  heat_capacity:      22.4841692
  energy:             13.1963358

- temperature:       150.0000000
  free_energy:        11.0992330
  entropy:            15.5381533
  heat_capacity:      24.2242265
  energy:             13.4299560

- temperature:       160.0000000
  free_energy:        10.9357710
  entropy:            17.1545322
  heat_capacity:      25.8671843
  energy:             13.6804962

- temperature:       170.0000000
  free_energy:        10.7561472
  entropy:            18.7695016
  heat_capacity:      27.4090787
  energy:             13.9469625

- temperature:       180.0000000
  free_energy:        10.5604047
  entropy:            20.3774093
  heat_capacity:      28.8492214
  energy:             14.2283383

- temperature:       190.0000000
  free_energy:        10.3486383
  entropy:            21.9735538
  heat_capacity:      30.1894133
  energy:             14.5236135

- temperature:       200.0000000
  free_energy:        10.1209857
  entropy:            23.5540976
  heat_capacity:      31.4332195
  energy:             14.8318052

- temperature:       210.0000000
  free_energy:         9.8776187
  entropy:            25.1159696
  heat_capacity:      32.5853631
  energy:             15.1519723

- temperature:       220.0000000
  free_energy:         9.6187366
  entropy:            26.6567649
  heat_capacity:      33.6512483
  energy:             15.4832249

- temperature:       230.0000000
  free_energy:         9.3445598
  entropy:            28.1746479
  heat_capacity:      34.6366041
  energy:             15.8247288

- temperature:       240.0000000
  free_energy:         9.0553246
  entropy:            29.6682637
  heat_capacity:      35.5472281
  energy:             16.1757079

- temperature:       250.0000000
  free_energy:         8.7512786
  entropy:            31.1366586
  heat_capacity:      36.3888096
  energy:             16.5354433

- temperature:       260.0000000
  free_energy:         8.4326776
  entropy:            32.5792100
  heat_capacity:      37.1668138
  energy:             16.9032722

- temperature:       270.0000000
  free_energy:         8.0997818
  entropy:            33.9955671
  heat_capacity:      37.8864105
  energy:             17.2785849

- temperature:       280.0000000
  free_energy:         7.7528540
  entropy:            35.3855995
  heat_capacity:      38.5524358
  energy:             17.6608219

- temperature:       290.0000000
  free_energy:         7.3921574
  entropy:            36.7493539
  heat_capacity:      39.1693761
  energy:             18.0494700

- temperature:       300.0000000
  free_energy:         7.0179539
  entropy:            38.0870189
  heat_capacity:      39.7413674
  energy:             18.4440596

- temperature:       310.0000000
  free_energy:         6.6305030
  entropy:            39.3988944
  heat_capacity:      40.2722058
  energy:             18.8441602

- temperature:       320.0000000
  free_energy:         6.2300607
  entropy:            40.6853670
  heat_capacity:      40.7653632
  energy:             19.2493781

- temperature:       330.0000000
  free_energy:         5.8168788
  entropy:            41.9468899
  heat_capacity:      41.2240073
  energy:             19.6593525

- temperature:       340.0000000
  free_energy:         5.3912044
  entropy:            43.1839661
  heat_capacity:      41.6510235
  energy:             20.0737529

- temperature:       350.0000000
  free_energy:         4.9532792
  entropy:            44.3971346
  heat_capacity:      42.0490366
  energy:             20.4922763

- temperature:       360.0000000
  free_energy:         4.5033395
  entropy:            45.5869594
  heat_capacity:      42.4204333
  energy:             20.9146449

- temperature:       370.0000000
  free_energy:         4.0416159
  entropy:            46.7540206
  heat_capacity:      42.7673826
  energy:             21.3406035

- temperature:       380.0000000
  free_energy:         3.5683330
  entropy:            47.8989070
  heat_capacity:      43.0918558
  energy:             21.7699177

- temperature:       390.0000000
  free_energy:         3.0837097
  entropy:            49.0222103
  heat_capacity:      43.3956451
  energy:             22.2023717

- temperature:       400.0000000
  free_energy:         2.5879588
  entropy:            50.1245207
  heat_capacity:      43.6803801
  energy:             22.6377671

- temperature:       410.0000000
  free_energy:         2.0812873
  entropy:            51.2064230
  heat_capacity:      43.9475434
  energy:             23.0759207

- temperature:       420.0000000
  free_energy:         1.5638964
  entropy:            52.2684939
  heat_capacity:      44.1984853
  energy:             23.5166639

- temperature:       430.0000000
  free_energy:         1.0359816
  entropy:            53.3112996
  heat_capacity:      44.4344357
  energy:             23.9598405

- temperature:       440.0000000
  free_energy:         0.4977328
  entropy:            54.3353945
  heat_capacity:      44.6565167
  energy:             24.4053064

- temperature:       450.0000000
  free_energy:        -0.0506657
  entropy:            55.3413193
  heat_capacity:      44.8657520
  energy:             24.8529280

- temperature:       460.0000000
  free_energy:        -0.6090348
  entropy:            56.3296011
  heat_capacity:      45.0630773
  energy:             25.3025817

- temperature:       470.0000000
  free_energy:        -1.1772006
  entropy:            57.3007517
  heat_capacity:      45.2493480
  energy:             25.7541527

- temperature:       480.0000000
  free_energy:        -1.7549944
  entropy:            58.2552683
  heat_capacity:      45.4253473
  energy:             26.2075345

- temperature:       490.0000000
  free_energy:        -2.3422521
  entropy:            59.1936326
  heat_capacity:      45.5917929
  energy:             26.6626278

- temperature:       500.0000000
  free_energy:        -2.9388147
  entropy:            60.1163108
  heat_capacity:      45.7493432
  energy:             27.1193407

- temperature:       510.0000000
  free_energy:        -3.5445276
  entropy:            61.0237542
  heat_capacity:      45.8986027
  energy:             27.5775871

- temperature:       520.0000000
  free_energy:        -4.1592405
  entropy:            61.9163989
  heat_capacity:      46.0401270
  energy:             28.0372869

- temperature:       530.0000000
  free_energy:        -4.7828076
  entropy:            62.7946663
  heat_capacity:      46.1744276
  energy:             28.4983655

- temperature:       540.0000000
  free_energy:        -5.4150872
  entropy:            63.6589634
  heat_capacity:      46.3019754
  energy:             28.9607530

- temperature:       550.0000000
  free_energy:        -6.0559416
  entropy:            64.5096829
  heat_capacity:      46.4232047
  energy:             29.4243840

- temperature:       560.0000000
  free_energy:        -6.7052369
  entropy:            65.3472040
  heat_capacity:      46.5385165
  energy:             29.8891974

- temperature:       570.0000000
  free_energy:        -7.3628429
  entropy:            66.1718925
  heat_capacity:      46.6482811
  energy:             30.3551358

- temperature:       580.0000000
  free_energy:        -8.0286332
  entropy:            66.9841014
  heat_capacity:      46.7528411
  energy:             30.8221456

- temperature:       590.0000000
  free_energy:        -8.7024845
  entropy:            67.7841709
  heat_capacity:      46.8525136
  energy:             31.2901764

- temperature:       600.0000000
  free_energy:        -9.3842772
  entropy:            68.5724297
  heat_capacity:      46.9475926
  energy:             31.7591806

- temperature:       610.0000000
  free_energy:       -10.0738948
  entropy:            69.3491944
  heat_capacity:      47.0383505
  energy:             32.2291138

- temperature:       620.0000000
  free_energy:       -10.7712238
  entropy:            70.1147707
  heat_capacity:      47.1250406
  energy:             32.6999340

- temperature:       630.0000000
  free_energy:       -11.4761539
  entropy:            70.8694535
  heat_capacity:      47.2078980
  energy:             33.1716018

- temperature:       640.0000000
  free_energy:       -12.1885775
  entropy:            71.6135273
  heat_capacity:      47.2871415
  energy:             33.6440800

- temperature:       650.0000000
  free_energy:       -12.9083900
  entropy:            72.3472666
  heat_capacity:      47.3629747
  energy:             34.1173333

- temperature:       660.0000000
  free_energy:       -13.6354893
  entropy:            73.0709364
  heat_capacity:      47.4355873
  energy:             34.5913287

- temperature:       670.0000000
  free_energy:       -14.3697760
  entropy:            73.7847924
  heat_capacity:      47.5051565
  energy:             35.0660349

- temperature:       680.0000000
  free_energy:       -15.1111532
  entropy:            74.4890816
  heat_capacity:      47.5718473
  energy:             35.5414223

- temperature:       690.0000000
  free_energy:       -15.8595265
  entropy:            75.1840425
  heat_capacity:      47.6358141
  energy:             36.0174628

- temperature:       700.0000000
  free_energy:       -16.6148038
  entropy:            75.8699053
  heat_capacity:      47.6972011
  energy:             36.4941299

- temperature:       710.0000000
  free_energy:       -17.3768951
  entropy:            76.5468925
  heat_capacity:      47.7561433
  energy:             36.9713987

- temperature:       720.0000000
  free_energy:       -18.1457127
  entropy:            77.2152192
  heat_capacity:      47.8127671
  energy:             37.4492451

- temperature:       730.0000000
  free_energy:       -18.9211713
  entropy:            77.8750930
  heat_capacity:      47.8671910
  energy:             37.9276467

- temperature:       740.0000000
  free_energy:       -19.7031871
  entropy:            78.5267149
  heat_capacity:      47.9195259
  energy:             38.4065819

- temperature:       750.0000000
  free_energy:       -20.4916787
  entropy:            79.1702790
  heat_capacity:      47.9698763
  energy:             38.8860306

- temperature:       760.0000000
  free_energy:       -21.2865664
  entropy:            79.8059732
  heat_capacity:      48.0183399
  energy:             39.3659732

- temperature:       770.0000000
  free_energy:       -22.0877725
  entropy:            80.4339791
  heat_capacity:      48.0650087
  energy:             39.8463914

- temperature:       780.0000000
  free_energy:       -22.8952210
  entropy:            81.0544726
  heat_capacity:      48.1099694
  energy:             40.3272677

- temperature:       790.0000000
  free_energy:       -23.7088375
  entropy:            81.6676239
  heat_capacity:      48.1533034
  energy:             40.8085853

- temperature:       800.0000000
  free_energy:       -24.5285495
  entropy:            82.2735976
  heat_capacity:      48.1950874
  energy:             41.2903286

- temperature:       810.0000000
  free_energy:       -25.3542861
  entropy:            82.8725534
  heat_capacity:      48.2353936
  energy:             41.7724822

- temperature:       820.0000000
  free_energy:       -26.1859777
  entropy:            83.4646457
  heat_capacity:      48.2742902
  energy:             42.2550317

- temperature:       830.0000000
  free_energy:       -27.0235566
  entropy:            84.0500242
  heat_capacity:      48.3118416
  energy:             42.7379635

- temperature:       840.0000000
  free_energy:       -27.8669563
  entropy:            84.6288341
  heat_capacity:      48.3481085
  energy:             43.2212643

- temperature:       850.0000000
  free_energy:       -28.7161119
  entropy:            85.2012158
  heat_capacity:      48.3831483
  energy:             43.7049216

- temperature:       860.0000000
  free_energy:       -29.5709597
  entropy:            85.7673058
  heat_capacity:      48.4170151
  energy:             44.1889233

- temperature:       870.0000000
  free_energy:       -30.4314375
  entropy:            86.3272363
  heat_capacity:      48.4497604
  energy:             44.6732581

- temperature:       880.0000000
  free_energy:       -31.2974843
  entropy:            86.8811355
  heat_capacity:      48.4814326
  energy:             45.1579150

- temperature:       890.0000000
  free_energy:       -32.1690405
  entropy:            87.4291279
  heat_capacity:      48.5120778
  energy:             45.6428834

- temperature:       900.0000000
  free_energy:       -33.0460476
  entropy:            87.9713342
  heat_capacity:      48.5417395
  energy:             46.1281533

- temperature:       910.0000000
  free_energy:       -33.9284483
  entropy:            88.5078717
  heat_capacity:      48.5704589
  energy:             46.6137150

- temperature:       920.0000000
  free_energy:       -34.8161865
  entropy:            89.0388542
  heat_capacity:      48.5982754
  energy:             47.0995594

- temperature:       930.0000000
  free_energy:       -35.7092072
  entropy:            89.5643923
  heat_capacity:      48.6252260
  energy:             47.5856776

- temperature:       940.0000000
  free_energy:       -36.6074565
  entropy:            90.0845933
  heat_capacity:      48.6513460
  energy:             48.0720612

- temperature:       950.0000000
  free_energy:       -37.5108816
  entropy:            90.5995616
  heat_capacity:      48.6766690
  energy:             48.5587019

- temperature:       960.0000000
  free_energy:       -38.4194307
  entropy:            91.1093986
  heat_capacity:      48.7012268
  energy:             49.0455920

- temperature:       970.0000000
  free_energy:       -39.3330528
  entropy:            91.6142029
  heat_capacity:      48.7250498
  energy:             49.5327240

- temperature:       980.0000000
  free_energy:       -40.2516983
  entropy:            92.1140703
  heat_capacity:      48.7481667
  energy:             50.0200906

- temperature:       990.0000000
  free_energy:       -41.1753181
  entropy:            92.6090941
  heat_capacity:      48.7706050
  energy:             50.5076851

- temperature:      1000.0000000
  free_energy:       -42.1038643
  entropy:            93.0993649
  heat_capacity:      48.7923908
  energy:             50.9955006
