<?xml version="1.0" encoding="ISO-8859-1"?>
<modeling>
 <generator>
  <i name="program" type="string">vasp </i>
  <i name="version" type="string">5.4.4.18Apr17-6-g9f103f2a35  </i>
  <i name="subversion" type="string">(build Aug 27 2018 20:03:23) complex            parallel </i>
  <i name="platform" type="string">LinuxIFC </i>
  <i name="date" type="string">2018 09 11 </i>
  <i name="time" type="string">10:06:59 </i>
 </generator>
 <incar>
  <i type="string" name="PREC">accurate</i>
  <i type="int" name="IALGO">    38</i>
  <i type="logical" name="ADDGRID"> T  </i>
  <i type="int" name="NELMIN">     5</i>
  <i type="int" name="IBRION">    -1</i>
  <i name="EDIFF">      0.00000001</i>
  <i name="ENCUT">    400.00000000</i>
  <i type="logical" name="LREAL"> F  </i>
  <i type="int" name="ISMEAR">     0</i>
  <i name="SIGMA">      0.01000000</i>
  <i type="logical" name="LWAVE"> F  </i>
  <i type="logical" name="LCHARG"> F  </i>
  <v type="int" name="KPOINT_BSE">    -1     0     0     0</v>
  <i type="string" name="GGA"> PE</i>
 </incar>
 <structure name="primitive_cell" >
  <crystal>
   <varray name="basis" >
    <v>      10.86200000       0.00000000       0.00000000 </v>
    <v>       0.00000000      10.86200000       0.00000000 </v>
    <v>       0.00000000       0.00000000      10.86200000 </v>
   </varray>
   <i name="volume">   1281.53182393 </i>
   <varray name="rec_basis" >
    <v>       0.09206408       0.00000000       0.00000000 </v>
    <v>       0.00000000       0.09206408       0.00000000 </v>
    <v>       0.00000000       0.00000000       0.09206408 </v>
   </varray>
  </crystal>
  <varray name="positions" >
   <v>       0.00092064       0.00000000       0.00000000 </v>
   <v>       0.12500000       0.12500000       0.12500000 </v>
   <v>       0.12500000      -0.12500000      -0.12500000 </v>
   <v>      -0.12500000      -0.12500000       0.12500000 </v>
   <v>      -0.12500000       0.12500000      -0.12500000 </v>
   <v>       0.25000000       0.25000000       0.00000000 </v>
   <v>       0.25000000      -0.25000000       0.00000000 </v>
   <v>       0.25000000       0.00000000       0.25000000 </v>
   <v>       0.25000000       0.00000000      -0.25000000 </v>
   <v>       0.00000000       0.25000000       0.25000000 </v>
   <v>       0.00000000      -0.25000000       0.25000000 </v>
   <v>       0.00000000       0.25000000      -0.25000000 </v>
   <v>       0.00000000      -0.25000000      -0.25000000 </v>
   <v>      -0.25000000       0.25000000       0.00000000 </v>
   <v>      -0.25000000      -0.25000000       0.00000000 </v>
   <v>      -0.25000000       0.00000000       0.25000000 </v>
   <v>      -0.25000000       0.00000000      -0.25000000 </v>
   <v>       0.37500000      -0.12500000       0.12500000 </v>
   <v>       0.37500000       0.12500000      -0.12500000 </v>
   <v>       0.12500000       0.12500000      -0.37500000 </v>
   <v>       0.12500000      -0.12500000       0.37500000 </v>
   <v>       0.12500000      -0.37500000       0.12500000 </v>
   <v>       0.12500000       0.37500000      -0.12500000 </v>
   <v>      -0.12500000       0.37500000       0.12500000 </v>
   <v>      -0.12500000      -0.12500000      -0.37500000 </v>
   <v>      -0.12500000       0.12500000       0.37500000 </v>
   <v>      -0.12500000      -0.37500000      -0.12500000 </v>
   <v>      -0.37500000       0.12500000       0.12500000 </v>
   <v>      -0.37500000      -0.12500000      -0.12500000 </v>
   <v>      -0.50000000       0.00000000       0.00000000 </v>
   <v>       0.00000000      -0.50000000       0.00000000 </v>
   <v>       0.00000000       0.00000000      -0.50000000 </v>
   <v>       0.37500000      -0.12500000      -0.37500000 </v>
   <v>       0.37500000       0.12500000       0.37500000 </v>
   <v>       0.37500000       0.37500000       0.12500000 </v>
   <v>       0.37500000      -0.37500000      -0.12500000 </v>
   <v>       0.12500000      -0.37500000      -0.37500000 </v>
   <v>       0.12500000       0.37500000       0.37500000 </v>
   <v>      -0.12500000       0.37500000      -0.37500000 </v>
   <v>      -0.12500000      -0.37500000       0.37500000 </v>
   <v>      -0.37500000      -0.37500000       0.12500000 </v>
   <v>      -0.37500000       0.12500000      -0.37500000 </v>
   <v>      -0.37500000      -0.12500000       0.37500000 </v>
   <v>      -0.37500000       0.37500000      -0.12500000 </v>
   <v>      -0.50000000       0.25000000       0.25000000 </v>
   <v>      -0.50000000      -0.25000000       0.25000000 </v>
   <v>      -0.50000000       0.25000000      -0.25000000 </v>
   <v>      -0.50000000      -0.25000000      -0.25000000 </v>
   <v>       0.25000000       0.25000000      -0.50000000 </v>
   <v>       0.25000000      -0.25000000      -0.50000000 </v>
   <v>       0.25000000      -0.50000000       0.25000000 </v>
   <v>       0.25000000      -0.50000000      -0.25000000 </v>
   <v>      -0.25000000       0.25000000      -0.50000000 </v>
   <v>      -0.25000000      -0.25000000      -0.50000000 </v>
   <v>      -0.25000000      -0.50000000       0.25000000 </v>
   <v>      -0.25000000      -0.50000000      -0.25000000 </v>
   <v>       0.37500000       0.37500000      -0.37500000 </v>
   <v>       0.37500000      -0.37500000       0.37500000 </v>
   <v>      -0.37500000      -0.37500000      -0.37500000 </v>
   <v>      -0.37500000       0.37500000       0.37500000 </v>
   <v>      -0.50000000      -0.50000000       0.00000000 </v>
   <v>      -0.50000000       0.00000000      -0.50000000 </v>
   <v>       0.00000000      -0.50000000      -0.50000000 </v>
   <v>      -0.50000000      -0.50000000      -0.50000000 </v>
  </varray>
 </structure>
 <varray name="primitive_index" >
  <v type="int" >        1 </v>
  <v type="int" >       33 </v>
  <v type="int" >       63 </v>
  <v type="int" >       44 </v>
  <v type="int" >       54 </v>
  <v type="int" >        9 </v>
  <v type="int" >       11 </v>
  <v type="int" >       25 </v>
  <v type="int" >       29 </v>
  <v type="int" >       17 </v>
  <v type="int" >       19 </v>
  <v type="int" >       21 </v>
  <v type="int" >       23 </v>
  <v type="int" >       10 </v>
  <v type="int" >       12 </v>
  <v type="int" >       26 </v>
  <v type="int" >       30 </v>
  <v type="int" >       43 </v>
  <v type="int" >       53 </v>
  <v type="int" >       37 </v>
  <v type="int" >       59 </v>
  <v type="int" >       35 </v>
  <v type="int" >       61 </v>
  <v type="int" >       42 </v>
  <v type="int" >       48 </v>
  <v type="int" >       50 </v>
  <v type="int" >       56 </v>
  <v type="int" >       34 </v>
  <v type="int" >       64 </v>
  <v type="int" >        2 </v>
  <v type="int" >        3 </v>
  <v type="int" >        5 </v>
  <v type="int" >       47 </v>
  <v type="int" >       49 </v>
  <v type="int" >       41 </v>
  <v type="int" >       55 </v>
  <v type="int" >       39 </v>
  <v type="int" >       57 </v>
  <v type="int" >       46 </v>
  <v type="int" >       52 </v>
  <v type="int" >       36 </v>
  <v type="int" >       38 </v>
  <v type="int" >       60 </v>
  <v type="int" >       62 </v>
  <v type="int" >       18 </v>
  <v type="int" >       20 </v>
  <v type="int" >       22 </v>
  <v type="int" >       24 </v>
  <v type="int" >       13 </v>
  <v type="int" >       15 </v>
  <v type="int" >       27 </v>
  <v type="int" >       31 </v>
  <v type="int" >       14 </v>
  <v type="int" >       16 </v>
  <v type="int" >       28 </v>
  <v type="int" >       32 </v>
  <v type="int" >       45 </v>
  <v type="int" >       51 </v>
  <v type="int" >       40 </v>
  <v type="int" >       58 </v>
  <v type="int" >        4 </v>
  <v type="int" >        6 </v>
  <v type="int" >        7 </v>
  <v type="int" >        8 </v>
 </varray>
 <kpoints>
  <generation param="Gamma">
   <v type="int" name="divisions">       4        4        4 </v>
   <v name="usershift">      0.00000000       0.00000000       0.00000000 </v>
   <v name="genvec1">      0.25000000       0.00000000       0.00000000 </v>
   <v name="genvec2">      0.00000000       0.25000000       0.00000000 </v>
   <v name="genvec3">      0.00000000       0.00000000       0.25000000 </v>
   <v name="shift">      0.00000000       0.00000000       0.00000000 </v>
  </generation>
  <varray name="kpointlist" >
   <v>       0.00000000       0.00000000       0.00000000 </v>
   <v>       0.25000000       0.00000000       0.00000000 </v>
   <v>       0.50000000       0.00000000       0.00000000 </v>
   <v>       0.00000000       0.25000000       0.00000000 </v>
   <v>       0.25000000       0.25000000       0.00000000 </v>
   <v>       0.50000000       0.25000000       0.00000000 </v>
   <v>       0.00000000       0.50000000       0.00000000 </v>
   <v>       0.25000000       0.50000000       0.00000000 </v>
   <v>       0.50000000       0.50000000       0.00000000 </v>
   <v>       0.00000000       0.25000000       0.25000000 </v>
   <v>       0.25000000       0.25000000       0.25000000 </v>
   <v>       0.50000000       0.25000000       0.25000000 </v>
   <v>       0.00000000       0.50000000       0.25000000 </v>
   <v>       0.25000000       0.50000000       0.25000000 </v>
   <v>       0.50000000       0.50000000       0.25000000 </v>
   <v>       0.00000000      -0.25000000       0.25000000 </v>
   <v>       0.25000000      -0.25000000       0.25000000 </v>
   <v>       0.50000000      -0.25000000       0.25000000 </v>
   <v>       0.00000000       0.50000000       0.50000000 </v>
   <v>       0.25000000       0.50000000       0.50000000 </v>
   <v>       0.50000000       0.50000000       0.50000000 </v>
  </varray>
  <varray name="weights" >
   <v>       0.01562500 </v>
   <v>       0.03125000 </v>
   <v>       0.01562500 </v>
   <v>       0.06250000 </v>
   <v>       0.12500000 </v>
   <v>       0.06250000 </v>
   <v>       0.03125000 </v>
   <v>       0.06250000 </v>
   <v>       0.03125000 </v>
   <v>       0.03125000 </v>
   <v>       0.06250000 </v>
   <v>       0.03125000 </v>
   <v>       0.06250000 </v>
   <v>       0.12500000 </v>
   <v>       0.06250000 </v>
   <v>       0.03125000 </v>
   <v>       0.06250000 </v>
   <v>       0.03125000 </v>
   <v>       0.01562500 </v>
   <v>       0.03125000 </v>
   <v>       0.01562500 </v>
  </varray>
 </kpoints>
 <parameters>
  <separator name="general" >
   <i type="string" name="SYSTEM">unknown system</i>
   <i type="logical" name="LCOMPAT"> F  </i>
  </separator>
  <separator name="electronic" >
   <i type="string" name="PREC">accura</i>
   <i name="ENMAX">    400.00000000</i>
   <i name="ENAUG">    322.06900000</i>
   <i name="EDIFF">      0.00000001</i>
   <i type="int" name="IALGO">    38</i>
   <i type="int" name="IWAVPR">    10</i>
   <i type="int" name="NBANDS">   164</i>
   <i name="NELECT">    256.00000000</i>
   <i type="int" name="TURBO">     0</i>
   <i type="int" name="IRESTART">     0</i>
   <i type="int" name="NREBOOT">     0</i>
   <i type="int" name="NMIN">     0</i>
   <i name="EREF">      0.00000000</i>
   <separator name="electronic smearing" >
    <i type="int" name="ISMEAR">     0</i>
    <i name="SIGMA">      0.01000000</i>
    <i name="KSPACING">      0.50000000</i>
    <i type="logical" name="KGAMMA"> T  </i>
   </separator>
   <separator name="electronic projectors" >
    <i type="logical" name="LREAL"> F  </i>
    <v name="ROPT">      0.00000000</v>
    <i type="int" name="LMAXPAW">  -100</i>
    <i type="int" name="LMAXMIX">     2</i>
    <i type="logical" name="NLSPLINE"> F  </i>
   </separator>
   <separator name="electronic startup" >
    <i type="int" name="ISTART">     1</i>
    <i type="int" name="ICHARG">     0</i>
    <i type="int" name="INIWAV">     1</i>
   </separator>
   <separator name="electronic spin" >
    <i type="int" name="ISPIN">     1</i>
    <i type="logical" name="LNONCOLLINEAR"> F  </i>
    <v name="MAGMOM">      1.00000000      1.00000000      1.00000000      1.00000000      1.00000000      1.00000000      1.00000000      1.00000000      1.00000000      1.00000000      1.00000000      1.00000000      1.00000000      1.00000000      1.00000000      1.00000000      1.00000000      1.00000000      1.00000000      1.00000000
      1.00000000      1.00000000      1.00000000      1.00000000      1.00000000      1.00000000      1.00000000      1.00000000      1.00000000      1.00000000      1.00000000      1.00000000      1.00000000      1.00000000      1.00000000      1.00000000      1.00000000      1.00000000      1.00000000      1.00000000
      1.00000000      1.00000000      1.00000000      1.00000000      1.00000000      1.00000000      1.00000000      1.00000000      1.00000000      1.00000000      1.00000000      1.00000000      1.00000000      1.00000000      1.00000000      1.00000000      1.00000000      1.00000000      1.00000000      1.00000000
      1.00000000      1.00000000      1.00000000      1.00000000</v>
    <i name="NUPDOWN">     -1.00000000</i>
    <i type="logical" name="LSORBIT"> F  </i>
    <v name="SAXIS">      0.00000000      0.00000000      1.00000000</v>
    <i type="logical" name="LSPIRAL"> F  </i>
    <v name="QSPIRAL">      0.00000000      0.00000000      0.00000000</v>
    <i type="logical" name="LZEROZ"> F  </i>
   </separator>
   <separator name="electronic exchange-correlation" >
    <i type="logical" name="LASPH"> F  </i>
    <i type="logical" name="LMETAGGA"> F  </i>
   </separator>
   <separator name="electronic convergence" >
    <i type="int" name="NELM">    60</i>
    <i type="int" name="NELMDL">     0</i>
    <i type="int" name="NELMIN">     5</i>
    <i name="ENINI">    400.00000000</i>
    <separator name="electronic convergence detail" >
     <i type="logical" name="LDIAG"> T  </i>
     <i type="logical" name="LSUBROT"> F  </i>
     <i name="WEIMIN">      0.00000000</i>
     <i name="EBREAK">      0.00000000</i>
     <i name="DEPER">      0.30000000</i>
     <i type="int" name="NRMM">     4</i>
     <i name="TIME">      0.40000000</i>
    </separator>
   </separator>
   <separator name="electronic mixer" >
    <i name="AMIX">      0.40000000</i>
    <i name="BMIX">      1.00000000</i>
    <i name="AMIN">      0.10000000</i>
    <i name="AMIX_MAG">      1.60000000</i>
    <i name="BMIX_MAG">      1.00000000</i>
    <separator name="electronic mixer details" >
     <i type="int" name="IMIX">     4</i>
     <i type="logical" name="MIXFIRST"> F  </i>
     <i type="int" name="MAXMIX">   -45</i>
     <i name="WC">    100.00000000</i>
     <i type="int" name="INIMIX">     1</i>
     <i type="int" name="MIXPRE">     1</i>
     <i type="int" name="MREMOVE">     5</i>
    </separator>
   </separator>
   <separator name="electronic dipolcorrection" >
    <i type="logical" name="LDIPOL"> F  </i>
    <i type="logical" name="LMONO"> F  </i>
    <i type="int" name="IDIPOL">     0</i>
    <i name="EPSILON">      1.00000000</i>
    <v name="DIPOL">   -100.00000000   -100.00000000   -100.00000000</v>
    <i name="EFIELD">      0.00000000</i>
   </separator>
  </separator>
  <separator name="grids" >
   <i type="int" name="NGX">    72</i>
   <i type="int" name="NGY">    72</i>
   <i type="int" name="NGZ">    72</i>
   <i type="int" name="NGXF">   144</i>
   <i type="int" name="NGYF">   144</i>
   <i type="int" name="NGZF">   144</i>
   <i type="logical" name="ADDGRID"> T  </i>
  </separator>
  <separator name="ionic" >
   <i type="int" name="NSW">     0</i>
   <i type="int" name="IBRION">    -1</i>
   <i type="int" name="MDALGO">     0</i>
   <i type="int" name="ISIF">     2</i>
   <i name="PSTRESS">      0.00000000</i>
   <i name="EDIFFG">      0.00000010</i>
   <i type="int" name="NFREE">     0</i>
   <i name="POTIM">      0.50000000</i>
   <i name="SMASS">     -3.00000000</i>
   <i name="SCALEE">      1.00000000</i>
  </separator>
  <separator name="ionic md" >
   <i name="TEBEG">      0.00010000</i>
   <i name="TEEND">      0.00010000</i>
   <i type="int" name="NBLOCK">     1</i>
   <i type="int" name="KBLOCK">     1</i>
   <i type="int" name="NPACO">   256</i>
   <i name="APACO">     16.00000000</i>
  </separator>
  <separator name="symmetry" >
   <i type="int" name="ISYM">     2</i>
   <i name="SYMPREC">      0.00001000</i>
  </separator>
  <separator name="dos" >
   <i type="int" name="LORBIT">     0</i>
   <v name="RWIGS">     -1.00000000</v>
   <i type="int" name="NEDOS">   301</i>
   <i name="EMIN">     10.00000000</i>
   <i name="EMAX">    -10.00000000</i>
   <i name="EFERMI">      0.00000000</i>
  </separator>
  <separator name="writing" >
   <i type="int" name="NWRITE">     2</i>
   <i type="logical" name="LWAVE"> F  </i>
   <i type="logical" name="LDOWNSAMPLE"> F  </i>
   <i type="logical" name="LCHARG"> F  </i>
   <i type="logical" name="LPARD"> F  </i>
   <i type="logical" name="LVTOT"> F  </i>
   <i type="logical" name="LVHAR"> F  </i>
   <i type="logical" name="LELF"> F  </i>
   <i type="logical" name="LOPTICS"> F  </i>
   <v name="STM">      0.00000000      0.00000000      0.00000000      0.00000000      0.00000000      0.00000000      0.00000000</v>
  </separator>
  <separator name="performance" >
   <i type="int" name="NPAR">     4</i>
   <i type="int" name="NSIM">     4</i>
   <i type="int" name="NBLK">    -1</i>
   <i type="logical" name="LPLANE"> T  </i>
   <i type="logical" name="LSCALAPACK"> T  </i>
   <i type="logical" name="LSCAAWARE"> F  </i>
   <i type="logical" name="LSCALU"> F  </i>
   <i type="logical" name="LASYNC"> F  </i>
   <i type="logical" name="LORBITALREAL"> F  </i>
  </separator>
  <separator name="miscellaneous" >
   <i type="int" name="IDIOT">     3</i>
   <i type="int" name="ISPECIAL">     0</i>
   <i type="logical" name="LMUSIC"> F  </i>
   <v name="POMASS">     28.08500000</v>
   <v name="DARWINR">      0.00000000</v>
   <v name="DARWINV">      1.00000000</v>
   <i type="logical" name="LCORR"> T  </i>
  </separator>
  <i type="logical" name="GGA_COMPAT"> T  </i>
  <i type="logical" name="LBERRY"> F  </i>
  <i type="int" name="ICORELEVEL">     0</i>
  <i type="logical" name="LDAU"> F  </i>
  <i type="int" name="I_CONSTRAINED_M">     0</i>
  <separator name="electronic exchange-correlation" >
   <i type="string" name="GGA">PE</i>
   <i type="int" name="VOSKOWN">     0</i>
   <i type="logical" name="LHFCALC"> F  </i>
   <i type="string" name="PRECFOCK"></i>
   <i type="logical" name="LSYMGRAD"> F  </i>
   <i type="logical" name="LHFONE"> F  </i>
   <i type="logical" name="LRHFCALC"> F  </i>
   <i type="logical" name="LTHOMAS"> F  </i>
   <i type="logical" name="LMODELHF"> F  </i>
   <i name="ENCUT4O">     -1.00000000</i>
   <i type="int" name="EXXOEP">     0</i>
   <i type="int" name="FOURORBIT">     0</i>
   <i name="AEXX">      0.00000000</i>
   <i name="HFALPHA">      0.00000000</i>
   <i name="MCALPHA">      0.00000000</i>
   <i name="ALDAX">      1.00000000</i>
   <i name="AGGAX">      1.00000000</i>
   <i name="ALDAC">      1.00000000</i>
   <i name="AGGAC">      1.00000000</i>
   <i type="int" name="NKREDX">     1</i>
   <i type="int" name="NKREDY">     1</i>
   <i type="int" name="NKREDZ">     1</i>
   <i type="logical" name="SHIFTRED"> F  </i>
   <i type="logical" name="ODDONLY"> F  </i>
   <i type="logical" name="EVENONLY"> F  </i>
   <i type="int" name="LMAXFOCK">     0</i>
   <i type="int" name="NMAXFOCKAE">     0</i>
   <i type="logical" name="LFOCKAEDFT"> F  </i>
   <i name="HFSCREEN">      0.00000000</i>
   <i name="HFSCREENC">      0.00000000</i>
   <i type="int" name="NBANDSGWLOW">     0</i>
  </separator>
  <separator name="vdW DFT" >
   <i type="logical" name="LUSE_VDW"> F  </i>
   <i name="Zab_VDW">     -0.84910000</i>
   <i name="PARAM1">      0.12340000</i>
   <i name="PARAM2">      1.00000000</i>
   <i name="PARAM3">      0.00000000</i>
  </separator>
  <separator name="model GW" >
   <i type="int" name="MODEL_GW">     0</i>
   <i name="MODEL_EPS0">     12.01436085</i>
   <i name="MODEL_ALPHA">      1.00000000</i>
  </separator>
  <separator name="linear response parameters" >
   <i type="logical" name="LEPSILON"> F  </i>
   <i type="logical" name="LRPA"> F  </i>
   <i type="logical" name="LNABLA"> F  </i>
   <i type="logical" name="LVEL"> F  </i>
   <i type="int" name="KINTER">     0</i>
   <i name="CSHIFT">      0.10000000</i>
   <i name="OMEGAMAX">     -1.00000000</i>
   <i name="DEG_THRESHOLD">      0.00200000</i>
   <i name="RTIME">     -0.10000000</i>
   <i name="WPLASMAI">      0.00000000</i>
   <v name="DFIELD">      0.00000000      0.00000000      0.00000000</v>
   <v name="WPLASMA">      0.00000000      0.00000000      0.00000000      0.00000000      0.00000000      0.00000000      0.00000000      0.00000000      0.00000000</v>
  </separator>
  <separator name="orbital magnetization" >
   <i type="logical" name="NUCIND"> F  </i>
   <v name="MAGPOS">      0.00000000      0.00000000      0.00000000</v>
   <i type="logical" name="LNICSALL"> T  </i>
   <i type="logical" name="ORBITALMAG"> F  </i>
   <i type="logical" name="LMAGBLOCH"> F  </i>
   <i type="logical" name="LCHIMAG"> F  </i>
   <i type="logical" name="LGAUGE"> T  </i>
   <i type="int" name="MAGATOM">     0</i>
   <v name="MAGDIPOL">      0.00000000      0.00000000      0.00000000</v>
   <v name="AVECCONST">      0.00000000      0.00000000      0.00000000</v>
  </separator>
  <separator name="response functions" >
   <i type="logical" name="LADDER"> F  </i>
   <i type="logical" name="LRPAFORCE"> F  </i>
   <i type="logical" name="LFXC"> F  </i>
   <i type="logical" name="LHARTREE"> T  </i>
   <i type="int" name="IBSE">     0</i>
   <v type="int" name="KPOINT">    -1     0     0     0</v>
   <i type="logical" name="LTCTE"> F  </i>
   <i type="logical" name="LTETE"> F  </i>
   <i type="logical" name="LTRIPLET"> F  </i>
   <i type="logical" name="LFXCEPS"> F  </i>
   <i type="logical" name="LFXHEG"> F  </i>
   <i type="int" name="NATURALO">     2</i>
   <i type="logical" name="L2ORDER"> F  </i>
   <i type="logical" name="LMP2LT"> F  </i>
   <i type="logical" name="LUSEW"> F  </i>
   <i name="ENCUTGW">     -2.00000000</i>
   <i name="ENCUTGWSOFT">     -2.00000000</i>
   <i name="ENCUTLF">     -1.00000000</i>
   <i type="int" name="LMAXMP2">    -1</i>
   <i name="SCISSOR">      0.00000000</i>
   <i type="int" name="NOMEGA">     0</i>
   <i type="int" name="NOMEGAR">     0</i>
   <i type="int" name="NBANDSGW">    -1</i>
   <i type="int" name="NBANDSO">    -1</i>
   <i type="int" name="NBANDSV">    -1</i>
   <i type="int" name="NELM">     1</i>
   <i type="int" name="NELMHF">     1</i>
   <i type="int" name="DIM">     3</i>
   <i type="int" name="ANTIRES">     0</i>
   <i name="OMEGAMAX">    -30.00000000</i>
   <i name="OMEGAMIN">    -30.00000000</i>
   <i name="OMEGATL">   -200.00000000</i>
   <i type="int" name="OMEGAGRID">   140</i>
   <i name="CSHIFT">     -0.10000000</i>
   <i type="logical" name="SELFENERGY"> F  </i>
   <i type="logical" name="LSPECTRAL"> F  </i>
   <i type="logical" name="LSPECTRALGW"> F  </i>
   <i type="logical" name="LSINGLES"> F  </i>
   <i type="logical" name="LFERMIGW"> F  </i>
   <i type="logical" name="ODDONLYGW"> F  </i>
   <i type="logical" name="EVENONLYGW"> F  </i>
   <i type="int" name="NKREDLFX">     1</i>
   <i type="int" name="NKREDLFY">     1</i>
   <i type="int" name="NKREDLFZ">     1</i>
   <i type="int" name="MAXMEM">  2800</i>
   <i type="int" name="TELESCOPE">     0</i>
   <i type="int" name="TAUPAR">     1</i>
   <i type="int" name="OMEGAPAR">    -1</i>
   <i name="LAMBDA">      1.00000000</i>
  </separator>
  <separator name="External order field" >
   <i name="OFIELD_KAPPA">      0.00000000</i>
   <v name="OFIELD_K">      0.00000000      0.00000000      0.00000000</v>
   <i name="OFIELD_Q6_NEAR">      0.00000000</i>
   <i name="OFIELD_Q6_FAR">      0.00000000</i>
   <i name="OFIELD_A">      0.00000000</i>
  </separator>
 </parameters>
 <atominfo>
  <atoms>      64 </atoms>
  <types>       1 </types>
  <array name="atoms" >
   <dimension dim="1">ion</dimension>
   <field type="string">element</field>
   <field type="int">atomtype</field>
   <set>
    <rc><c>Si</c><c>   1</c></rc>
    <rc><c>Si</c><c>   1</c></rc>
    <rc><c>Si</c><c>   1</c></rc>
    <rc><c>Si</c><c>   1</c></rc>
    <rc><c>Si</c><c>   1</c></rc>
    <rc><c>Si</c><c>   1</c></rc>
    <rc><c>Si</c><c>   1</c></rc>
    <rc><c>Si</c><c>   1</c></rc>
    <rc><c>Si</c><c>   1</c></rc>
    <rc><c>Si</c><c>   1</c></rc>
    <rc><c>Si</c><c>   1</c></rc>
    <rc><c>Si</c><c>   1</c></rc>
    <rc><c>Si</c><c>   1</c></rc>
    <rc><c>Si</c><c>   1</c></rc>
    <rc><c>Si</c><c>   1</c></rc>
    <rc><c>Si</c><c>   1</c></rc>
    <rc><c>Si</c><c>   1</c></rc>
    <rc><c>Si</c><c>   1</c></rc>
    <rc><c>Si</c><c>   1</c></rc>
    <rc><c>Si</c><c>   1</c></rc>
    <rc><c>Si</c><c>   1</c></rc>
    <rc><c>Si</c><c>   1</c></rc>
    <rc><c>Si</c><c>   1</c></rc>
    <rc><c>Si</c><c>   1</c></rc>
    <rc><c>Si</c><c>   1</c></rc>
    <rc><c>Si</c><c>   1</c></rc>
    <rc><c>Si</c><c>   1</c></rc>
    <rc><c>Si</c><c>   1</c></rc>
    <rc><c>Si</c><c>   1</c></rc>
    <rc><c>Si</c><c>   1</c></rc>
    <rc><c>Si</c><c>   1</c></rc>
    <rc><c>Si</c><c>   1</c></rc>
    <rc><c>Si</c><c>   1</c></rc>
    <rc><c>Si</c><c>   1</c></rc>
    <rc><c>Si</c><c>   1</c></rc>
    <rc><c>Si</c><c>   1</c></rc>
    <rc><c>Si</c><c>   1</c></rc>
    <rc><c>Si</c><c>   1</c></rc>
    <rc><c>Si</c><c>   1</c></rc>
    <rc><c>Si</c><c>   1</c></rc>
    <rc><c>Si</c><c>   1</c></rc>
    <rc><c>Si</c><c>   1</c></rc>
    <rc><c>Si</c><c>   1</c></rc>
    <rc><c>Si</c><c>   1</c></rc>
    <rc><c>Si</c><c>   1</c></rc>
    <rc><c>Si</c><c>   1</c></rc>
    <rc><c>Si</c><c>   1</c></rc>
    <rc><c>Si</c><c>   1</c></rc>
    <rc><c>Si</c><c>   1</c></rc>
    <rc><c>Si</c><c>   1</c></rc>
    <rc><c>Si</c><c>   1</c></rc>
    <rc><c>Si</c><c>   1</c></rc>
    <rc><c>Si</c><c>   1</c></rc>
    <rc><c>Si</c><c>   1</c></rc>
    <rc><c>Si</c><c>   1</c></rc>
    <rc><c>Si</c><c>   1</c></rc>
    <rc><c>Si</c><c>   1</c></rc>
    <rc><c>Si</c><c>   1</c></rc>
    <rc><c>Si</c><c>   1</c></rc>
    <rc><c>Si</c><c>   1</c></rc>
    <rc><c>Si</c><c>   1</c></rc>
    <rc><c>Si</c><c>   1</c></rc>
    <rc><c>Si</c><c>   1</c></rc>
    <rc><c>Si</c><c>   1</c></rc>
   </set>
  </array>
  <array name="atomtypes" >
   <dimension dim="1">type</dimension>
   <field type="int">atomspertype</field>
   <field type="string">element</field>
   <field>mass</field>
   <field>valence</field>
   <field type="string">pseudopotential</field>
   <set>
    <rc><c>  64</c><c>Si</c><c>     28.08500000</c><c>      4.00000000</c><c>  PAW_PBE Si 05Jan2001                  </c></rc>
   </set>
  </array>
 </atominfo>
 <structure name="initialpos" >
  <crystal>
   <varray name="basis" >
    <v>      10.86200000       0.00000000       0.00000000 </v>
    <v>       0.00000000      10.86200000       0.00000000 </v>
    <v>       0.00000000       0.00000000      10.86200000 </v>
   </varray>
   <i name="volume">   1281.53182393 </i>
   <varray name="rec_basis" >
    <v>       0.09206408       0.00000000       0.00000000 </v>
    <v>       0.00000000       0.09206408       0.00000000 </v>
    <v>       0.00000000       0.00000000       0.09206408 </v>
   </varray>
  </crystal>
  <varray name="positions" >
   <v>       0.00092064       0.00000000       0.00000000 </v>
   <v>       0.50000000       0.00000000       0.00000000 </v>
   <v>       0.00000000       0.50000000       0.00000000 </v>
   <v>       0.50000000       0.50000000       0.00000000 </v>
   <v>       0.00000000       0.00000000       0.50000000 </v>
   <v>       0.50000000       0.00000000       0.50000000 </v>
   <v>       0.00000000       0.50000000       0.50000000 </v>
   <v>       0.50000000       0.50000000       0.50000000 </v>
   <v>       0.25000000       0.25000000       0.00000000 </v>
   <v>       0.75000000       0.25000000       0.00000000 </v>
   <v>       0.25000000       0.75000000       0.00000000 </v>
   <v>       0.75000000       0.75000000       0.00000000 </v>
   <v>       0.25000000       0.25000000       0.50000000 </v>
   <v>       0.75000000       0.25000000       0.50000000 </v>
   <v>       0.25000000       0.75000000       0.50000000 </v>
   <v>       0.75000000       0.75000000       0.50000000 </v>
   <v>       0.00000000       0.25000000       0.25000000 </v>
   <v>       0.50000000       0.25000000       0.25000000 </v>
   <v>       0.00000000       0.75000000       0.25000000 </v>
   <v>       0.50000000       0.75000000       0.25000000 </v>
   <v>       0.00000000       0.25000000       0.75000000 </v>
   <v>       0.50000000       0.25000000       0.75000000 </v>
   <v>       0.00000000       0.75000000       0.75000000 </v>
   <v>       0.50000000       0.75000000       0.75000000 </v>
   <v>       0.25000000       0.00000000       0.25000000 </v>
   <v>       0.75000000       0.00000000       0.25000000 </v>
   <v>       0.25000000       0.50000000       0.25000000 </v>
   <v>       0.75000000       0.50000000       0.25000000 </v>
   <v>       0.25000000       0.00000000       0.75000000 </v>
   <v>       0.75000000       0.00000000       0.75000000 </v>
   <v>       0.25000000       0.50000000       0.75000000 </v>
   <v>       0.75000000       0.50000000       0.75000000 </v>
   <v>       0.12500000       0.12500000       0.12500000 </v>
   <v>       0.62500000       0.12500000       0.12500000 </v>
   <v>       0.12500000       0.62500000       0.12500000 </v>
   <v>       0.62500000       0.62500000       0.12500000 </v>
   <v>       0.12500000       0.12500000       0.62500000 </v>
   <v>       0.62500000       0.12500000       0.62500000 </v>
   <v>       0.12500000       0.62500000       0.62500000 </v>
   <v>       0.62500000       0.62500000       0.62500000 </v>
   <v>       0.37500000       0.37500000       0.12500000 </v>
   <v>       0.87500000       0.37500000       0.12500000 </v>
   <v>       0.37500000       0.87500000       0.12500000 </v>
   <v>       0.87500000       0.87500000       0.12500000 </v>
   <v>       0.37500000       0.37500000       0.62500000 </v>
   <v>       0.87500000       0.37500000       0.62500000 </v>
   <v>       0.37500000       0.87500000       0.62500000 </v>
   <v>       0.87500000       0.87500000       0.62500000 </v>
   <v>       0.37500000       0.12500000       0.37500000 </v>
   <v>       0.87500000       0.12500000       0.37500000 </v>
   <v>       0.37500000       0.62500000       0.37500000 </v>
   <v>       0.87500000       0.62500000       0.37500000 </v>
   <v>       0.37500000       0.12500000       0.87500000 </v>
   <v>       0.87500000       0.12500000       0.87500000 </v>
   <v>       0.37500000       0.62500000       0.87500000 </v>
   <v>       0.87500000       0.62500000       0.87500000 </v>
   <v>       0.12500000       0.37500000       0.37500000 </v>
   <v>       0.62500000       0.37500000       0.37500000 </v>
   <v>       0.12500000       0.87500000       0.37500000 </v>
   <v>       0.62500000       0.87500000       0.37500000 </v>
   <v>       0.12500000       0.37500000       0.87500000 </v>
   <v>       0.62500000       0.37500000       0.87500000 </v>
   <v>       0.12500000       0.87500000       0.87500000 </v>
   <v>       0.62500000       0.87500000       0.87500000 </v>
  </varray>
 </structure>
 <calculation>
  <scstep>
   <time name="dav">  111.22  233.37</time>
   <time name="total">  115.94  243.36</time>
   <energy>
    <i name="alphaZ">    107.59325768 </i>
    <i name="ewald">  -7312.68491912 </i>
    <i name="hartreedc">     -4.04072662 </i>
    <i name="XCdc">  -1164.75957651 </i>
    <i name="pawpsdc">   1312.88335940 </i>
    <i name="pawaedc">   -143.50310410 </i>
    <i name="eentropy">     -0.00119446 </i>
    <i name="bandstr">   1642.81038194 </i>
    <i name="atom">   6596.20775861 </i>
    <i name="e_fr_energy">   1034.50523685 </i>
    <i name="e_wo_entrp">   1034.50643131 </i>
    <i name="e_0_energy">   1034.50583408 </i>
   </energy>
  </scstep>
  <scstep>
   <time name="dav">  132.02  269.32</time>
   <time name="total">  136.77  279.12</time>
   <energy>
    <i name="e_fr_energy">   -514.70110005 </i>
    <i name="e_wo_entrp">   -514.70110005 </i>
    <i name="e_0_energy">   -514.70110005 </i>
   </energy>
  </scstep>
  <scstep>
   <time name="dav">  135.35  275.86</time>
   <time name="total">  140.16  285.61</time>
   <energy>
    <i name="e_fr_energy">   -452.27083885 </i>
    <i name="e_wo_entrp">   -452.27083885 </i>
    <i name="e_0_energy">   -452.27083885 </i>
   </energy>
  </scstep>
  <scstep>
   <time name="dav">  128.53  264.05</time>
   <time name="total">  133.41  273.89</time>
   <energy>
    <i name="e_fr_energy">   -349.79762685 </i>
    <i name="e_wo_entrp">   -349.79762685 </i>
    <i name="e_0_energy">   -349.79762685 </i>
   </energy>
  </scstep>
  <scstep>
   <time name="dav">  137.61  278.74</time>
   <time name="total">  142.51  288.56</time>
   <energy>
    <i name="e_fr_energy">   -346.47012460 </i>
    <i name="e_wo_entrp">   -346.47012460 </i>
    <i name="e_0_energy">   -346.47012460 </i>
   </energy>
  </scstep>
  <scstep>
   <time name="dav">  126.16  266.09</time>
   <time name="total">  131.10  275.98</time>
   <energy>
    <i name="e_fr_energy">   -346.60263198 </i>
    <i name="e_wo_entrp">   -346.60263198 </i>
    <i name="e_0_energy">   -346.60263198 </i>
   </energy>
  </scstep>
  <scstep>
   <time name="dav">  127.12  258.59</time>
   <time name="total">  132.05  268.45</time>
   <energy>
    <i name="e_fr_energy">   -346.98925487 </i>
    <i name="e_wo_entrp">   -346.98925487 </i>
    <i name="e_0_energy">   -346.98925487 </i>
   </energy>
  </scstep>
  <scstep>
   <time name="dav">  135.60  288.17</time>
   <time name="total">  140.37  297.72</time>
   <energy>
    <i name="e_fr_energy">   -347.03597898 </i>
    <i name="e_wo_entrp">   -347.03597898 </i>
    <i name="e_0_energy">   -347.03597898 </i>
   </energy>
  </scstep>
  <scstep>
   <time name="dav">  141.90  169.63</time>
   <time name="total">  147.37  175.84</time>
   <energy>
    <i name="e_fr_energy">   -347.03856608 </i>
    <i name="e_wo_entrp">   -347.03856608 </i>
    <i name="e_0_energy">   -347.03856608 </i>
   </energy>
  </scstep>
  <scstep>
   <time name="dav">  146.61  156.17</time>
   <time name="total">  152.01  162.15</time>
   <energy>
    <i name="e_fr_energy">   -347.03130771 </i>
    <i name="e_wo_entrp">   -347.03130771 </i>
    <i name="e_0_energy">   -347.03130771 </i>
   </energy>
  </scstep>
  <scstep>
   <time name="dav">  136.06  142.39</time>
   <time name="total">  141.52  148.06</time>
   <energy>
    <i name="e_fr_energy">   -347.03125869 </i>
    <i name="e_wo_entrp">   -347.03125869 </i>
    <i name="e_0_energy">   -347.03125869 </i>
   </energy>
  </scstep>
  <scstep>
   <time name="dav">  139.65  146.67</time>
   <time name="total">  145.08  152.21</time>
   <energy>
    <i name="e_fr_energy">   -347.03119993 </i>
    <i name="e_wo_entrp">   -347.03119993 </i>
    <i name="e_0_energy">   -347.03119993 </i>
   </energy>
  </scstep>
  <scstep>
   <time name="dav">  158.04  167.06</time>
   <time name="total">  164.09  173.17</time>
   <energy>
    <i name="e_fr_energy">   -347.03110108 </i>
    <i name="e_wo_entrp">   -347.03110108 </i>
    <i name="e_0_energy">   -347.03110108 </i>
   </energy>
  </scstep>
  <scstep>
   <time name="dav">  152.96  169.61</time>
   <time name="total">  158.50  176.02</time>
   <energy>
    <i name="e_fr_energy">   -347.03112047 </i>
    <i name="e_wo_entrp">   -347.03112047 </i>
    <i name="e_0_energy">   -347.03112047 </i>
   </energy>
  </scstep>
  <scstep>
   <time name="dav">  134.83  138.96</time>
   <time name="total">  140.22  144.67</time>
   <energy>
    <i name="e_fr_energy">   -347.03111855 </i>
    <i name="e_wo_entrp">   -347.03111855 </i>
    <i name="e_0_energy">   -347.03111855 </i>
   </energy>
  </scstep>
  <scstep>
   <time name="dav">  139.16  141.71</time>
   <time name="total">  144.63  147.19</time>
   <energy>
    <i name="e_fr_energy">   -347.03111873 </i>
    <i name="e_wo_entrp">   -347.03111873 </i>
    <i name="e_0_energy">   -347.03111873 </i>
   </energy>
  </scstep>
  <scstep>
   <time name="dav">  140.56  141.15</time>
   <time name="total">  146.08  146.68</time>
   <energy>
    <i name="e_fr_energy">   -347.03111784 </i>
    <i name="e_wo_entrp">   -347.03111784 </i>
    <i name="e_0_energy">   -347.03111784 </i>
   </energy>
  </scstep>
  <scstep>
   <time name="dav">  141.11  143.40</time>
   <time name="total">  146.60  148.90</time>
   <energy>
    <i name="e_fr_energy">   -347.03111847 </i>
    <i name="e_wo_entrp">   -347.03111847 </i>
    <i name="e_0_energy">   -347.03111847 </i>
   </energy>
  </scstep>
  <scstep>
   <time name="dav">  114.98  117.30</time>
   <time name="total">  120.35  123.10</time>
   <energy>
    <i name="e_fr_energy">   -347.03111855 </i>
    <i name="e_wo_entrp">   -347.03111855 </i>
    <i name="e_0_energy">   -347.03111855 </i>
   </energy>
  </scstep>
  <scstep>
   <time name="dav">   90.03   91.45</time>
   <time name="total">   95.39   97.26</time>
   <energy>
    <i name="e_fr_energy">   -347.03111849 </i>
    <i name="e_wo_entrp">   -347.03111849 </i>
    <i name="e_0_energy">   -347.03111849 </i>
   </energy>
  </scstep>
  <scstep>
   <time name="dav">   85.93   87.23</time>
   <time name="total">   91.29   93.07</time>
   <energy>
    <i name="e_fr_energy">   -347.03111845 </i>
    <i name="e_wo_entrp">   -347.03111845 </i>
    <i name="e_0_energy">   -347.03111845 </i>
   </energy>
  </scstep>
  <scstep>
   <time name="dav">   85.46   86.80</time>
   <time name="total">   90.93   92.71</time>
   <energy>
    <i name="e_fr_energy">   -347.03111844 </i>
    <i name="e_wo_entrp">   -347.03111844 </i>
    <i name="e_0_energy">   -347.03111844 </i>
   </energy>
  </scstep>
  <scstep>
   <time name="dav">   84.58   85.92</time>
   <time name="total">   85.33   87.04</time>
   <energy>
    <i name="alphaZ">    107.59325768 </i>
    <i name="ewald">  -7312.68491912 </i>
    <i name="hartreedc">   -477.53836050 </i>
    <i name="XCdc">   -574.85309336 </i>
    <i name="pawpsdc">  27761.79685806 </i>
    <i name="pawaedc"> -26642.98594523 </i>
    <i name="eentropy">     -0.00000000 </i>
    <i name="bandstr">    195.43332542 </i>
    <i name="atom">   6596.20775861 </i>
    <i name="e_fr_energy">   -347.03111844 </i>
    <i name="e_wo_entrp">   -347.03111844 </i>
    <i name="e_0_energy">   -347.03111844 </i>
   </energy>
  </scstep>
  <structure>
   <crystal>
    <varray name="basis" >
     <v>      10.86200000       0.00000000       0.00000000 </v>
     <v>       0.00000000      10.86200000       0.00000000 </v>
     <v>       0.00000000       0.00000000      10.86200000 </v>
    </varray>
    <i name="volume">   1281.53182393 </i>
    <varray name="rec_basis" >
     <v>       0.09206408       0.00000000       0.00000000 </v>
     <v>       0.00000000       0.09206408       0.00000000 </v>
     <v>       0.00000000       0.00000000       0.09206408 </v>
    </varray>
   </crystal>
   <varray name="positions" >
    <v>       0.00092064       0.00000000       0.00000000 </v>
    <v>       0.50000000       0.00000000       0.00000000 </v>
    <v>       0.00000000       0.50000000       0.00000000 </v>
    <v>       0.50000000       0.50000000       0.00000000 </v>
    <v>       0.00000000       0.00000000       0.50000000 </v>
    <v>       0.50000000       0.00000000       0.50000000 </v>
    <v>       0.00000000       0.50000000       0.50000000 </v>
    <v>       0.50000000       0.50000000       0.50000000 </v>
    <v>       0.25000000       0.25000000       0.00000000 </v>
    <v>       0.75000000       0.25000000       0.00000000 </v>
    <v>       0.25000000       0.75000000       0.00000000 </v>
    <v>       0.75000000       0.75000000       0.00000000 </v>
    <v>       0.25000000       0.25000000       0.50000000 </v>
    <v>       0.75000000       0.25000000       0.50000000 </v>
    <v>       0.25000000       0.75000000       0.50000000 </v>
    <v>       0.75000000       0.75000000       0.50000000 </v>
    <v>       0.00000000       0.25000000       0.25000000 </v>
    <v>       0.50000000       0.25000000       0.25000000 </v>
    <v>       0.00000000       0.75000000       0.25000000 </v>
    <v>       0.50000000       0.75000000       0.25000000 </v>
    <v>       0.00000000       0.25000000       0.75000000 </v>
    <v>       0.50000000       0.25000000       0.75000000 </v>
    <v>       0.00000000       0.75000000       0.75000000 </v>
    <v>       0.50000000       0.75000000       0.75000000 </v>
    <v>       0.25000000       0.00000000       0.25000000 </v>
    <v>       0.75000000       0.00000000       0.25000000 </v>
    <v>       0.25000000       0.50000000       0.25000000 </v>
    <v>       0.75000000       0.50000000       0.25000000 </v>
    <v>       0.25000000       0.00000000       0.75000000 </v>
    <v>       0.75000000       0.00000000       0.75000000 </v>
    <v>       0.25000000       0.50000000       0.75000000 </v>
    <v>       0.75000000       0.50000000       0.75000000 </v>
    <v>       0.12500000       0.12500000       0.12500000 </v>
    <v>       0.62500000       0.12500000       0.12500000 </v>
    <v>       0.12500000       0.62500000       0.12500000 </v>
    <v>       0.62500000       0.62500000       0.12500000 </v>
    <v>       0.12500000       0.12500000       0.62500000 </v>
    <v>       0.62500000       0.12500000       0.62500000 </v>
    <v>       0.12500000       0.62500000       0.62500000 </v>
    <v>       0.62500000       0.62500000       0.62500000 </v>
    <v>       0.37500000       0.37500000       0.12500000 </v>
    <v>       0.87500000       0.37500000       0.12500000 </v>
    <v>       0.37500000       0.87500000       0.12500000 </v>
    <v>       0.87500000       0.87500000       0.12500000 </v>
    <v>       0.37500000       0.37500000       0.62500000 </v>
    <v>       0.87500000       0.37500000       0.62500000 </v>
    <v>       0.37500000       0.87500000       0.62500000 </v>
    <v>       0.87500000       0.87500000       0.62500000 </v>
    <v>       0.37500000       0.12500000       0.37500000 </v>
    <v>       0.87500000       0.12500000       0.37500000 </v>
    <v>       0.37500000       0.62500000       0.37500000 </v>
    <v>       0.87500000       0.62500000       0.37500000 </v>
    <v>       0.37500000       0.12500000       0.87500000 </v>
    <v>       0.87500000       0.12500000       0.87500000 </v>
    <v>       0.37500000       0.62500000       0.87500000 </v>
    <v>       0.87500000       0.62500000       0.87500000 </v>
    <v>       0.12500000       0.37500000       0.37500000 </v>
    <v>       0.62500000       0.37500000       0.37500000 </v>
    <v>       0.12500000       0.87500000       0.37500000 </v>
    <v>       0.62500000       0.87500000       0.37500000 </v>
    <v>       0.12500000       0.37500000       0.87500000 </v>
    <v>       0.62500000       0.37500000       0.87500000 </v>
    <v>       0.12500000       0.87500000       0.87500000 </v>
    <v>       0.62500000       0.87500000       0.87500000 </v>
   </varray>
  </structure>
  <varray name="forces" >
   <v>      -0.13425639       0.00000000       0.00000000 </v>
   <v>       0.00016634       0.00000000       0.00000000 </v>
   <v>       0.00045501       0.00000000       0.00000000 </v>
   <v>      -0.00004288       0.00000000       0.00000000 </v>
   <v>       0.00045501       0.00000000       0.00000000 </v>
   <v>      -0.00004288       0.00000000       0.00000000 </v>
   <v>      -0.00392739       0.00000000       0.00000000 </v>
   <v>       0.00019624       0.00000000       0.00000000 </v>
   <v>       0.00198185       0.00193995       0.00095163 </v>
   <v>       0.00196619      -0.00192755       0.00094124 </v>
   <v>       0.00198185      -0.00193995      -0.00095163 </v>
   <v>       0.00196619       0.00192755      -0.00094124 </v>
   <v>       0.00034732      -0.00061708       0.00007924 </v>
   <v>       0.00034788       0.00061750       0.00007947 </v>
   <v>       0.00034732       0.00061708      -0.00007924 </v>
   <v>       0.00034788      -0.00061750      -0.00007947 </v>
   <v>      -0.00430995      -0.00095321      -0.00095321 </v>
   <v>      -0.00002970      -0.00007950      -0.00007950 </v>
   <v>      -0.00429838      -0.00093966       0.00093966 </v>
   <v>      -0.00002681      -0.00007900       0.00007900 </v>
   <v>      -0.00429838       0.00093966      -0.00093966 </v>
   <v>      -0.00002681       0.00007900      -0.00007900 </v>
   <v>      -0.00430995       0.00095321       0.00095321 </v>
   <v>      -0.00002970       0.00007950       0.00007950 </v>
   <v>       0.00198185       0.00095163       0.00193995 </v>
   <v>       0.00196619       0.00094124      -0.00192755 </v>
   <v>       0.00034732       0.00007924      -0.00061708 </v>
   <v>       0.00034788       0.00007947       0.00061750 </v>
   <v>       0.00198185      -0.00095163      -0.00193995 </v>
   <v>       0.00196619      -0.00094124       0.00192755 </v>
   <v>       0.00034732      -0.00007924       0.00061708 </v>
   <v>       0.00034788      -0.00007947      -0.00061750 </v>
   <v>       0.03280882       0.02313005       0.02313005 </v>
   <v>      -0.00007770       0.00031423       0.00031423 </v>
   <v>      -0.00050726       0.00031668       0.00040121 </v>
   <v>       0.00022300       0.00020922       0.00023322 </v>
   <v>      -0.00050726       0.00040121       0.00031668 </v>
   <v>       0.00022300       0.00023322       0.00020922 </v>
   <v>       0.00208928       0.00023752       0.00023752 </v>
   <v>      -0.00016615       0.00024373       0.00024373 </v>
   <v>       0.00022746       0.00021268      -0.00023954 </v>
   <v>      -0.00050117       0.00031177      -0.00040604 </v>
   <v>      -0.00007811       0.00031417      -0.00031417 </v>
   <v>       0.03250136       0.02252605      -0.02252605 </v>
   <v>      -0.00016677       0.00024192      -0.00024192 </v>
   <v>       0.00208207       0.00023536      -0.00023536 </v>
   <v>       0.00022746       0.00023954      -0.00021268 </v>
   <v>      -0.00050117       0.00040604      -0.00031177 </v>
   <v>       0.00022746      -0.00023954       0.00021268 </v>
   <v>      -0.00050117      -0.00040604       0.00031177 </v>
   <v>      -0.00016677      -0.00024192       0.00024192 </v>
   <v>       0.00208207      -0.00023536       0.00023536 </v>
   <v>      -0.00007811      -0.00031417       0.00031417 </v>
   <v>       0.03250136      -0.02252605       0.02252605 </v>
   <v>       0.00022746      -0.00021268       0.00023954 </v>
   <v>      -0.00050117      -0.00031177       0.00040604 </v>
   <v>       0.00208928      -0.00023752      -0.00023752 </v>
   <v>      -0.00016615      -0.00024373      -0.00024373 </v>
   <v>      -0.00050726      -0.00040121      -0.00031668 </v>
   <v>       0.00022300      -0.00023322      -0.00020922 </v>
   <v>      -0.00050726      -0.00031668      -0.00040121 </v>
   <v>       0.00022300      -0.00020922      -0.00023322 </v>
   <v>       0.03280882      -0.02313005      -0.02313005 </v>
   <v>      -0.00007770      -0.00031423      -0.00031423 </v>
  </varray>
  <varray name="stress" >
   <v>      19.16894120       0.00000000       0.00000000 </v>
   <v>       0.00000000      19.17126596       0.12416636 </v>
   <v>       0.00000000       0.12416636      19.17126596 </v>
  </varray>
  <energy>
   <i name="e_fr_energy">   -347.03111844 </i>
   <i name="e_wo_entrp">   -347.03111844 </i>
   <i name="e_0_energy">     -0.00000000 </i>
  </energy>
  <time name="totalsc"> 3230.59 4472.20</time>
  <eigenvalues>
   <array>
    <dimension dim="1">band</dimension>
    <dimension dim="2">kpoint</dimension>
    <dimension dim="3">spin</dimension>
    <field>eigene</field>
    <field>occ</field>
    <set>
     <set comment="spin 1">
      <set comment="kpoint 1">
       <r>   -6.1323    1.0000 </r>
       <r>   -5.0522    1.0000 </r>
       <r>   -5.0509    1.0000 </r>
       <r>   -5.0504    1.0000 </r>
       <r>   -5.0504    1.0000 </r>
       <r>   -5.0499    1.0000 </r>
       <r>   -5.0486    1.0000 </r>
       <r>   -4.0928    1.0000 </r>
       <r>   -4.0901    1.0000 </r>
       <r>   -4.0890    1.0000 </r>
       <r>   -4.0889    1.0000 </r>
       <r>   -4.0888    1.0000 </r>
       <r>   -4.0888    1.0000 </r>
       <r>   -4.0888    1.0000 </r>
       <r>   -4.0887    1.0000 </r>
       <r>   -4.0887    1.0000 </r>
       <r>   -4.0885    1.0000 </r>
       <r>   -4.0875    1.0000 </r>
       <r>   -4.0848    1.0000 </r>
       <r>   -3.8026    1.0000 </r>
       <r>   -3.8019    1.0000 </r>
       <r>   -3.8010    1.0000 </r>
       <r>   -3.8002    1.0000 </r>
       <r>   -1.9906    1.0000 </r>
       <r>   -1.9896    1.0000 </r>
       <r>   -1.9886    1.0000 </r>
       <r>   -1.9886    1.0000 </r>
       <r>   -1.9876    1.0000 </r>
       <r>   -1.9866    1.0000 </r>
       <r>   -1.8286    1.0000 </r>
       <r>   -1.8270    1.0000 </r>
       <r>   -1.8252    1.0000 </r>
       <r>   -1.8250    1.0000 </r>
       <r>   -1.8249    1.0000 </r>
       <r>   -1.8248    1.0000 </r>
       <r>   -1.8248    1.0000 </r>
       <r>   -1.8247    1.0000 </r>
       <r>   -1.8246    1.0000 </r>
       <r>   -1.8244    1.0000 </r>
       <r>   -1.8226    1.0000 </r>
       <r>   -1.8209    1.0000 </r>
       <r>   -1.1421    1.0000 </r>
       <r>   -1.1410    1.0000 </r>
       <r>   -1.1406    1.0000 </r>
       <r>   -1.1395    1.0000 </r>
       <r>    0.3446    1.0000 </r>
       <r>    0.3449    1.0000 </r>
       <r>    0.3473    1.0000 </r>
       <r>    0.3475    1.0000 </r>
       <r>    0.3475    1.0000 </r>
       <r>    0.3476    1.0000 </r>
       <r>    0.3476    1.0000 </r>
       <r>    0.3477    1.0000 </r>
       <r>    0.3478    1.0000 </r>
       <r>    0.3479    1.0000 </r>
       <r>    0.3504    1.0000 </r>
       <r>    0.3507    1.0000 </r>
       <r>    1.9733    1.0000 </r>
       <r>    1.9749    1.0000 </r>
       <r>    1.9751    1.0000 </r>
       <r>    1.9753    1.0000 </r>
       <r>    1.9755    1.0000 </r>
       <r>    1.9756    1.0000 </r>
       <r>    1.9756    1.0000 </r>
       <r>    1.9758    1.0000 </r>
       <r>    1.9760    1.0000 </r>
       <r>    1.9761    1.0000 </r>
       <r>    1.9763    1.0000 </r>
       <r>    1.9779    1.0000 </r>
       <r>    2.0737    1.0000 </r>
       <r>    2.0738    1.0000 </r>
       <r>    2.0742    1.0000 </r>
       <r>    2.0753    1.0000 </r>
       <r>    2.0755    1.0000 </r>
       <r>    2.0755    1.0000 </r>
       <r>    2.0755    1.0000 </r>
       <r>    2.0755    1.0000 </r>
       <r>    2.0756    1.0000 </r>
       <r>    2.0768    1.0000 </r>
       <r>    2.0771    1.0000 </r>
       <r>    2.0773    1.0000 </r>
       <r>    2.3081    1.0000 </r>
       <r>    2.3090    1.0000 </r>
       <r>    2.3100    1.0000 </r>
       <r>    2.3100    1.0000 </r>
       <r>    2.3110    1.0000 </r>
       <r>    2.3119    1.0000 </r>
       <r>    2.9746    1.0000 </r>
       <r>    2.9754    1.0000 </r>
       <r>    2.9755    1.0000 </r>
       <r>    2.9755    1.0000 </r>
       <r>    2.9756    1.0000 </r>
       <r>    2.9764    1.0000 </r>
       <r>    3.9335    1.0000 </r>
       <r>    3.9360    1.0000 </r>
       <r>    3.9366    1.0000 </r>
       <r>    3.9367    1.0000 </r>
       <r>    3.9368    1.0000 </r>
       <r>    3.9368    1.0000 </r>
       <r>    3.9368    1.0000 </r>
       <r>    3.9369    1.0000 </r>
       <r>    3.9370    1.0000 </r>
       <r>    3.9371    1.0000 </r>
       <r>    3.9377    1.0000 </r>
       <r>    3.9401    1.0000 </r>
       <r>    4.4949    1.0000 </r>
       <r>    4.4968    1.0000 </r>
       <r>    4.4980    1.0000 </r>
       <r>    4.4982    1.0000 </r>
       <r>    4.4983    1.0000 </r>
       <r>    4.4984    1.0000 </r>
       <r>    4.4985    1.0000 </r>
       <r>    4.4986    1.0000 </r>
       <r>    4.4988    1.0000 </r>
       <r>    4.4989    1.0000 </r>
       <r>    4.5001    1.0000 </r>
       <r>    4.5019    1.0000 </r>
       <r>    4.6248    1.0000 </r>
       <r>    4.6266    1.0000 </r>
       <r>    4.6271    1.0000 </r>
       <r>    4.6272    1.0000 </r>
       <r>    4.6275    1.0000 </r>
       <r>    4.6277    1.0000 </r>
       <r>    4.6281    1.0000 </r>
       <r>    4.6301    1.0000 </r>
       <r>    5.8225    1.0000 </r>
       <r>    5.8240    1.0000 </r>
       <r>    5.8256    1.0000 </r>
       <r>    6.5341    0.0000 </r>
       <r>    6.5347    0.0000 </r>
       <r>    6.5356    0.0000 </r>
       <r>    6.5356    0.0000 </r>
       <r>    6.5365    0.0000 </r>
       <r>    6.5370    0.0000 </r>
       <r>    6.9551    0.0000 </r>
       <r>    6.9554    0.0000 </r>
       <r>    6.9565    0.0000 </r>
       <r>    6.9565    0.0000 </r>
       <r>    6.9577    0.0000 </r>
       <r>    6.9580    0.0000 </r>
       <r>    7.3641    0.0000 </r>
       <r>    7.3642    0.0000 </r>
       <r>    7.3645    0.0000 </r>
       <r>    7.3647    0.0000 </r>
       <r>    8.2737    0.0000 </r>
       <r>    8.2738    0.0000 </r>
       <r>    8.2760    0.0000 </r>
       <r>    8.2760    0.0000 </r>
       <r>    8.2762    0.0000 </r>
       <r>    8.2762    0.0000 </r>
       <r>    8.2762    0.0000 </r>
       <r>    8.2763    0.0000 </r>
       <r>    8.2765    0.0000 </r>
       <r>    8.2765    0.0000 </r>
       <r>    8.2786    0.0000 </r>
       <r>    8.2787    0.0000 </r>
       <r>    8.3891    0.0000 </r>
       <r>    8.3900    0.0000 </r>
       <r>    8.3909    0.0000 </r>
       <r>    8.9579    0.0000 </r>
       <r>    8.9587    0.0000 </r>
       <r>    8.9589    0.0000 </r>
       <r>    8.9594    0.0000 </r>
       <r>    8.9600    0.0000 </r>
      </set>
      <set comment="kpoint 2">
       <r>   -6.0639    1.0000 </r>
       <r>   -5.5205    1.0000 </r>
       <r>   -4.9887    1.0000 </r>
       <r>   -4.9882    1.0000 </r>
       <r>   -4.9881    1.0000 </r>
       <r>   -4.9876    1.0000 </r>
       <r>   -4.5006    1.0000 </r>
       <r>   -4.5001    1.0000 </r>
       <r>   -4.5000    1.0000 </r>
       <r>   -4.4995    1.0000 </r>
       <r>   -4.4539    1.0000 </r>
       <r>   -4.0540    1.0000 </r>
       <r>   -4.0535    1.0000 </r>
       <r>   -4.0527    1.0000 </r>
       <r>   -4.0522    1.0000 </r>
       <r>   -3.8526    1.0000 </r>
       <r>   -3.8520    1.0000 </r>
       <r>   -3.8510    1.0000 </r>
       <r>   -3.8504    1.0000 </r>
       <r>   -3.5861    1.0000 </r>
       <r>   -3.5855    1.0000 </r>
       <r>   -3.5855    1.0000 </r>
       <r>   -3.5849    1.0000 </r>
       <r>   -2.9121    1.0000 </r>
       <r>   -2.4159    1.0000 </r>
       <r>   -2.4152    1.0000 </r>
       <r>   -2.4151    1.0000 </r>
       <r>   -2.4144    1.0000 </r>
       <r>   -1.9675    1.0000 </r>
       <r>   -1.9664    1.0000 </r>
       <r>   -1.9664    1.0000 </r>
       <r>   -1.9654    1.0000 </r>
       <r>   -1.8520    1.0000 </r>
       <r>   -1.8509    1.0000 </r>
       <r>   -1.8509    1.0000 </r>
       <r>   -1.8497    1.0000 </r>
       <r>   -1.2701    1.0000 </r>
       <r>   -1.2693    1.0000 </r>
       <r>   -1.2693    1.0000 </r>
       <r>   -1.2685    1.0000 </r>
       <r>   -0.9838    1.0000 </r>
       <r>   -0.9801    1.0000 </r>
       <r>   -0.9791    1.0000 </r>
       <r>   -0.9787    1.0000 </r>
       <r>   -0.9776    1.0000 </r>
       <r>   -0.2112    1.0000 </r>
       <r>   -0.2103    1.0000 </r>
       <r>   -0.2103    1.0000 </r>
       <r>   -0.2094    1.0000 </r>
       <r>    0.0081    1.0000 </r>
       <r>    0.0086    1.0000 </r>
       <r>    0.0098    1.0000 </r>
       <r>    0.0103    1.0000 </r>
       <r>    0.9372    1.0000 </r>
       <r>    0.9383    1.0000 </r>
       <r>    0.9383    1.0000 </r>
       <r>    0.9395    1.0000 </r>
       <r>    1.1881    1.0000 </r>
       <r>    1.6673    1.0000 </r>
       <r>    1.6676    1.0000 </r>
       <r>    1.6676    1.0000 </r>
       <r>    1.6679    1.0000 </r>
       <r>    1.7481    1.0000 </r>
       <r>    1.7485    1.0000 </r>
       <r>    1.7485    1.0000 </r>
       <r>    1.7488    1.0000 </r>
       <r>    2.0642    1.0000 </r>
       <r>    2.0658    1.0000 </r>
       <r>    2.0658    1.0000 </r>
       <r>    2.0675    1.0000 </r>
       <r>    2.0952    1.0000 </r>
       <r>    2.0953    1.0000 </r>
       <r>    2.0954    1.0000 </r>
       <r>    2.0954    1.0000 </r>
       <r>    2.5146    1.0000 </r>
       <r>    2.5149    1.0000 </r>
       <r>    2.5155    1.0000 </r>
       <r>    2.5157    1.0000 </r>
       <r>    2.5222    1.0000 </r>
       <r>    2.5226    1.0000 </r>
       <r>    2.5226    1.0000 </r>
       <r>    2.5229    1.0000 </r>
       <r>    2.5466    1.0000 </r>
       <r>    2.5472    1.0000 </r>
       <r>    2.5473    1.0000 </r>
       <r>    2.5478    1.0000 </r>
       <r>    2.7883    1.0000 </r>
       <r>    2.7886    1.0000 </r>
       <r>    2.7887    1.0000 </r>
       <r>    2.7890    1.0000 </r>
       <r>    3.0366    1.0000 </r>
       <r>    3.0377    1.0000 </r>
       <r>    3.4241    1.0000 </r>
       <r>    3.5227    1.0000 </r>
       <r>    3.5239    1.0000 </r>
       <r>    3.6674    1.0000 </r>
       <r>    3.6686    1.0000 </r>
       <r>    3.6686    1.0000 </r>
       <r>    3.6697    1.0000 </r>
       <r>    3.9856    1.0000 </r>
       <r>    3.9864    1.0000 </r>
       <r>    3.9864    1.0000 </r>
       <r>    3.9871    1.0000 </r>
       <r>    4.1013    1.0000 </r>
       <r>    4.1016    1.0000 </r>
       <r>    4.1016    1.0000 </r>
       <r>    4.1019    1.0000 </r>
       <r>    4.2104    1.0000 </r>
       <r>    4.2108    1.0000 </r>
       <r>    4.2114    1.0000 </r>
       <r>    4.2118    1.0000 </r>
       <r>    4.4457    1.0000 </r>
       <r>    4.4473    1.0000 </r>
       <r>    4.5141    1.0000 </r>
       <r>    4.5159    1.0000 </r>
       <r>    4.5164    1.0000 </r>
       <r>    4.5182    1.0000 </r>
       <r>    4.5964    1.0000 </r>
       <r>    4.5974    1.0000 </r>
       <r>    4.5974    1.0000 </r>
       <r>    4.5982    1.0000 </r>
       <r>    4.6052    1.0000 </r>
       <r>    4.6070    1.0000 </r>
       <r>    4.6075    1.0000 </r>
       <r>    4.6097    1.0000 </r>
       <r>    5.4045    1.0000 </r>
       <r>    5.5605    1.0000 </r>
       <r>    5.5630    1.0000 </r>
       <r>    6.4033    0.0000 </r>
       <r>    6.6331    0.0000 </r>
       <r>    6.8529    0.0000 </r>
       <r>    6.8939    0.0000 </r>
       <r>    6.8952    0.0000 </r>
       <r>    6.8952    0.0000 </r>
       <r>    6.8965    0.0000 </r>
       <r>    7.3479    0.0000 </r>
       <r>    7.3491    0.0000 </r>
       <r>    7.3491    0.0000 </r>
       <r>    7.3503    0.0000 </r>
       <r>    7.3781    0.0000 </r>
       <r>    7.7129    0.0000 </r>
       <r>    7.7131    0.0000 </r>
       <r>    7.7133    0.0000 </r>
       <r>    7.7135    0.0000 </r>
       <r>    8.0757    0.0000 </r>
       <r>    8.2287    0.0000 </r>
       <r>    8.2472    0.0000 </r>
       <r>    8.2482    0.0000 </r>
       <r>    8.2482    0.0000 </r>
       <r>    8.2491    0.0000 </r>
       <r>    8.2825    0.0000 </r>
       <r>    8.2841    0.0000 </r>
       <r>    8.2844    0.0000 </r>
       <r>    8.2860    0.0000 </r>
       <r>    8.7357    0.0000 </r>
       <r>    8.7370    0.0000 </r>
       <r>    8.8853    0.0000 </r>
       <r>    8.8864    0.0000 </r>
       <r>    8.8864    0.0000 </r>
       <r>    8.8875    0.0000 </r>
       <r>    8.9960    0.0000 </r>
       <r>    8.9967    0.0000 </r>
       <r>    8.9970    0.0000 </r>
       <r>    8.9977    0.0000 </r>
      </set>
      <set comment="kpoint 3">
       <r>   -5.8600    1.0000 </r>
       <r>   -5.8587    1.0000 </r>
       <r>   -4.8050    1.0000 </r>
       <r>   -4.8042    1.0000 </r>
       <r>   -4.8031    1.0000 </r>
       <r>   -4.8030    1.0000 </r>
       <r>   -4.8030    1.0000 </r>
       <r>   -4.8029    1.0000 </r>
       <r>   -4.8018    1.0000 </r>
       <r>   -4.8010    1.0000 </r>
       <r>   -3.9613    1.0000 </r>
       <r>   -3.9602    1.0000 </r>
       <r>   -3.9594    1.0000 </r>
       <r>   -3.9593    1.0000 </r>
       <r>   -3.9592    1.0000 </r>
       <r>   -3.9591    1.0000 </r>
       <r>   -3.9582    1.0000 </r>
       <r>   -3.9572    1.0000 </r>
       <r>   -3.7392    1.0000 </r>
       <r>   -3.7369    1.0000 </r>
       <r>   -3.0191    1.0000 </r>
       <r>   -3.0166    1.0000 </r>
       <r>   -3.0158    1.0000 </r>
       <r>   -3.0157    1.0000 </r>
       <r>   -3.0154    1.0000 </r>
       <r>   -3.0153    1.0000 </r>
       <r>   -3.0145    1.0000 </r>
       <r>   -3.0120    1.0000 </r>
       <r>   -1.9128    1.0000 </r>
       <r>   -1.9109    1.0000 </r>
       <r>   -1.9108    1.0000 </r>
       <r>   -1.9107    1.0000 </r>
       <r>   -1.9106    1.0000 </r>
       <r>   -1.9104    1.0000 </r>
       <r>   -1.9104    1.0000 </r>
       <r>   -1.9084    1.0000 </r>
       <r>   -0.7431    1.0000 </r>
       <r>   -0.7423    1.0000 </r>
       <r>   -0.7412    1.0000 </r>
       <r>   -0.7410    1.0000 </r>
       <r>   -0.7407    1.0000 </r>
       <r>   -0.7405    1.0000 </r>
       <r>   -0.7395    1.0000 </r>
       <r>   -0.7386    1.0000 </r>
       <r>   -0.5515    1.0000 </r>
       <r>   -0.5503    1.0000 </r>
       <r>   -0.5496    1.0000 </r>
       <r>   -0.5491    1.0000 </r>
       <r>   -0.5491    1.0000 </r>
       <r>   -0.5486    1.0000 </r>
       <r>   -0.5478    1.0000 </r>
       <r>   -0.5466    1.0000 </r>
       <r>    0.0819    1.0000 </r>
       <r>    0.0833    1.0000 </r>
       <r>    1.5351    1.0000 </r>
       <r>    1.5367    1.0000 </r>
       <r>    1.5378    1.0000 </r>
       <r>    1.5379    1.0000 </r>
       <r>    1.5380    1.0000 </r>
       <r>    1.5381    1.0000 </r>
       <r>    1.5391    1.0000 </r>
       <r>    1.5407    1.0000 </r>
       <r>    1.5994    1.0000 </r>
       <r>    1.6004    1.0000 </r>
       <r>    1.6008    1.0000 </r>
       <r>    1.6009    1.0000 </r>
       <r>    1.6014    1.0000 </r>
       <r>    1.6015    1.0000 </r>
       <r>    1.6021    1.0000 </r>
       <r>    1.6030    1.0000 </r>
       <r>    2.4108    1.0000 </r>
       <r>    2.4109    1.0000 </r>
       <r>    2.4109    1.0000 </r>
       <r>    2.4114    1.0000 </r>
       <r>    2.4114    1.0000 </r>
       <r>    2.4119    1.0000 </r>
       <r>    2.4119    1.0000 </r>
       <r>    2.4120    1.0000 </r>
       <r>    3.1120    1.0000 </r>
       <r>    3.1137    1.0000 </r>
       <r>    3.1138    1.0000 </r>
       <r>    3.1143    1.0000 </r>
       <r>    3.1145    1.0000 </r>
       <r>    3.1150    1.0000 </r>
       <r>    3.1151    1.0000 </r>
       <r>    3.1167    1.0000 </r>
       <r>    3.2194    1.0000 </r>
       <r>    3.2206    1.0000 </r>
       <r>    3.2213    1.0000 </r>
       <r>    3.2224    1.0000 </r>
       <r>    3.2418    1.0000 </r>
       <r>    3.2423    1.0000 </r>
       <r>    3.2432    1.0000 </r>
       <r>    3.2433    1.0000 </r>
       <r>    3.2437    1.0000 </r>
       <r>    3.2438    1.0000 </r>
       <r>    3.2449    1.0000 </r>
       <r>    3.2452    1.0000 </r>
       <r>    3.3645    1.0000 </r>
       <r>    3.3649    1.0000 </r>
       <r>    3.3649    1.0000 </r>
       <r>    3.3655    1.0000 </r>
       <r>    3.3657    1.0000 </r>
       <r>    3.3663    1.0000 </r>
       <r>    3.3664    1.0000 </r>
       <r>    3.3667    1.0000 </r>
       <r>    4.3977    1.0000 </r>
       <r>    4.3978    1.0000 </r>
       <r>    4.3984    1.0000 </r>
       <r>    4.3986    1.0000 </r>
       <r>    4.3987    1.0000 </r>
       <r>    4.3989    1.0000 </r>
       <r>    4.3996    1.0000 </r>
       <r>    4.3996    1.0000 </r>
       <r>    4.4921    1.0000 </r>
       <r>    4.4921    1.0000 </r>
       <r>    4.5562    1.0000 </r>
       <r>    4.5598    1.0000 </r>
       <r>    4.5604    1.0000 </r>
       <r>    4.5605    1.0000 </r>
       <r>    4.5605    1.0000 </r>
       <r>    4.5606    1.0000 </r>
       <r>    4.5612    1.0000 </r>
       <r>    4.5648    1.0000 </r>
       <r>    5.0163    1.0000 </r>
       <r>    5.0182    1.0000 </r>
       <r>    5.0192    1.0000 </r>
       <r>    5.0212    1.0000 </r>
       <r>    6.4406    0.0000 </r>
       <r>    6.4420    0.0000 </r>
       <r>    7.3649    0.0000 </r>
       <r>    7.3662    0.0000 </r>
       <r>    7.7939    0.0000 </r>
       <r>    7.7953    0.0000 </r>
       <r>    7.7955    0.0000 </r>
       <r>    7.7961    0.0000 </r>
       <r>    7.7961    0.0000 </r>
       <r>    7.7967    0.0000 </r>
       <r>    7.7968    0.0000 </r>
       <r>    7.7983    0.0000 </r>
       <r>    7.8381    0.0000 </r>
       <r>    7.8387    0.0000 </r>
       <r>    8.1844    0.0000 </r>
       <r>    8.1863    0.0000 </r>
       <r>    8.1868    0.0000 </r>
       <r>    8.1869    0.0000 </r>
       <r>    8.1870    0.0000 </r>
       <r>    8.1871    0.0000 </r>
       <r>    8.1876    0.0000 </r>
       <r>    8.1894    0.0000 </r>
       <r>    8.2714    0.0000 </r>
       <r>    8.2729    0.0000 </r>
       <r>    8.2731    0.0000 </r>
       <r>    8.2732    0.0000 </r>
       <r>    8.2737    0.0000 </r>
       <r>    8.2738    0.0000 </r>
       <r>    8.2740    0.0000 </r>
       <r>    8.2755    0.0000 </r>
       <r>    8.6919    0.0000 </r>
       <r>    8.6931    0.0000 </r>
       <r>    8.6932    0.0000 </r>
       <r>    8.6937    0.0000 </r>
       <r>    8.6945    0.0000 </r>
       <r>    8.6950    0.0000 </r>
      </set>
      <set comment="kpoint 4">
       <r>   -6.0639    1.0000 </r>
       <r>   -5.5205    1.0000 </r>
       <r>   -4.9897    1.0000 </r>
       <r>   -4.9881    1.0000 </r>
       <r>   -4.9881    1.0000 </r>
       <r>   -4.9867    1.0000 </r>
       <r>   -4.5015    1.0000 </r>
       <r>   -4.5000    1.0000 </r>
       <r>   -4.5000    1.0000 </r>
       <r>   -4.4986    1.0000 </r>
       <r>   -4.4540    1.0000 </r>
       <r>   -4.0546    1.0000 </r>
       <r>   -4.0535    1.0000 </r>
       <r>   -4.0526    1.0000 </r>
       <r>   -4.0515    1.0000 </r>
       <r>   -3.8528    1.0000 </r>
       <r>   -3.8520    1.0000 </r>
       <r>   -3.8510    1.0000 </r>
       <r>   -3.8502    1.0000 </r>
       <r>   -3.5869    1.0000 </r>
       <r>   -3.5855    1.0000 </r>
       <r>   -3.5855    1.0000 </r>
       <r>   -3.5841    1.0000 </r>
       <r>   -2.9121    1.0000 </r>
       <r>   -2.4165    1.0000 </r>
       <r>   -2.4152    1.0000 </r>
       <r>   -2.4151    1.0000 </r>
       <r>   -2.4138    1.0000 </r>
       <r>   -1.9680    1.0000 </r>
       <r>   -1.9664    1.0000 </r>
       <r>   -1.9664    1.0000 </r>
       <r>   -1.9649    1.0000 </r>
       <r>   -1.8524    1.0000 </r>
       <r>   -1.8509    1.0000 </r>
       <r>   -1.8509    1.0000 </r>
       <r>   -1.8493    1.0000 </r>
       <r>   -1.2707    1.0000 </r>
       <r>   -1.2693    1.0000 </r>
       <r>   -1.2693    1.0000 </r>
       <r>   -1.2679    1.0000 </r>
       <r>   -0.9842    1.0000 </r>
       <r>   -0.9801    1.0000 </r>
       <r>   -0.9790    1.0000 </r>
       <r>   -0.9787    1.0000 </r>
       <r>   -0.9773    1.0000 </r>
       <r>   -0.2118    1.0000 </r>
       <r>   -0.2104    1.0000 </r>
       <r>   -0.2102    1.0000 </r>
       <r>   -0.2087    1.0000 </r>
       <r>    0.0077    1.0000 </r>
       <r>    0.0089    1.0000 </r>
       <r>    0.0094    1.0000 </r>
       <r>    0.0106    1.0000 </r>
       <r>    0.9368    1.0000 </r>
       <r>    0.9383    1.0000 </r>
       <r>    0.9384    1.0000 </r>
       <r>    0.9398    1.0000 </r>
       <r>    1.1881    1.0000 </r>
       <r>    1.6669    1.0000 </r>
       <r>    1.6674    1.0000 </r>
       <r>    1.6678    1.0000 </r>
       <r>    1.6683    1.0000 </r>
       <r>    1.7478    1.0000 </r>
       <r>    1.7481    1.0000 </r>
       <r>    1.7488    1.0000 </r>
       <r>    1.7491    1.0000 </r>
       <r>    2.0647    1.0000 </r>
       <r>    2.0658    1.0000 </r>
       <r>    2.0659    1.0000 </r>
       <r>    2.0670    1.0000 </r>
       <r>    2.0946    1.0000 </r>
       <r>    2.0951    1.0000 </r>
       <r>    2.0955    1.0000 </r>
       <r>    2.0961    1.0000 </r>
       <r>    2.5137    1.0000 </r>
       <r>    2.5150    1.0000 </r>
       <r>    2.5154    1.0000 </r>
       <r>    2.5162    1.0000 </r>
       <r>    2.5217    1.0000 </r>
       <r>    2.5226    1.0000 </r>
       <r>    2.5226    1.0000 </r>
       <r>    2.5237    1.0000 </r>
       <r>    2.5464    1.0000 </r>
       <r>    2.5469    1.0000 </r>
       <r>    2.5475    1.0000 </r>
       <r>    2.5480    1.0000 </r>
       <r>    2.7879    1.0000 </r>
       <r>    2.7884    1.0000 </r>
       <r>    2.7889    1.0000 </r>
       <r>    2.7894    1.0000 </r>
       <r>    3.0372    1.0000 </r>
       <r>    3.0372    1.0000 </r>
       <r>    3.4241    1.0000 </r>
       <r>    3.5233    1.0000 </r>
       <r>    3.5233    1.0000 </r>
       <r>    3.6679    1.0000 </r>
       <r>    3.6685    1.0000 </r>
       <r>    3.6687    1.0000 </r>
       <r>    3.6692    1.0000 </r>
       <r>    3.9851    1.0000 </r>
       <r>    3.9863    1.0000 </r>
       <r>    3.9864    1.0000 </r>
       <r>    3.9876    1.0000 </r>
       <r>    4.1006    1.0000 </r>
       <r>    4.1014    1.0000 </r>
       <r>    4.1018    1.0000 </r>
       <r>    4.1026    1.0000 </r>
       <r>    4.2095    1.0000 </r>
       <r>    4.2108    1.0000 </r>
       <r>    4.2114    1.0000 </r>
       <r>    4.2127    1.0000 </r>
       <r>    4.4465    1.0000 </r>
       <r>    4.4466    1.0000 </r>
       <r>    4.5153    1.0000 </r>
       <r>    4.5160    1.0000 </r>
       <r>    4.5163    1.0000 </r>
       <r>    4.5171    1.0000 </r>
       <r>    4.5960    1.0000 </r>
       <r>    4.5970    1.0000 </r>
       <r>    4.5978    1.0000 </r>
       <r>    4.5985    1.0000 </r>
       <r>    4.6066    1.0000 </r>
       <r>    4.6072    1.0000 </r>
       <r>    4.6077    1.0000 </r>
       <r>    4.6080    1.0000 </r>
       <r>    5.4045    1.0000 </r>
       <r>    5.5618    1.0000 </r>
       <r>    5.5618    1.0000 </r>
       <r>    6.4033    0.0000 </r>
       <r>    6.6331    0.0000 </r>
       <r>    6.8528    0.0000 </r>
       <r>    6.8942    0.0000 </r>
       <r>    6.8950    0.0000 </r>
       <r>    6.8955    0.0000 </r>
       <r>    6.8962    0.0000 </r>
       <r>    7.3482    0.0000 </r>
       <r>    7.3486    0.0000 </r>
       <r>    7.3496    0.0000 </r>
       <r>    7.3500    0.0000 </r>
       <r>    7.3782    0.0000 </r>
       <r>    7.7127    0.0000 </r>
       <r>    7.7129    0.0000 </r>
       <r>    7.7135    0.0000 </r>
       <r>    7.7137    0.0000 </r>
       <r>    8.0757    0.0000 </r>
       <r>    8.2287    0.0000 </r>
       <r>    8.2472    0.0000 </r>
       <r>    8.2479    0.0000 </r>
       <r>    8.2484    0.0000 </r>
       <r>    8.2491    0.0000 </r>
       <r>    8.2839    0.0000 </r>
       <r>    8.2841    0.0000 </r>
       <r>    8.2844    0.0000 </r>
       <r>    8.2846    0.0000 </r>
       <r>    8.7363    0.0000 </r>
       <r>    8.7364    0.0000 </r>
       <r>    8.8853    0.0000 </r>
       <r>    8.8861    0.0000 </r>
       <r>    8.8868    0.0000 </r>
       <r>    8.8876    0.0000 </r>
       <r>    8.9955    0.0000 </r>
       <r>    8.9969    0.0000 </r>
       <r>    8.9972    0.0000 </r>
       <r>    9.0083    0.0000 </r>
      </set>
      <set comment="kpoint 5">
       <r>   -5.9958    1.0000 </r>
       <r>   -5.4558    1.0000 </r>
       <r>   -5.4548    1.0000 </r>
       <r>   -4.9403    1.0000 </r>
       <r>   -4.9270    1.0000 </r>
       <r>   -4.9269    1.0000 </r>
       <r>   -4.4507    1.0000 </r>
       <r>   -4.4500    1.0000 </r>
       <r>   -4.4498    1.0000 </r>
       <r>   -4.4490    1.0000 </r>
       <r>   -4.3968    1.0000 </r>
       <r>   -4.3957    1.0000 </r>
       <r>   -4.0906    1.0000 </r>
       <r>   -4.0901    1.0000 </r>
       <r>   -3.9509    1.0000 </r>
       <r>   -3.9498    1.0000 </r>
       <r>   -3.6654    1.0000 </r>
       <r>   -3.6647    1.0000 </r>
       <r>   -3.5799    1.0000 </r>
       <r>   -3.5789    1.0000 </r>
       <r>   -3.5788    1.0000 </r>
       <r>   -3.5777    1.0000 </r>
       <r>   -3.1566    1.0000 </r>
       <r>   -2.8730    1.0000 </r>
       <r>   -2.8718    1.0000 </r>
       <r>   -2.6221    1.0000 </r>
       <r>   -2.6212    1.0000 </r>
       <r>   -2.5966    1.0000 </r>
       <r>   -2.5954    1.0000 </r>
       <r>   -2.2576    1.0000 </r>
       <r>   -2.2573    1.0000 </r>
       <r>   -2.0580    1.0000 </r>
       <r>   -1.8407    1.0000 </r>
       <r>   -1.4708    1.0000 </r>
       <r>   -1.4693    1.0000 </r>
       <r>   -1.1377    1.0000 </r>
       <r>   -1.1363    1.0000 </r>
       <r>   -1.1122    1.0000 </r>
       <r>   -1.1119    1.0000 </r>
       <r>   -1.0745    1.0000 </r>
       <r>   -1.0729    1.0000 </r>
       <r>   -0.9909    1.0000 </r>
       <r>   -0.9895    1.0000 </r>
       <r>   -0.6665    1.0000 </r>
       <r>   -0.6141    1.0000 </r>
       <r>   -0.6127    1.0000 </r>
       <r>   -0.4642    1.0000 </r>
       <r>   -0.4628    1.0000 </r>
       <r>   -0.4627    1.0000 </r>
       <r>   -0.4613    1.0000 </r>
       <r>    0.2668    1.0000 </r>
       <r>    0.2686    1.0000 </r>
       <r>    0.5641    1.0000 </r>
       <r>    0.5652    1.0000 </r>
       <r>    0.5654    1.0000 </r>
       <r>    0.5666    1.0000 </r>
       <r>    1.0588    1.0000 </r>
       <r>    1.0592    1.0000 </r>
       <r>    1.4866    1.0000 </r>
       <r>    1.6284    1.0000 </r>
       <r>    1.6416    1.0000 </r>
       <r>    1.6422    1.0000 </r>
       <r>    1.7038    1.0000 </r>
       <r>    1.7041    1.0000 </r>
       <r>    1.7664    1.0000 </r>
       <r>    1.7677    1.0000 </r>
       <r>    1.9291    1.0000 </r>
       <r>    1.9300    1.0000 </r>
       <r>    2.1258    1.0000 </r>
       <r>    2.1264    1.0000 </r>
       <r>    2.1267    1.0000 </r>
       <r>    2.1273    1.0000 </r>
       <r>    2.1799    1.0000 </r>
       <r>    2.1804    1.0000 </r>
       <r>    2.2990    1.0000 </r>
       <r>    2.4844    1.0000 </r>
       <r>    2.4849    1.0000 </r>
       <r>    2.7380    1.0000 </r>
       <r>    2.7388    1.0000 </r>
       <r>    2.7610    1.0000 </r>
       <r>    2.7619    1.0000 </r>
       <r>    2.8144    1.0000 </r>
       <r>    2.8145    1.0000 </r>
       <r>    2.9013    1.0000 </r>
       <r>    2.9021    1.0000 </r>
       <r>    2.9843    1.0000 </r>
       <r>    2.9850    1.0000 </r>
       <r>    2.9851    1.0000 </r>
       <r>    2.9858    1.0000 </r>
       <r>    3.0262    1.0000 </r>
       <r>    3.0270    1.0000 </r>
       <r>    3.0411    1.0000 </r>
       <r>    3.0846    1.0000 </r>
       <r>    3.2617    1.0000 </r>
       <r>    3.2625    1.0000 </r>
       <r>    3.5595    1.0000 </r>
       <r>    3.5595    1.0000 </r>
       <r>    3.6955    1.0000 </r>
       <r>    3.6958    1.0000 </r>
       <r>    3.8166    1.0000 </r>
       <r>    3.8181    1.0000 </r>
       <r>    3.8451    1.0000 </r>
       <r>    3.8459    1.0000 </r>
       <r>    3.8963    1.0000 </r>
       <r>    4.0192    1.0000 </r>
       <r>    4.0194    1.0000 </r>
       <r>    4.0296    1.0000 </r>
       <r>    4.0305    1.0000 </r>
       <r>    4.0307    1.0000 </r>
       <r>    4.0317    1.0000 </r>
       <r>    4.1770    1.0000 </r>
       <r>    4.1771    1.0000 </r>
       <r>    4.3716    1.0000 </r>
       <r>    4.3728    1.0000 </r>
       <r>    4.3869    1.0000 </r>
       <r>    4.3880    1.0000 </r>
       <r>    4.5013    1.0000 </r>
       <r>    4.5017    1.0000 </r>
       <r>    4.5900    1.0000 </r>
       <r>    4.5913    1.0000 </r>
       <r>    4.5914    1.0000 </r>
       <r>    4.5927    1.0000 </r>
       <r>    4.7519    1.0000 </r>
       <r>    4.7520    1.0000 </r>
       <r>    4.7787    1.0000 </r>
       <r>    5.0906    1.0000 </r>
       <r>    5.2986    1.0000 </r>
       <r>    5.7607    1.0000 </r>
       <r>    6.6618    0.0000 </r>
       <r>    6.7814    0.0000 </r>
       <r>    6.7823    0.0000 </r>
       <r>    7.0281    0.0000 </r>
       <r>    7.0284    0.0000 </r>
       <r>    7.1865    0.0000 </r>
       <r>    7.1866    0.0000 </r>
       <r>    7.5496    0.0000 </r>
       <r>    7.5497    0.0000 </r>
       <r>    7.6024    0.0000 </r>
       <r>    7.6759    0.0000 </r>
       <r>    7.7559    0.0000 </r>
       <r>    7.7564    0.0000 </r>
       <r>    7.7601    0.0000 </r>
       <r>    7.7612    0.0000 </r>
       <r>    8.1225    0.0000 </r>
       <r>    8.1227    0.0000 </r>
       <r>    8.1468    0.0000 </r>
       <r>    8.1475    0.0000 </r>
       <r>    8.2945    0.0000 </r>
       <r>    8.2954    0.0000 </r>
       <r>    8.2957    0.0000 </r>
       <r>    8.2967    0.0000 </r>
       <r>    8.3431    0.0000 </r>
       <r>    8.3434    0.0000 </r>
       <r>    8.5304    0.0000 </r>
       <r>    8.6351    0.0000 </r>
       <r>    8.6847    0.0000 </r>
       <r>    8.7447    0.0000 </r>
       <r>    8.7450    0.0000 </r>
       <r>    8.7460    0.0000 </r>
       <r>    8.7463    0.0000 </r>
       <r>    8.7924    0.0000 </r>
       <r>    8.9301    0.0000 </r>
       <r>    8.9302    0.0000 </r>
       <r>    8.9978    0.0000 </r>
      </set>
      <set comment="kpoint 6">
       <r>   -5.7930    1.0000 </r>
       <r>   -5.7916    1.0000 </r>
       <r>   -5.2614    1.0000 </r>
       <r>   -5.2601    1.0000 </r>
       <r>   -4.7464    1.0000 </r>
       <r>   -4.7458    1.0000 </r>
       <r>   -4.7451    1.0000 </r>
       <r>   -4.7445    1.0000 </r>
       <r>   -4.3067    1.0000 </r>
       <r>   -4.3061    1.0000 </r>
       <r>   -4.3054    1.0000 </r>
       <r>   -4.3048    1.0000 </r>
       <r>   -4.2264    1.0000 </r>
       <r>   -4.2251    1.0000 </r>
       <r>   -3.6886    1.0000 </r>
       <r>   -3.6863    1.0000 </r>
       <r>   -3.5855    1.0000 </r>
       <r>   -3.5848    1.0000 </r>
       <r>   -3.5842    1.0000 </r>
       <r>   -3.5834    1.0000 </r>
       <r>   -3.3086    1.0000 </r>
       <r>   -3.3064    1.0000 </r>
       <r>   -3.0735    1.0000 </r>
       <r>   -3.0722    1.0000 </r>
       <r>   -3.0716    1.0000 </r>
       <r>   -3.0703    1.0000 </r>
       <r>   -2.7607    1.0000 </r>
       <r>   -2.7596    1.0000 </r>
       <r>   -2.7013    1.0000 </r>
       <r>   -2.6995    1.0000 </r>
       <r>   -2.1439    1.0000 </r>
       <r>   -2.1429    1.0000 </r>
       <r>   -1.6714    1.0000 </r>
       <r>   -1.6712    1.0000 </r>
       <r>   -1.0841    1.0000 </r>
       <r>   -1.0837    1.0000 </r>
       <r>   -1.0236    1.0000 </r>
       <r>   -1.0228    1.0000 </r>
       <r>   -0.8662    1.0000 </r>
       <r>   -0.8648    1.0000 </r>
       <r>   -0.8645    1.0000 </r>
       <r>   -0.8632    1.0000 </r>
       <r>   -0.8467    1.0000 </r>
       <r>   -0.8460    1.0000 </r>
       <r>   -0.8450    1.0000 </r>
       <r>   -0.8441    1.0000 </r>
       <r>   -0.4075    1.0000 </r>
       <r>   -0.4065    1.0000 </r>
       <r>   -0.0636    1.0000 </r>
       <r>   -0.0620    1.0000 </r>
       <r>   -0.0619    1.0000 </r>
       <r>   -0.0603    1.0000 </r>
       <r>    0.0285    1.0000 </r>
       <r>    0.0299    1.0000 </r>
       <r>    0.7189    1.0000 </r>
       <r>    0.7193    1.0000 </r>
       <r>    1.1773    1.0000 </r>
       <r>    1.1788    1.0000 </r>
       <r>    1.1789    1.0000 </r>
       <r>    1.1803    1.0000 </r>
[...]
      </set>
     </set>
    </set>
   </array>
  </eigenvalues>
  <separator name="orbital magnetization" >
   <v name="MAGDIPOLOUT">      0.00000000      0.00000000      0.00000000</v>
  </separator>
  <dos>
   <i name="efermi">      5.91653209 </i>
   <total>
    <array>
     <dimension dim="1">gridpoints</dimension>
     <dimension dim="2">spin</dimension>
     <field>energy</field>
     <field>total</field>
     <field>integrated</field>
     <set>
      <set comment="spin 1">
       <r>    -6.9055     0.0000     0.0000 </r>
       <r>    -6.8488     0.0000     0.0000 </r>
       <r>    -6.7921     0.0000     0.0000 </r>
       <r>    -6.7354     0.0000     0.0000 </r>
       <r>    -6.6787     0.0000     0.0000 </r>
       <r>    -6.6220     0.0000     0.0000 </r>
       <r>    -6.5653     0.0000     0.0000 </r>
       <r>    -6.5086     0.0000     0.0000 </r>
       <r>    -6.4519     0.0000     0.0000 </r>
       <r>    -6.3951     0.0000     0.0000 </r>
       <r>    -6.3384     0.0000     0.0000 </r>
       <r>    -6.2817     0.0000     0.0000 </r>
       <r>    -6.2250     0.0000     0.0000 </r>
       <r>    -6.1683     0.0000     0.0000 </r>
       <r>    -6.1116     0.5501     0.0312 </r>
       <r>    -6.0549     2.9692     0.1996 </r>
       <r>    -5.9982     2.7693     0.3566 </r>
       <r>    -5.9415     4.3115     0.6011 </r>
       <r>    -5.8848     4.2805     0.8438 </r>
       <r>    -5.8281     3.3061     1.0312 </r>
       <r>    -5.7714    13.2059     1.7801 </r>
       <r>    -5.7147    12.4559     2.4864 </r>
       <r>    -5.6580     0.7918     2.5312 </r>
       <r>    -5.6013     0.6248     2.5667 </r>
       <r>    -5.5446     6.0721     2.9110 </r>
       <r>    -5.4879    16.4500     3.8438 </r>
       <r>    -5.4312    13.2223     4.5935 </r>
       <r>    -5.3745    13.0807     5.3355 </r>
       <r>    -5.3178     4.4710     5.5890 </r>
       <r>    -5.2611     6.4431     5.9543 </r>
       <r>    -5.2044    12.1618     6.6439 </r>
       <r>    -5.1477    21.1594     7.8437 </r>
       <r>    -5.0910     0.0000     7.8438 </r>
       <r>    -5.0343     3.2865     8.0301 </r>
       <r>    -4.9776    25.5641     9.4797 </r>
       <r>    -4.9209    18.1476    10.5087 </r>
       <r>    -4.8642    15.7559    11.4021 </r>
       <r>    -4.8075     3.6291    11.6079 </r>
       <r>    -4.7508    15.6942    12.4978 </r>
       <r>    -4.6941    33.5616    14.4009 </r>
       <r>    -4.6373     0.0952    14.4062 </r>
       <r>    -4.5806     3.3976    14.5989 </r>
       <r>    -4.5239     9.8344    15.1565 </r>
       <r>    -4.4672    13.5186    15.9231 </r>
       <r>    -4.4105    34.1648    17.8604 </r>
       <r>    -4.3538    13.3336    18.6164 </r>
       <r>    -4.2971    36.3045    20.6750 </r>
       <r>    -4.2404     3.2277    20.8580 </r>
       <r>    -4.1837    16.9500    21.8191 </r>
       <r>    -4.1270    22.4786    23.0938 </r>
       <r>    -4.0703    19.8753    24.2207 </r>
       <r>    -4.0136    26.3959    25.7175 </r>
       <r>    -3.9569    10.6652    26.3222 </r>
       <r>    -3.9002    41.7322    28.6886 </r>
       <r>    -3.8435    12.0562    29.3722 </r>
       <r>    -3.7868    30.3166    31.0912 </r>
       <r>    -3.7301     3.1240    31.2684 </r>
       <r>    -3.6734    27.9589    32.8537 </r>
       <r>    -3.6167    25.1695    34.2809 </r>
       <r>    -3.5600    66.0476    38.0263 </r>
       <r>    -3.5033    29.1864    39.6817 </r>
       <r>    -3.4466    10.5732    40.2813 </r>
       <r>    -3.3899    23.9081    41.6369 </r>
       <r>    -3.3332     2.5713    41.7829 </r>
       <r>    -3.2765    66.4731    45.5521 </r>
       <r>    -3.2198    14.1367    46.3540 </r>
       <r>    -3.1631    13.1356    47.0988 </r>
       <r>    -3.1064     5.4224    47.4063 </r>
       <r>    -3.0497    26.4293    48.9049 </r>
       <r>    -2.9930    13.2376    49.6556 </r>
       <r>    -2.9363     0.0116    49.6563 </r>
       <r>    -2.8796    18.8008    50.7224 </r>
       <r>    -2.8228    37.3400    52.8397 </r>
       <r>    -2.7661    19.5341    53.9473 </r>
       <r>    -2.7094    34.7741    55.9191 </r>
       <r>    -2.6527    37.2013    58.0286 </r>
       <r>    -2.5960    20.9643    59.2173 </r>
       <r>    -2.5393     6.6370    59.5938 </r>
       <r>    -2.4826     0.0000    59.5938 </r>
       <r>    -2.4259     0.8653    59.6428 </r>
       <r>    -2.3692    18.9748    60.7187 </r>
       <r>    -2.3125     0.0000    60.7188 </r>
       <r>    -2.2558     7.8034    61.1612 </r>
       <r>    -2.1991     5.4234    61.4688 </r>
       <r>    -2.1424     7.3640    61.8863 </r>
       <r>    -2.0857     5.8631    62.2188 </r>
       <r>    -2.0290     6.6129    62.5937 </r>
       <r>    -1.9723     5.9940    62.9336 </r>
       <r>    -1.9156    13.7771    63.7148 </r>
       <r>    -1.8589    11.7427    64.3807 </r>
       <r>    -1.8022    24.6933    65.7809 </r>
       <r>    -1.7455     0.0065    65.7812 </r>
       <r>    -1.6888     0.0917    65.7864 </r>
       <r>    -1.6321    13.1351    66.5312 </r>
       <r>    -1.5754     0.0000    66.5312 </r>
       <r>    -1.5187     0.0000    66.5313 </r>
       <r>    -1.4620    11.5137    67.1841 </r>
       <r>    -1.4053     2.8729    67.3470 </r>
       <r>    -1.3486     5.4535    67.6562 </r>
       <r>    -1.2919     0.0102    67.6568 </r>
       <r>    -1.2352    13.2165    68.4062 </r>
       <r>    -1.1785     0.0000    68.4063 </r>
       <r>    -1.1218    16.5314    69.3436 </r>
       <r>    -1.0650    74.4376    73.5645 </r>
       <r>    -1.0083    72.1943    77.6581 </r>
       <r>    -0.9516    64.7102    81.3274 </r>
       <r>    -0.8949    15.7150    82.2186 </r>
       <r>    -0.8382    64.3538    85.8678 </r>
       <r>    -0.7815    28.2316    87.4687 </r>
       <r>    -0.7248    13.0523    88.2089 </r>
       <r>    -0.6681     2.8742    88.3718 </r>
       <r>    -0.6114    11.9709    89.0506 </r>
       <r>    -0.5547    35.3903    91.0574 </r>
       <r>    -0.4980    48.9920    93.8354 </r>
       <r>    -0.4413    26.5646    95.3417 </r>
       <r>    -0.3846    13.2525    96.0931 </r>
       <r>    -0.3279     0.0106    96.0938 </r>
       <r>    -0.2712     2.3980    96.2297 </r>
       <r>    -0.2145    27.7139    97.8012 </r>
       <r>    -0.1578     9.5874    98.3448 </r>
       <r>    -0.1011    17.5893    99.3422 </r>
       <r>    -0.0444    34.3709   101.2911 </r>
       <r>     0.0123    53.9880   104.3524 </r>
       <r>     0.0690    17.5702   105.3490 </r>
       <r>     0.1257     3.2144   105.5312 </r>
       <r>     0.1824     0.0000   105.5312 </r>
       <r>     0.2391     0.0004   105.5313 </r>
       <r>     0.2958    13.2258   106.2812 </r>
       <r>     0.3525     4.9640   106.5627 </r>
       <r>     0.4092     1.6494   106.6562 </r>
       <r>     0.4659     4.0582   106.8864 </r>
       <r>     0.5226    34.8221   108.8609 </r>
       <r>     0.5793    39.8278   111.1193 </r>
       <r>     0.6360     0.6524   111.1562 </r>
       <r>     0.6928     0.0013   111.1563 </r>
       <r>     0.7495    13.2253   111.9062 </r>
       <r>     0.8062     0.0000   111.9062 </r>
       <r>     0.8629     0.0052   111.9065 </r>
       <r>     0.9196    13.2779   112.6594 </r>
       <r>     0.9763    13.1704   113.4062 </r>
       <r>     1.0330     0.0017   113.4063 </r>
       <r>     1.0897    13.2250   114.1562 </r>
       <r>     1.1464     0.0001   114.1563 </r>
       <r>     1.2031    50.1216   116.9983 </r>
       <r>     1.2598     6.0859   117.3438 </r>
       <r>     1.3165     0.0000   117.3438 </r>
       <r>     1.3732     0.0000   117.3438 </r>
       <r>     1.4299     1.1545   117.4092 </r>
       <r>     1.4866    15.3944   118.2821 </r>
       <r>     1.5433    20.0436   119.4187 </r>
       <r>     1.6000     8.8169   119.9186 </r>
       <r>     1.6567    27.9155   121.5015 </r>
       <r>     1.7134    50.5535   124.3681 </r>
       <r>     1.7701    53.3984   127.3959 </r>
       <r>     1.8268    15.9973   128.3030 </r>
       <r>     1.8835    51.7463   131.2372 </r>
       <r>     1.9402    42.8979   133.6697 </r>
       <r>     1.9969    38.2192   135.8368 </r>
       <r>     2.0536     9.5248   136.3769 </r>
       <r>     2.1103    58.9760   139.7210 </r>
       <r>     2.1670    26.8322   141.2425 </r>
       <r>     2.2237    12.8078   141.9687 </r>
       <r>     2.2804     0.4791   141.9959 </r>
       <r>     2.3371    38.3541   144.1707 </r>
       <r>     2.3938    84.5634   148.9657 </r>
       <r>     2.4505    19.0005   150.0431 </r>
       <r>     2.5073    42.1610   152.4338 </r>
       <r>     2.5640    50.0953   155.2744 </r>
       <r>     2.6207    18.7029   156.3349 </r>
       <r>     2.6774    41.6934   158.6991 </r>
       <r>     2.7341    21.8290   159.9370 </r>
       <r>     2.7908    31.8893   161.7452 </r>
       <r>     2.8475    18.3283   162.7845 </r>
       <r>     2.9042    74.3955   167.0030 </r>
       <r>     2.9609    18.5912   168.0571 </r>
       <r>     3.0176    56.2399   171.2461 </r>
       <r>     3.0743    40.1672   173.5237 </r>
       <r>     3.1310    98.7511   179.1232 </r>
       <r>     3.1877    45.7725   181.7187 </r>
       <r>     3.2444    13.9914   182.5121 </r>
       <r>     3.3011    45.7968   185.1091 </r>
       <r>     3.3578    66.1164   188.8581 </r>
       <r>     3.4145    22.3552   190.1257 </r>
       <r>     3.4712    45.5683   192.7096 </r>
       <r>     3.5279    65.0572   196.3985 </r>
       <r>     3.5846    28.7920   198.0311 </r>
       <r>     3.6413    39.6028   200.2769 </r>
       <r>     3.6980    69.1964   204.2005 </r>
       <r>     3.7547    36.9383   206.2952 </r>
       <r>     3.8114    28.8821   207.9329 </r>
       <r>     3.8681    23.8050   209.2828 </r>
       <r>     3.9248    47.7986   211.9931 </r>
       <r>     3.9815    35.6381   214.0140 </r>
       <r>     4.0382    59.1671   217.3690 </r>
       <r>     4.0949    71.2960   221.4117 </r>
       <r>     4.1516    13.8438   222.1968 </r>
       <r>     4.2083    47.5692   224.8941 </r>
       <r>     4.2651    33.8379   226.8129 </r>
       <r>     4.3218    19.3849   227.9122 </r>
       <r>     4.3785    38.4701   230.0936 </r>
       <r>     4.4352    27.9185   231.6766 </r>
       <r>     4.4919    10.4287   232.2680 </r>
       <r>     4.5486    48.1538   234.9984 </r>
       <r>     4.6053    92.5268   240.2450 </r>
       <r>     4.6620    40.8138   242.5593 </r>
       <r>     4.7187     0.6256   242.5948 </r>
       <r>     4.7754    42.3147   244.9942 </r>
       <r>     4.8321    12.7699   245.7188 </r>
       <r>     4.8888     0.0000   245.7188 </r>
       <r>     4.9455    12.7977   246.4444 </r>
       <r>     5.0022     9.7606   246.9979 </r>
       <r>     5.0589    49.4353   249.8010 </r>
       <r>     5.1156    28.0092   251.3892 </r>
       <r>     5.1723     1.4010   251.4688 </r>
       <r>     5.2290     0.0000   251.4688 </r>
       <r>     5.2857    10.7578   252.0788 </r>
       <r>     5.3424     9.0823   252.5937 </r>
       <r>     5.3991    11.9753   253.2728 </r>
       <r>     5.4558    17.7849   254.2812 </r>
       <r>     5.5125     0.0283   254.2829 </r>
       <r>     5.5692    21.0453   255.4762 </r>
       <r>     5.6259     0.9710   255.5312 </r>
       <r>     5.6826     0.0000   255.5312 </r>
       <r>     5.7393     0.0090   255.5318 </r>
       <r>     5.7960     6.6045   255.9063 </r>
       <r>     5.8527     1.6532   256.0000 </r>
       <r>     5.9094     0.0000   256.0000 </r>
       <r>     5.9661     0.0000   256.0000 </r>
       <r>     6.0229     0.0000   256.0000 </r>
       <r>     6.0796     0.0000   256.0000 </r>
       <r>     6.1363     0.0000   256.0000 </r>
       <r>     6.1930     0.0000   256.0000 </r>
       <r>     6.2497     0.0000   256.0000 </r>
       <r>     6.3064     0.0000   256.0000 </r>
       <r>     6.3631     0.0000   256.0000 </r>
       <r>     6.4198     3.2781   256.1859 </r>
       <r>     6.4765     3.3353   256.3750 </r>
       <r>     6.5332     1.2186   256.4441 </r>
       <r>     6.5899     2.0880   256.5625 </r>
       <r>     6.6466     3.3187   256.7507 </r>
       <r>     6.7033     6.7061   257.1309 </r>
       <r>     6.7600    13.1355   257.8758 </r>
       <r>     6.8167    13.4317   258.6374 </r>
       <r>     6.8734    16.3408   259.5640 </r>
       <r>     6.9301    26.4281   261.0625 </r>
       <r>     6.9868     3.3063   261.2500 </r>
       <r>     7.0435    19.4504   262.3529 </r>
       <r>     7.1002     1.2879   262.4259 </r>
       <r>     7.1569    25.4168   263.8671 </r>
       <r>     7.2136    41.6501   266.2288 </r>
       <r>     7.2703    11.3947   266.8750 </r>
       <r>     7.3270     0.0824   266.8797 </r>
       <r>     7.3837    34.4537   268.8333 </r>
       <r>     7.4404    27.1371   270.3721 </r>
       <r>     7.4971     3.3771   270.5636 </r>
       <r>     7.5538    10.6757   271.1689 </r>
       <r>     7.6105    14.8586   272.0114 </r>
       <r>     7.6672    19.8796   273.1387 </r>
       <r>     7.7239    86.9022   278.0663 </r>
       <r>     7.7806    66.1036   281.8146 </r>
       <r>     7.8374    29.1915   283.4700 </r>
       <r>     7.8941    29.3054   285.1318 </r>
       <r>     7.9508    29.7359   286.8179 </r>
       <r>     8.0075    26.8549   288.3406 </r>
       <r>     8.0642    40.6286   290.6444 </r>
       <r>     8.1209    22.1148   291.8984 </r>
       <r>     8.1776    63.2961   295.4875 </r>
       <r>     8.2343    99.9903   301.1573 </r>
       <r>     8.2910    55.6060   304.3103 </r>
       <r>     8.3477    62.6304   307.8617 </r>
       <r>     8.4044    38.7135   310.0569 </r>
       <r>     8.4611    46.6826   312.7040 </r>
       <r>     8.5178    12.6281   313.4204 </r>
       <r>     8.5745    19.5894   314.5312 </r>
       <r>     8.6312     1.9396   314.6412 </r>
       <r>     8.6879    24.7515   316.0447 </r>
       <r>     8.7446    60.2100   319.4588 </r>
       <r>     8.8013    59.0021   322.8045 </r>
       <r>     8.8580    13.7846   323.5862 </r>
       <r>     8.9147    26.7195   325.1013 </r>
       <r>     8.9714    15.7417   325.9939 </r>
       <r>     9.0281    19.9424   327.1247 </r>
       <r>     9.0848    12.9004   327.8562 </r>
       <r>     9.1415     0.3304   327.8750 </r>
       <r>     9.1982     0.0000   327.8750 </r>
       <r>     9.2549     0.0000   327.8750 </r>
       <r>     9.3116     0.0057   327.8753 </r>
       <r>     9.3683     2.1988   328.0000 </r>
       <r>     9.4250     0.0000   328.0000 </r>
       <r>     9.4817     0.0000   328.0000 </r>
       <r>     9.5384     0.0000   328.0000 </r>
       <r>     9.5952     0.0000   328.0000 </r>
       <r>     9.6519     0.0000   328.0000 </r>
       <r>     9.7086     0.0000   328.0000 </r>
       <r>     9.7653     0.0000   328.0000 </r>
       <r>     9.8220     0.0000   328.0000 </r>
       <r>     9.8787     0.0000   328.0000 </r>
       <r>     9.9354     0.0000   328.0000 </r>
       <r>     9.9921     0.0000   328.0000 </r>
       <r>    10.0488     0.0000   328.0000 </r>
       <r>    10.1055     0.0000   328.0000 </r>
      </set>
     </set>
    </array>
   </total>
  </dos>
 </calculation>
 <structure name="finalpos" >
  <crystal>
   <varray name="basis" >
    <v>      10.86200000       0.00000000       0.00000000 </v>
    <v>       0.00000000      10.86200000       0.00000000 </v>
    <v>       0.00000000       0.00000000      10.86200000 </v>
   </varray>
   <i name="volume">   1281.53182393 </i>
   <varray name="rec_basis" >
    <v>       0.09206408       0.00000000       0.00000000 </v>
    <v>       0.00000000       0.09206408       0.00000000 </v>
    <v>       0.00000000       0.00000000       0.09206408 </v>
   </varray>
  </crystal>
  <varray name="positions" >
   <v>       0.00092064       0.00000000       0.00000000 </v>
   <v>       0.50000000       0.00000000       0.00000000 </v>
   <v>       0.00000000       0.50000000       0.00000000 </v>
   <v>       0.50000000       0.50000000       0.00000000 </v>
   <v>       0.00000000       0.00000000       0.50000000 </v>
   <v>       0.50000000       0.00000000       0.50000000 </v>
   <v>       0.00000000       0.50000000       0.50000000 </v>
   <v>       0.50000000       0.50000000       0.50000000 </v>
   <v>       0.25000000       0.25000000       0.00000000 </v>
   <v>       0.75000000       0.25000000       0.00000000 </v>
   <v>       0.25000000       0.75000000       0.00000000 </v>
   <v>       0.75000000       0.75000000       0.00000000 </v>
   <v>       0.25000000       0.25000000       0.50000000 </v>
   <v>       0.75000000       0.25000000       0.50000000 </v>
   <v>       0.25000000       0.75000000       0.50000000 </v>
   <v>       0.75000000       0.75000000       0.50000000 </v>
   <v>       0.00000000       0.25000000       0.25000000 </v>
   <v>       0.50000000       0.25000000       0.25000000 </v>
   <v>       0.00000000       0.75000000       0.25000000 </v>
   <v>       0.50000000       0.75000000       0.25000000 </v>
   <v>       0.00000000       0.25000000       0.75000000 </v>
   <v>       0.50000000       0.25000000       0.75000000 </v>
   <v>       0.00000000       0.75000000       0.75000000 </v>
   <v>       0.50000000       0.75000000       0.75000000 </v>
   <v>       0.25000000       0.00000000       0.25000000 </v>
   <v>       0.75000000       0.00000000       0.25000000 </v>
   <v>       0.25000000       0.50000000       0.25000000 </v>
   <v>       0.75000000       0.50000000       0.25000000 </v>
   <v>       0.25000000       0.00000000       0.75000000 </v>
   <v>       0.75000000       0.00000000       0.75000000 </v>
   <v>       0.25000000       0.50000000       0.75000000 </v>
   <v>       0.75000000       0.50000000       0.75000000 </v>
   <v>       0.12500000       0.12500000       0.12500000 </v>
   <v>       0.62500000       0.12500000       0.12500000 </v>
   <v>       0.12500000       0.62500000       0.12500000 </v>
   <v>       0.62500000       0.62500000       0.12500000 </v>
   <v>       0.12500000       0.12500000       0.62500000 </v>
   <v>       0.62500000       0.12500000       0.62500000 </v>
   <v>       0.12500000       0.62500000       0.62500000 </v>
   <v>       0.62500000       0.62500000       0.62500000 </v>
   <v>       0.37500000       0.37500000       0.12500000 </v>
   <v>       0.87500000       0.37500000       0.12500000 </v>
   <v>       0.37500000       0.87500000       0.12500000 </v>
   <v>       0.87500000       0.87500000       0.12500000 </v>
   <v>       0.37500000       0.37500000       0.62500000 </v>
   <v>       0.87500000       0.37500000       0.62500000 </v>
   <v>       0.37500000       0.87500000       0.62500000 </v>
   <v>       0.87500000       0.87500000       0.62500000 </v>
   <v>       0.37500000       0.12500000       0.37500000 </v>
   <v>       0.87500000       0.12500000       0.37500000 </v>
   <v>       0.37500000       0.62500000       0.37500000 </v>
   <v>       0.87500000       0.62500000       0.37500000 </v>
   <v>       0.37500000       0.12500000       0.87500000 </v>
   <v>       0.87500000       0.12500000       0.87500000 </v>
   <v>       0.37500000       0.62500000       0.87500000 </v>
   <v>       0.87500000       0.62500000       0.87500000 </v>
   <v>       0.12500000       0.37500000       0.37500000 </v>
   <v>       0.62500000       0.37500000       0.37500000 </v>
   <v>       0.12500000       0.87500000       0.37500000 </v>
   <v>       0.62500000       0.87500000       0.37500000 </v>
   <v>       0.12500000       0.37500000       0.87500000 </v>
   <v>       0.62500000       0.37500000       0.87500000 </v>
   <v>       0.12500000       0.87500000       0.87500000 </v>
   <v>       0.62500000       0.87500000       0.87500000 </v>
  </varray>
 </structure>
</modeling>
