[1537848237.512619] [r8n3:32540:0]         sys.c:744  MXM  WARN  Conflicting CPU frequencies detected, using: 3365.55
[1537848237.516331] [r8n3:32540:0]         mxm.c:196  MXM  WARN  The 'ulimit -s' on the system is set to 'unlimited'. This may have negative performance implications. Please set the stack size to the default value (10240) 
[1537848237.517798] [r8n3:32540:0]         mxm.c:196  MXM  WARN  The 'ulimit -s' on the system is set to 'unlimited'. This may have negative performance implications. Please set the stack size to the default value (10240) 
 argument  1 = /storage/home/bikashp/nwchem_run/rabeet/bh38/bh6/nwtpssloc/H.nw
                                         
                                         


              Northwest Computational Chemistry Package (NWChem) 6.6
              ------------------------------------------------------


                    Environmental Molecular Sciences Laboratory
                       Pacific Northwest National Laboratory
                                Richland, WA 99352

                              Copyright (c) 1994-2015
                       Pacific Northwest National Laboratory
                            Battelle Memorial Institute

             NWChem is an open-source computational chemistry package
                        distributed under the terms of the
                      Educational Community License (ECL) 2.0
             A copy of the license is included with this distribution
                              in the LICENSE.TXT file

                                  ACKNOWLEDGMENT
                                  --------------

            This software and its documentation were developed at the
            EMSL at Pacific Northwest National Laboratory, a multiprogram
            national laboratory, operated for the U.S. Department of Energy
            by Battelle under Contract Number DE-AC05-76RL01830. Support
            for this work was provided by the Department of Energy Office
            of Biological and Environmental Research, Office of Basic
            Energy Sciences, and the Office of Advanced Scientific Computing.


           Job information
           ---------------

    hostname        = r8n3.niserhpc.org
    program         = /home/bikashp/Code/nwchem-6.6_tpssloc/bin/LINUX64/nwchem
    date            = Tue Sep 25 09:33:57 2018

    compiled        = Tue_Sep_18_16:24:59_2018
    source          = /home/bikashp/Code/nwchem-6.6_tpssloc
    nwchem branch   = 6.6
    nwchem revision = 27746
    ga revision     = 10594
    input           = /storage/home/bikashp/nwchem_run/rabeet/bh38/bh6/nwtpssloc/H.nw
    prefix          = H.
    data base       = ./H.db
    status          = startup
    nproc           =        1
    time left       =     -1s



           Memory information
           ------------------

    heap     =   13107196 doubles =    100.0 Mbytes
    stack    =   13107201 doubles =    100.0 Mbytes
    global   =   26214400 doubles =    200.0 Mbytes (distinct from heap & stack)
    total    =   52428797 doubles =    400.0 Mbytes
    verify   = yes
    hardfail = no 


           Directory information
           ---------------------

  0 permanent = .
  0 scratch   = .




                                NWChem Input Module
                                -------------------



 Scaling coordinates for geometry "geometry" by  1.889725989
 (inverse scale =  0.529177249)



                             Geometry "geometry" -> ""
                             -------------------------

 Output coordinates in angstroms (scale by  1.889725989 to convert to a.u.)

  No.       Tag          Charge          X              Y              Z
 ---- ---------------- ---------- -------------- -------------- --------------
    1 H                    1.0000     0.00000000     0.00000000     0.00000000

      Atomic Mass 
      ----------- 

      H                  1.007825


 Effective nuclear repulsion energy (a.u.)       0.0000000000

            Nuclear Dipole moment (a.u.) 
            ----------------------------
        X                 Y               Z
 ---------------- ---------------- ----------------
     0.0000000000     0.0000000000     0.0000000000


            XYZ format geometry
            -------------------
     1
 geometry
 H                     0.00000000     0.00000000     0.00000000



 Summary of "ao basis" -> "" (cartesian)
 ------------------------------------------------------------------------------
       Tag                 Description            Shells   Functions and Types
 ---------------- ------------------------------  ------  ---------------------
 *                     6-311++G(3df,3pd)              on all atoms 



                                 NWChem DFT Module
                                 -----------------


                      Basis "ao basis" -> "ao basis" (cartesian)
                      -----
  H (Hydrogen)
  ------------
            Exponent  Coefficients 
       -------------- ---------------------------------------------------------
  1 S  3.38650000E+01  0.025494
  1 S  5.09479000E+00  0.190373
  1 S  1.15879000E+00  0.852161

  2 S  3.25840000E-01  1.000000

  3 S  1.02741000E-01  1.000000

  4 S  3.60000000E-02  1.000000

  5 P  3.00000000E+00  1.000000

  6 P  7.50000000E-01  1.000000

  7 P  1.87500000E-01  1.000000

  8 D  1.00000000E+00  1.000000



 Summary of "ao basis" -> "ao basis" (cartesian)
 ------------------------------------------------------------------------------
       Tag                 Description            Shells   Functions and Types
 ---------------- ------------------------------  ------  ---------------------
 H                     6-311++G(3df,3pd)             8       19   4s3p1d




 Summary of "ao basis" -> "ao basis" (cartesian)
 ------------------------------------------------------------------------------
       Tag                 Description            Shells   Functions and Types
 ---------------- ------------------------------  ------  ---------------------
 H                     6-311++G(3df,3pd)             8       19   4s3p1d


  Caching 1-el integrals 

            General Information
            -------------------
          SCF calculation type: DFT
          Wavefunction type:  spin polarized.
          No. of atoms     :     1
          No. of electrons :     1
           Alpha electrons :     1
            Beta electrons :     0
          Charge           :     0
          Spin multiplicity:     2
          Use of symmetry is: off; symmetry adaption is: off
          Maximum number of iterations: ***
          AO basis - number of functions:    19
                     number of shells:     8
          Convergence on energy requested: 1.00D-06
          Convergence on density requested: 1.00D-05
          Convergence on gradient requested: 5.00D-04

              XC Information
              --------------
                  TPSS metaGGA Exchange Functional  1.000          
             TPSS03 metaGGA Correlation Functional  1.000          

             Grid Information
             ----------------
          Grid used for XC integration:  medium    
          Radial quadrature: Mura-Knowles        
          Angular quadrature: Lebedev. 
          Tag              B.-S. Rad. Rad. Pts. Rad. Cut. Ang. Pts.
          ---              ---------- --------- --------- ---------
          H                   0.35       45           8.0       434
          Grid pruning is: on 
          Number of quadrature shells:    45
          Spatial weights used:  Erf1

          Convergence Information
          -----------------------
          Convergence aids based upon iterative change in 
          total energy or number of iterations. 
          Levelshifting, if invoked, occurs when the 
          HOMO/LUMO gap drops below (HL_TOL): 1.00D-02
          DIIS, if invoked, will attempt to extrapolate 
          using up to (NFOCK): 10 stored Fock matrices.

                    Damping( 0%)  Levelshifting(0.5)       DIIS
                  --------------- ------------------- ---------------
          dE  on:    start            ASAP                start   
          dE off:    2 iters        *** iters           *** iters 


      Screening Tolerance Information
      -------------------------------
          Density screening/tol_rho: 1.00D-10
          AO Gaussian exp screening on grid/accAOfunc:  14
          CD Gaussian exp screening on grid/accCDfunc:  20
          XC Gaussian exp screening on grid/accXCfunc:  20
          Schwarz screening/accCoul: 1.00D-08


      Superposition of Atomic Density Guess
      -------------------------------------

 Sum of atomic energies:          -0.49981817

      Non-variational initial energy
      ------------------------------

 Total energy =      -0.499818
 1-e energy   =      -0.499818
 2-e energy   =       0.000000
 HOMO         =      -0.499818
 LUMO         =      -0.118896

   Time after variat. SCF:      0.0
   Time prior to 1st pass:      0.0

 #quartets = 6.660D+02 #integrals = 3.754D+03 #direct =  0.0% #cached =100.0%


 Integral file          = ./H.aoints.0
 Record size in doubles =    65536    No. of integs per rec  =    43688
 Max. records in memory =        2    Max. records in file   = ********
 No. of bits per label  =        8    No. of bits per value  =       64


 Grid_pts file          = ./H.gridpts.0
 Record size in doubles =  12289        No. of grid_pts per rec  =   3070
 Max. records in memory =      8        Max. recs in file   = 995495546


           Memory utilization after 1st SCF pass: 
           Heap Space remaining (MW):       12.88            12876732
          Stack Space remaining (MW):       13.11            13106908

   convergence    iter        energy       DeltaE   RMS-Dens  Diis-err    time
 ---------------- ----- ----------------- --------- --------- ---------  ------
 d= 0,ls=0.0,diis     1     -0.4998411420 -5.00D-01  2.15D-03  3.43D-04     0.1
                                                     0.00D+00  0.00D+00
 d= 0,ls=0.0,diis     2     -0.5000485882 -2.07D-04  1.44D-04  6.19D-06     0.1
                                                     0.00D+00  0.00D+00
 d= 0,ls=0.0,diis     3     -0.5000506795 -2.09D-06  2.64D-05  3.70D-08     0.2
                                                     0.00D+00  0.00D+00
 d= 0,ls=0.0,diis     4     -0.5000507123 -3.28D-08  6.85D-07  5.42D-11     0.2
                                                     0.00D+00  0.00D+00


         Total DFT energy =       -0.500050712294
      One electron energy =       -0.499570857060
           Coulomb energy =        0.310346321249
          Exchange energy =       -0.310826176483
       Correlation energy =        0.000000000000
 Nuclear repulsion energy =        0.000000000000

 Numeric. integr. density =        0.999999999974

     Total iterative time =      0.2s



                    DFT Final Alpha Molecular Orbital Analysis
                    ------------------------------------------

 Vector    1  Occ=1.000000D+00  E=-2.856986D-01
              MO Center=  1.7D-15,  1.7D-15,  1.7D-15, r^2= 8.8D-01
   Bfn.  Coefficient  Atom+Function         Bfn.  Coefficient  Atom+Function  
  ----- ------------  ---------------      ----- ------------  ---------------
     2      0.487993  1 H  s                  3      0.360683  1 H  s          
     1      0.245796  1 H  s          

 Vector    2  Occ=0.000000D+00  E= 2.947675D-02
              MO Center=  4.3D-14,  4.3D-14,  4.4D-14, r^2= 9.0D+00
   Bfn.  Coefficient  Atom+Function         Bfn.  Coefficient  Atom+Function  
  ----- ------------  ---------------      ----- ------------  ---------------
     4      1.576050  1 H  s                  3     -0.921662  1 H  s          

 Vector    3  Occ=0.000000D+00  E= 2.315747D-01
              MO Center=  9.9D-14, -7.5D-14, -1.3D-14, r^2= 1.9D+00
   Bfn.  Coefficient  Atom+Function         Bfn.  Coefficient  Atom+Function  
  ----- ------------  ---------------      ----- ------------  ---------------
    11      0.712803  1 H  px                12     -0.703535  1 H  py         
    13     -0.199644  1 H  pz         

 Vector    4  Occ=0.000000D+00  E= 2.315747D-01
              MO Center= -2.2D-13,  4.4D-15, -7.9D-13, r^2= 1.9D+00
   Bfn.  Coefficient  Atom+Function         Bfn.  Coefficient  Atom+Function  
  ----- ------------  ---------------      ----- ------------  ---------------
    13      0.981139  1 H  pz                11      0.283198  1 H  px         

 Vector    5  Occ=0.000000D+00  E= 2.315747D-01
              MO Center= -5.1D-13, -5.6D-13,  1.7D-13, r^2= 1.9D+00
   Bfn.  Coefficient  Atom+Function         Bfn.  Coefficient  Atom+Function  
  ----- ------------  ---------------      ----- ------------  ---------------
    12      0.740185  1 H  py                11      0.674253  1 H  px         
    13     -0.201036  1 H  pz         

 Vector    6  Occ=0.000000D+00  E= 3.529832D-01
              MO Center=  7.7D-13,  7.8D-13,  7.7D-13, r^2= 5.2D+00
   Bfn.  Coefficient  Atom+Function         Bfn.  Coefficient  Atom+Function  
  ----- ------------  ---------------      ----- ------------  ---------------
     3      3.008746  1 H  s                  2     -2.104607  1 H  s          
     4     -1.419037  1 H  s          

 Vector    7  Occ=0.000000D+00  E= 1.672114D+00
              MO Center=  3.8D-12, -2.4D-12,  6.1D-15, r^2= 8.8D-01
   Bfn.  Coefficient  Atom+Function         Bfn.  Coefficient  Atom+Function  
  ----- ------------  ---------------      ----- ------------  ---------------
     8      1.064691  1 H  px                 9     -0.706022  1 H  py         
    11     -0.577362  1 H  px                12      0.382862  1 H  py         

 Vector    8  Occ=0.000000D+00  E= 1.672114D+00
              MO Center=  1.4D-11,  2.1D-11,  4.7D-12, r^2= 8.8D-01
   Bfn.  Coefficient  Atom+Function         Bfn.  Coefficient  Atom+Function  
  ----- ------------  ---------------      ----- ------------  ---------------
     9      1.045757  1 H  py                 8      0.697911  1 H  px         
    12     -0.567094  1 H  py                11     -0.378464  1 H  px         
    10      0.227552  1 H  pz         

 Vector    9  Occ=0.000000D+00  E= 1.672114D+00
              MO Center= -9.8D-13, -1.9D-12,  1.2D-11, r^2= 8.8D-01
   Bfn.  Coefficient  Atom+Function         Bfn.  Coefficient  Atom+Function  
  ----- ------------  ---------------      ----- ------------  ---------------
    10      1.257082  1 H  pz                13     -0.681691  1 H  pz         
     9     -0.200979  1 H  py         

 Vector   10  Occ=0.000000D+00  E= 1.699522D+00
              MO Center= -1.8D-11, -1.8D-11, -1.8D-11, r^2= 2.3D+00
   Bfn.  Coefficient  Atom+Function         Bfn.  Coefficient  Atom+Function  
  ----- ------------  ---------------      ----- ------------  ---------------
     2      4.752519  1 H  s                  3     -2.438625  1 H  s          
     1     -1.802623  1 H  s                 14     -0.854259  1 H  dxx        
    17     -0.854259  1 H  dyy               19     -0.854259  1 H  dzz        
     4      0.795069  1 H  s          

 Vector   11  Occ=0.000000D+00  E= 3.001769D+00
              MO Center= -7.6D-14, -1.7D-14,  3.9D-14, r^2= 4.9D-01
   Bfn.  Coefficient  Atom+Function         Bfn.  Coefficient  Atom+Function  
  ----- ------------  ---------------      ----- ------------  ---------------
    15      1.397566  1 H  dxy               16     -0.892332  1 H  dxz        
    19      0.252494  1 H  dzz               17     -0.212212  1 H  dyy        
    18     -0.172439  1 H  dyz        


                     DFT Final Beta Molecular Orbital Analysis
                     -----------------------------------------

 Vector    1  Occ=0.000000D+00  E=-4.998180D-01
              MO Center= -1.9D-17, -9.1D-18,  1.2D-16, r^2= 8.4D-01
   Bfn.  Coefficient  Atom+Function         Bfn.  Coefficient  Atom+Function  
  ----- ------------  ---------------      ----- ------------  ---------------
     2      0.507778  1 H  s                  3      0.374433  1 H  s          
     1      0.237315  1 H  s          

 Vector    2  Occ=0.000000D+00  E=-1.188963D-01
              MO Center= -2.9D-16,  3.8D-16,  4.6D-16, r^2= 8.3D+00
   Bfn.  Coefficient  Atom+Function         Bfn.  Coefficient  Atom+Function  
  ----- ------------  ---------------      ----- ------------  ---------------
     4      1.442226  1 H  s                  3     -0.639633  1 H  s          
     2     -0.195537  1 H  s          

 Vector    3  Occ=0.000000D+00  E= 6.725206D-03
              MO Center=  6.1D-16, -6.2D-16, -1.2D-15, r^2= 1.9D+00
   Bfn.  Coefficient  Atom+Function         Bfn.  Coefficient  Atom+Function  
  ----- ------------  ---------------      ----- ------------  ---------------
    13      0.831692  1 H  pz                12      0.413045  1 H  py         
    11     -0.400643  1 H  px         

 Vector    4  Occ=0.000000D+00  E= 6.725206D-03
              MO Center= -2.2D-17,  2.6D-18,  2.7D-17, r^2= 1.9D+00
   Bfn.  Coefficient  Atom+Function         Bfn.  Coefficient  Atom+Function  
  ----- ------------  ---------------      ----- ------------  ---------------
    12      0.777053  1 H  py                11      0.642811  1 H  px         

 Vector    5  Occ=0.000000D+00  E= 6.725206D-03
              MO Center= -1.7D-16,  1.3D-16, -1.2D-16, r^2= 1.9D+00
   Bfn.  Coefficient  Atom+Function         Bfn.  Coefficient  Atom+Function  
  ----- ------------  ---------------      ----- ------------  ---------------
    11      0.670157  1 H  px                13      0.570356  1 H  pz         
    12     -0.498413  1 H  py         

 Vector    6  Occ=0.000000D+00  E= 1.655019D-01
              MO Center= -1.0D-16,  1.8D-16,  6.8D-16, r^2= 5.9D+00
   Bfn.  Coefficient  Atom+Function         Bfn.  Coefficient  Atom+Function  
  ----- ------------  ---------------      ----- ------------  ---------------
     3      3.031931  1 H  s                  2     -2.006451  1 H  s          
     4     -1.540727  1 H  s          

 Vector    7  Occ=0.000000D+00  E= 1.379600D+00
              MO Center= -6.9D-17, -2.2D-16,  1.7D-16, r^2= 9.0D-01
   Bfn.  Coefficient  Atom+Function         Bfn.  Coefficient  Atom+Function  
  ----- ------------  ---------------      ----- ------------  ---------------
     9      0.949481  1 H  py                10      0.737915  1 H  pz         
    12     -0.526890  1 H  py                 8     -0.410968  1 H  px         
    13     -0.409487  1 H  pz                11      0.228056  1 H  px         

 Vector    8  Occ=0.000000D+00  E= 1.379600D+00
              MO Center= -6.9D-16, -2.2D-16, -1.5D-16, r^2= 9.0D-01
   Bfn.  Coefficient  Atom+Function         Bfn.  Coefficient  Atom+Function  
  ----- ------------  ---------------      ----- ------------  ---------------
     8      1.202358  1 H  px                11     -0.667217  1 H  px         
     9      0.336902  1 H  py                10      0.236135  1 H  pz         
    12     -0.186955  1 H  py         

 Vector    9  Occ=0.000000D+00  E= 1.379600D+00
              MO Center= -1.2D-16, -7.1D-16,  1.4D-15, r^2= 9.0D-01
   Bfn.  Coefficient  Atom+Function         Bfn.  Coefficient  Atom+Function  
  ----- ------------  ---------------      ----- ------------  ---------------
    10      1.007298  1 H  pz                 9     -0.774539  1 H  py         
    13     -0.558973  1 H  pz                12      0.429810  1 H  py         

 Vector   10  Occ=0.000000D+00  E= 1.437489D+00
              MO Center=  1.1D-15,  9.0D-16, -1.3D-15, r^2= 2.3D+00
   Bfn.  Coefficient  Atom+Function         Bfn.  Coefficient  Atom+Function  
  ----- ------------  ---------------      ----- ------------  ---------------
     2      4.713568  1 H  s                  3     -2.470592  1 H  s          
     1     -1.804769  1 H  s                 14     -0.828601  1 H  dxx        
    17     -0.828601  1 H  dyy               19     -0.828601  1 H  dzz        
     4      0.814993  1 H  s          

 Vector   11  Occ=0.000000D+00  E= 2.648923D+00
              MO Center=  2.5D-16,  5.0D-17, -2.5D-17, r^2= 4.9D-01
   Bfn.  Coefficient  Atom+Function         Bfn.  Coefficient  Atom+Function  
  ----- ------------  ---------------      ----- ------------  ---------------
    15      1.430270  1 H  dxy               16      0.848009  1 H  dxz        
    18     -0.444545  1 H  dyz        


   alpha - beta orbital overlaps 
   ----------------------------- 


   alpha      1      2      3      4      5      6      7      8      9     10
    beta      1      2      3      5      4      6      7      8      9     10
 overlap   1.000  0.996  0.719  0.721  0.991  0.996  0.692  0.767  0.874  1.000


   alpha     11     12     13     14     15     16     17     18     19
    beta     13     11     12     15     14     16     19     17     18
 overlap   0.842  0.726  0.670  0.989  0.805  1.000  0.907  0.859  0.895

     --------------------------
     Expectation value of S2:  
     --------------------------
      <S2> =      0.7500 (Exact =     0.7500)


 Parallel integral file used       1 records with       0 large values


 Task  times  cpu:        0.2s     wall:        0.3s


                                NWChem Input Module
                                -------------------


 Summary of allocated global arrays
-----------------------------------
  No active global arrays



                         GA Statistics for process    0
                         ------------------------------

       create   destroy   get      put      acc     scatter   gather  read&inc
calls:  160      160     1084      761      220        0        0      100     
number of processes/call 1.00e+00 1.00e+00 1.00e+00 0.00e+00 0.00e+00
bytes total:             1.43e+06 4.61e+05 6.35e+05 0.00e+00 0.00e+00 8.00e+02
bytes remote:            0.00e+00 0.00e+00 0.00e+00 0.00e+00 0.00e+00 0.00e+00
Max memory consumed for GA by this process: 187720 bytes

MA_summarize_allocated_blocks: starting scan ...
MA_summarize_allocated_blocks: scan completed: 0 heap blocks, 0 stack blocks
MA usage statistics:

	allocation statistics:
					      heap	     stack
					      ----	     -----
	current number of blocks	         0	         0
	maximum number of blocks	        23	        51
	current total bytes		         0	         0
	maximum total bytes		   1843360	  22510952
	maximum total K-bytes		      1844	     22511
	maximum total M-bytes		         2	        23


                                     CITATION
                                     --------
                Please cite the following reference when publishing
                           results obtained with NWChem:

                 M. Valiev, E.J. Bylaska, N. Govind, K. Kowalski,
              T.P. Straatsma, H.J.J. van Dam, D. Wang, J. Nieplocha,
                        E. Apra, T.L. Windus, W.A. de Jong
                 "NWChem: a comprehensive and scalable open-source
                  solution for large scale molecular simulations"
                      Comput. Phys. Commun. 181, 1477 (2010)
                           doi:10.1016/j.cpc.2010.04.018

                                      AUTHORS
                                      -------
          E. Apra, E. J. Bylaska, W. A. de Jong, N. Govind, K. Kowalski,
       T. P. Straatsma, M. Valiev, H. J. J. van Dam, D. Wang, T. L. Windus,
        J. Hammond, J. Autschbach, K. Bhaskaran-Nair, J. Brabec, K. Lopata,
       S. A. Fischer, S. Krishnamoorthy, W. Ma, M. Klemm, O. Villa, Y. Chen,
    V. Anisimov, F. Aquino, S. Hirata, M. T. Hackler, T. Risthaus, M. Malagoli,
       A. Marenich, A. Otero-de-la-Roza, J. Mullin, P. Nichols, R. Peverati,
     J. Pittner, Y. Zhao, P.-D. Fan, A. Fonari, M. Williamson, R. J. Harrison,
       J. R. Rehr, M. Dupuis, D. Silverstein, D. M. A. Smith, J. Nieplocha,
        V. Tipparaju, M. Krishnan, B. E. Van Kuiken, A. Vazquez-Mayagoitia,
        L. Jensen, M. Swart, Q. Wu, T. Van Voorhis, A. A. Auer, M. Nooijen,
      L. D. Crosby, E. Brown, G. Cisneros, G. I. Fann, H. Fruchtl, J. Garza,
        K. Hirao, R. A. Kendall, J. A. Nichols, K. Tsemekhman, K. Wolinski,
     J. Anchell, D. E. Bernholdt, P. Borowski, T. Clark, D. Clerc, H. Dachsel,
   M. J. O. Deegan, K. Dyall, D. Elwood, E. Glendening, M. Gutowski, A. C. Hess,
         J. Jaffe, B. G. Johnson, J. Ju, R. Kobayashi, R. Kutteh, Z. Lin,
   R. Littlefield, X. Long, B. Meng, T. Nakajima, S. Niu, L. Pollack, M. Rosing,
   K. Glaesemann, G. Sandrone, M. Stave, H. Taylor, G. Thomas, J. H. van Lenthe,
                               A. T. Wong, Z. Zhang.

 Total times  cpu:        0.2s     wall:        0.4s
