[1537848258.236048] [r8n3:32627:0]         sys.c:744  MXM  WARN  Conflicting CPU frequencies detected, using: 3387.02
[1537848258.240159] [r8n3:32627:0]         mxm.c:196  MXM  WARN  The 'ulimit -s' on the system is set to 'unlimited'. This may have negative performance implications. Please set the stack size to the default value (10240) 
[1537848258.241413] [r8n3:32627:0]         mxm.c:196  MXM  WARN  The 'ulimit -s' on the system is set to 'unlimited'. This may have negative performance implications. Please set the stack size to the default value (10240) 
 argument  1 = /storage/home/bikashp/nwchem_run/rabeet/bh38/bh6/nwtpssloc/HF.nw
                                         
                                         


              Northwest Computational Chemistry Package (NWChem) 6.6
              ------------------------------------------------------


                    Environmental Molecular Sciences Laboratory
                       Pacific Northwest National Laboratory
                                Richland, WA 99352

                              Copyright (c) 1994-2015
                       Pacific Northwest National Laboratory
                            Battelle Memorial Institute

             NWChem is an open-source computational chemistry package
                        distributed under the terms of the
                      Educational Community License (ECL) 2.0
             A copy of the license is included with this distribution
                              in the LICENSE.TXT file

                                  ACKNOWLEDGMENT
                                  --------------

            This software and its documentation were developed at the
            EMSL at Pacific Northwest National Laboratory, a multiprogram
            national laboratory, operated for the U.S. Department of Energy
            by Battelle under Contract Number DE-AC05-76RL01830. Support
            for this work was provided by the Department of Energy Office
            of Biological and Environmental Research, Office of Basic
            Energy Sciences, and the Office of Advanced Scientific Computing.


           Job information
           ---------------

    hostname        = r8n3.niserhpc.org
    program         = /home/bikashp/Code/nwchem-6.6_tpssloc/bin/LINUX64/nwchem
    date            = Tue Sep 25 09:34:18 2018

    compiled        = Tue_Sep_18_16:24:59_2018
    source          = /home/bikashp/Code/nwchem-6.6_tpssloc
    nwchem branch   = 6.6
    nwchem revision = 27746
    ga revision     = 10594
    input           = /storage/home/bikashp/nwchem_run/rabeet/bh38/bh6/nwtpssloc/HF.nw
    prefix          = HF.
    data base       = ./HF.db
    status          = startup
    nproc           =        1
    time left       =     -1s



           Memory information
           ------------------

    heap     =   13107196 doubles =    100.0 Mbytes
    stack    =   13107201 doubles =    100.0 Mbytes
    global   =   26214400 doubles =    200.0 Mbytes (distinct from heap & stack)
    total    =   52428797 doubles =    400.0 Mbytes
    verify   = yes
    hardfail = no 


           Directory information
           ---------------------

  0 permanent = .
  0 scratch   = .




                                NWChem Input Module
                                -------------------



 Scaling coordinates for geometry "geometry" by  1.889725989
 (inverse scale =  0.529177249)


          ------
          auto-z
          ------


                             Geometry "geometry" -> ""
                             -------------------------

 Output coordinates in angstroms (scale by  1.889725989 to convert to a.u.)

  No.       Tag          Charge          X              Y              Z
 ---- ---------------- ---------- -------------- -------------- --------------
    1 F                    9.0000     0.00000000     0.00000000    -0.09153800
    2 H                    1.0000     0.00000000     0.00000000     0.82384200

      Atomic Mass 
      ----------- 

      F                 18.998400
      H                  1.007825


 Effective nuclear repulsion energy (a.u.)       5.2028613701

            Nuclear Dipole moment (a.u.) 
            ----------------------------
        X                 Y               Z
 ---------------- ---------------- ----------------
     0.0000000000     0.0000000000     0.0000000000



                                Z-matrix (autoz)
                                -------- 

 Units are Angstrom for bonds and degrees for angles

      Type          Name      I     J     K     L     M      Value
      ----------- --------  ----- ----- ----- ----- ----- ----------
    1 Stretch                  1     2                       0.91538


            XYZ format geometry
            -------------------
     2
 geometry
 F                     0.00000000     0.00000000    -0.09153800
 H                     0.00000000     0.00000000     0.82384200

 ==============================================================================
                                internuclear distances
 ------------------------------------------------------------------------------
       center one      |      center two      | atomic units |  angstroms
 ------------------------------------------------------------------------------
    2 H                |   1 F                |     1.72982  |     0.91538
 ------------------------------------------------------------------------------
                         number of included internuclear distances:          1
 ==============================================================================





 Summary of "ao basis" -> "" (cartesian)
 ------------------------------------------------------------------------------
       Tag                 Description            Shells   Functions and Types
 ---------------- ------------------------------  ------  ---------------------
 *                     6-311++G(3df,3pd)              on all atoms 



                                 NWChem DFT Module
                                 -----------------


                      Basis "ao basis" -> "ao basis" (cartesian)
                      -----
  F (Fluorine)
  ------------
            Exponent  Coefficients 
       -------------- ---------------------------------------------------------
  1 S  1.14271000E+04  0.001801
  1 S  1.72235000E+03  0.013742
  1 S  3.95746000E+02  0.068133
  1 S  1.15139000E+02  0.233325
  1 S  3.36026000E+01  0.589086
  1 S  4.91901000E+00  0.299505

  2 S  5.54441000E+01  0.114536
  2 S  1.26323000E+01  0.920512
  2 S  3.71756000E+00 -0.003378

  3 P  5.54441000E+01  0.035461
  3 P  1.26323000E+01  0.237451
  3 P  3.71756000E+00  0.820458

  4 S  1.16545000E+00  1.000000

  5 P  1.16545000E+00  1.000000

  6 S  3.21892000E-01  1.000000

  7 P  3.21892000E-01  1.000000

  8 S  1.07600000E-01  1.000000

  9 P  1.07600000E-01  1.000000

 10 D  7.00000000E+00  1.000000

 11 D  1.75000000E+00  1.000000

 12 D  4.37500000E-01  1.000000

 13 F  1.85000000E+00  1.000000

  H (Hydrogen)
  ------------
            Exponent  Coefficients 
       -------------- ---------------------------------------------------------
  1 S  3.38650000E+01  0.025494
  1 S  5.09479000E+00  0.190373
  1 S  1.15879000E+00  0.852161

  2 S  3.25840000E-01  1.000000

  3 S  1.02741000E-01  1.000000

  4 S  3.60000000E-02  1.000000

  5 P  3.00000000E+00  1.000000

  6 P  7.50000000E-01  1.000000

  7 P  1.87500000E-01  1.000000

  8 D  1.00000000E+00  1.000000



 Summary of "ao basis" -> "ao basis" (cartesian)
 ------------------------------------------------------------------------------
       Tag                 Description            Shells   Functions and Types
 ---------------- ------------------------------  ------  ---------------------
 F                     6-311++G(3df,3pd)            13       45   5s4p3d1f
 H                     6-311++G(3df,3pd)             8       19   4s3p1d




 Summary of "ao basis" -> "ao basis" (cartesian)
 ------------------------------------------------------------------------------
       Tag                 Description            Shells   Functions and Types
 ---------------- ------------------------------  ------  ---------------------
 F                     6-311++G(3df,3pd)            13       45   5s4p3d1f
 H                     6-311++G(3df,3pd)             8       19   4s3p1d


  Caching 1-el integrals 

            General Information
            -------------------
          SCF calculation type: DFT
          Wavefunction type:  closed shell.
          No. of atoms     :     2
          No. of electrons :    10
           Alpha electrons :     5
            Beta electrons :     5
          Charge           :     0
          Spin multiplicity:     1
          Use of symmetry is: off; symmetry adaption is: off
          Maximum number of iterations: ***
          AO basis - number of functions:    64
                     number of shells:    21
          Convergence on energy requested: 1.00D-06
          Convergence on density requested: 1.00D-05
          Convergence on gradient requested: 5.00D-04

              XC Information
              --------------
                  TPSS metaGGA Exchange Functional  1.000          
             TPSS03 metaGGA Correlation Functional  1.000          

             Grid Information
             ----------------
          Grid used for XC integration:  medium    
          Radial quadrature: Mura-Knowles        
          Angular quadrature: Lebedev. 
          Tag              B.-S. Rad. Rad. Pts. Rad. Cut. Ang. Pts.
          ---              ---------- --------- --------- ---------
          F                   0.50       49           8.0       434
          H                   0.35       45           8.0       434
          Grid pruning is: on 
          Number of quadrature shells:    94
          Spatial weights used:  Erf1

          Convergence Information
          -----------------------
          Convergence aids based upon iterative change in 
          total energy or number of iterations. 
          Levelshifting, if invoked, occurs when the 
          HOMO/LUMO gap drops below (HL_TOL): 1.00D-02
          DIIS, if invoked, will attempt to extrapolate 
          using up to (NFOCK): 10 stored Fock matrices.

                    Damping( 0%)  Levelshifting(0.5)       DIIS
                  --------------- ------------------- ---------------
          dE  on:    start            ASAP                start   
          dE off:    2 iters        *** iters           *** iters 


      Screening Tolerance Information
      -------------------------------
          Density screening/tol_rho: 1.00D-10
          AO Gaussian exp screening on grid/accAOfunc:  14
          CD Gaussian exp screening on grid/accCDfunc:  20
          XC Gaussian exp screening on grid/accXCfunc:  20
          Schwarz screening/accCoul: 1.00D-08


      Superposition of Atomic Density Guess
      -------------------------------------

 Sum of atomic energies:         -99.90769150

      Non-variational initial energy
      ------------------------------

 Total energy =     -99.892192
 1-e energy   =    -149.588336
 2-e energy   =      44.493283
 HOMO         =      -0.654131
 LUMO         =       0.025623

   Time after variat. SCF:      0.1
   Time prior to 1st pass:      0.1

 Integral file          = ./HF.aoints.0
 Record size in doubles =    65536    No. of integs per rec  =    43688
 Max. records in memory =       70    Max. records in file   = ********
 No. of bits per label  =        8    No. of bits per value  =       64


 #quartets = 2.680D+04 #integrals = 5.635D+05 #direct =  0.0% #cached =100.0%


 Grid_pts file          = ./HF.gridpts.0
 Record size in doubles =  12289        No. of grid_pts per rec  =   3070
 Max. records in memory =     16        Max. recs in file   = 995498119


           Memory utilization after 1st SCF pass: 
           Heap Space remaining (MW):        8.32             8320444
          Stack Space remaining (MW):       13.11            13106756

   convergence    iter        energy       DeltaE   RMS-Dens  Diis-err    time
 ---------------- ----- ----------------- --------- --------- ---------  ------
 d= 0,ls=0.0,diis     1   -100.4604432767 -1.06D+02  1.46D-02  7.93D-01     0.5
 d= 0,ls=0.0,diis     2   -100.3672439629  9.32D-02  6.22D-03  1.45D+00     0.8
 d= 0,ls=0.0,diis     3   -100.4906292787 -1.23D-01  8.78D-04  3.85D-02     1.0
 d= 0,ls=0.0,diis     4   -100.4872832399  3.35D-03  2.44D-04  9.12D-04     1.3
 d= 0,ls=0.0,diis     5   -100.4873172066 -3.40D-05  4.56D-05  3.33D-05     1.5
  Resetting Diis
 d= 0,ls=0.0,diis     6   -100.4872256405  9.16D-05  8.58D-06  5.05D-06     1.7
 d= 0,ls=0.0,diis     7   -100.4872792029 -5.36D-05  1.37D-06  1.26D-08     2.0
 d= 0,ls=0.0,diis     8   -100.4872802792 -1.08D-06  3.14D-07  9.90D-10     2.2
 d= 0,ls=0.0,diis     9   -100.4872804075 -1.28D-07  8.87D-08  6.17D-11     2.5


         Total DFT energy =     -100.487280407527
      One electron energy =     -150.137097164936
           Coulomb energy =       55.224175729741
          Exchange energy =      -10.431805992914
       Correlation energy =       -0.345414349558
 Nuclear repulsion energy =        5.202861370138

 Numeric. integr. density =       10.000001712805

     Total iterative time =      2.3s



                       DFT Final Molecular Orbital Analysis
                       ------------------------------------

 Vector    1  Occ=2.000000D+00  E=-2.448492D+01
              MO Center= -2.7D-12, -6.3D-12, -9.1D-02, r^2= 1.2D-02
   Bfn.  Coefficient  Atom+Function         Bfn.  Coefficient  Atom+Function  
  ----- ------------  ---------------      ----- ------------  ---------------
     1      0.547286  1 F  s                  2      0.472728  1 F  s          

 Vector    2  Occ=2.000000D+00  E=-1.191301D+00
              MO Center= -7.0D-12, -1.0D-09,  5.6D-02, r^2= 3.8D-01
   Bfn.  Coefficient  Atom+Function         Bfn.  Coefficient  Atom+Function  
  ----- ------------  ---------------      ----- ------------  ---------------
    10      0.737059  1 F  s                  6      0.597013  1 F  s          
     2     -0.220691  1 F  s          

 Vector    3  Occ=2.000000D+00  E=-5.702247D-01
              MO Center=  1.5D-09, -2.0D-09, -3.1D-02, r^2= 5.9D-01
   Bfn.  Coefficient  Atom+Function         Bfn.  Coefficient  Atom+Function  
  ----- ------------  ---------------      ----- ------------  ---------------
    10      0.394329  1 F  s                  9     -0.354300  1 F  pz         
    13     -0.330911  1 F  pz                 5     -0.275554  1 F  pz         
    46     -0.168796  2 H  s                  6      0.150023  1 F  s          

 Vector    4  Occ=2.000000D+00  E=-4.349650D-01
              MO Center= -7.9D-10, -1.1D-09, -6.2D-02, r^2= 5.0D-01
   Bfn.  Coefficient  Atom+Function         Bfn.  Coefficient  Atom+Function  
  ----- ------------  ---------------      ----- ------------  ---------------
     7      0.327379  1 F  px                11      0.327287  1 F  px         
     8      0.277033  1 F  py                12      0.276955  1 F  py         
     3      0.242502  1 F  px                 4      0.205209  1 F  py         

 Vector    5  Occ=2.000000D+00  E=-4.349650D-01
              MO Center=  3.4D-09, -4.5D-09, -6.2D-02, r^2= 5.0D-01
   Bfn.  Coefficient  Atom+Function         Bfn.  Coefficient  Atom+Function  
  ----- ------------  ---------------      ----- ------------  ---------------
     8      0.327379  1 F  py                12      0.327287  1 F  py         
     7     -0.277033  1 F  px                11     -0.276955  1 F  px         
     4      0.242502  1 F  py                 3     -0.205209  1 F  px         

 Vector    6  Occ=0.000000D+00  E=-4.233725D-02
              MO Center=  6.8D-08, -7.7D-08,  1.1D+00, r^2= 3.7D+00
   Bfn.  Coefficient  Atom+Function         Bfn.  Coefficient  Atom+Function  
  ----- ------------  ---------------      ----- ------------  ---------------
    48      0.687698  2 H  s                 49      0.653415  2 H  s          
    14     -0.473682  1 F  s                 10     -0.318680  1 F  s          
    47      0.262075  2 H  s                  6     -0.182007  1 F  s          
    13     -0.177493  1 F  pz                 9     -0.163803  1 F  pz         

 Vector    7  Occ=0.000000D+00  E= 8.802026D-02
              MO Center=  2.5D-07, -2.9D-07,  7.6D-01, r^2= 7.8D+00
   Bfn.  Coefficient  Atom+Function         Bfn.  Coefficient  Atom+Function  
  ----- ------------  ---------------      ----- ------------  ---------------
    48      3.733979  2 H  s                 14     -2.062264  1 F  s          
    49     -1.720436  2 H  s                 17     -0.893020  1 F  pz         
    13     -0.294511  1 F  pz                58     -0.288517  2 H  pz         
    47      0.227007  2 H  s                 10     -0.183282  1 F  s          
     9     -0.172223  1 F  pz         

 Vector    8  Occ=0.000000D+00  E= 1.815569D-01
              MO Center=  1.9D-05, -2.2D-05, -9.1D-02, r^2= 5.2D+00
   Bfn.  Coefficient  Atom+Function         Bfn.  Coefficient  Atom+Function  
  ----- ------------  ---------------      ----- ------------  ---------------
    14      3.298899  1 F  s                 48     -1.611992  2 H  s          
    49     -0.701644  2 H  s                 13      0.525942  1 F  pz         
    58      0.483136  2 H  pz                 6     -0.352892  1 F  s          
    47     -0.311499  2 H  s                 30     -0.260320  1 F  dxx        
    33     -0.260320  1 F  dyy        

 Vector    9  Occ=0.000000D+00  E= 1.826736D-01
              MO Center= -3.9D-07, -3.3D-07,  1.5D-02, r^2= 3.7D+00
   Bfn.  Coefficient  Atom+Function         Bfn.  Coefficient  Atom+Function  
  ----- ------------  ---------------      ----- ------------  ---------------
    15      0.873613  1 F  px                16      0.743668  1 F  py         
    11     -0.354559  1 F  px                12     -0.301820  1 F  py         

 Vector   10  Occ=0.000000D+00  E= 1.826736D-01
              MO Center= -1.9D-05,  2.2D-05,  1.5D-02, r^2= 3.7D+00
   Bfn.  Coefficient  Atom+Function         Bfn.  Coefficient  Atom+Function  
  ----- ------------  ---------------      ----- ------------  ---------------
    16      0.873613  1 F  py                15     -0.743668  1 F  px         
    12     -0.354559  1 F  py                11      0.301820  1 F  px         

 Vector   11  Occ=0.000000D+00  E= 2.695633D-01
              MO Center=  3.2D-08, -2.7D-08, -1.9D-01, r^2= 4.7D+00
   Bfn.  Coefficient  Atom+Function         Bfn.  Coefficient  Atom+Function  
  ----- ------------  ---------------      ----- ------------  ---------------
    14      6.530813  1 F  s                 48     -6.315163  2 H  s          
    17      3.496327  1 F  pz                47     -1.082052  2 H  s          
    58      0.783753  2 H  pz                10      0.185800  1 F  s          

 Vector   12  Occ=0.000000D+00  E= 3.434855D-01
              MO Center= -4.5D-09, -3.7D-09,  5.0D-01, r^2= 3.0D+00
   Bfn.  Coefficient  Atom+Function         Bfn.  Coefficient  Atom+Function  
  ----- ------------  ---------------      ----- ------------  ---------------
    56      1.141061  2 H  px                57      1.003862  2 H  py         
    15     -0.787632  1 F  px                16     -0.692929  1 F  py         
    11     -0.165572  1 F  px         

 Vector   13  Occ=0.000000D+00  E= 3.434856D-01
              MO Center= -1.3D-07,  1.5D-07,  5.0D-01, r^2= 3.0D+00
   Bfn.  Coefficient  Atom+Function         Bfn.  Coefficient  Atom+Function  
  ----- ------------  ---------------      ----- ------------  ---------------
    57      1.141061  2 H  py                56     -1.003862  2 H  px         
    16     -0.787632  1 F  py                15      0.692929  1 F  px         
    12     -0.165572  1 F  py         

 Vector   14  Occ=0.000000D+00  E= 3.737873D-01
              MO Center= -2.2D-08,  3.1D-08,  9.7D-01, r^2= 4.9D+00
   Bfn.  Coefficient  Atom+Function         Bfn.  Coefficient  Atom+Function  
  ----- ------------  ---------------      ----- ------------  ---------------
    48      8.483931  2 H  s                 14     -5.267753  1 F  s          
    17     -2.315743  1 F  pz                58     -1.756616  2 H  pz         
    49     -1.504761  2 H  s                 47     -1.113339  2 H  s          
    35     -0.380167  1 F  dzz               10     -0.304105  1 F  s          
     9      0.180607  1 F  pz                30     -0.169632  1 F  dxx        

 Vector   15  Occ=0.000000D+00  E= 6.765516D-01
              MO Center= -1.3D-08,  1.5D-08,  1.3D+00, r^2= 3.0D+00
   Bfn.  Coefficient  Atom+Function         Bfn.  Coefficient  Atom+Function  
  ----- ------------  ---------------      ----- ------------  ---------------
    48    -10.829690  2 H  s                 14     10.486405  1 F  s          
    58      5.237369  2 H  pz                47     -4.705315  2 H  s          
    17      3.471772  1 F  pz                10      3.340737  1 F  s          
    13      2.425703  1 F  pz                35      0.753749  1 F  dzz        
    55      0.381462  2 H  pz                49      0.363492  2 H  s          


 center of mass
 --------------
 x =   0.00000000 y =   0.00000000 z =  -0.08584120

 moments of inertia (a.u.)
 ------------------
           2.863765916334           0.000000000000           0.000000000000
           0.000000000000           2.863765916334           0.000000000000
           0.000000000000           0.000000000000           0.000000000000

     Multipole analysis of the density
     ---------------------------------

     L   x y z        total         alpha         beta         nuclear
     -   - - -        -----         -----         ----         -------
     0   0 0 0     -0.000000     -5.000000     -5.000000     10.000000

     1   1 0 0     -0.000000     -0.000000     -0.000000      0.000000
     1   0 1 0      0.000000      0.000000      0.000000      0.000000
     1   0 0 1      0.716787      0.358393      0.358393      0.000000

     2   2 0 0     -4.377961     -2.188981     -2.188981      0.000000
     2   1 1 0     -0.000000     -0.000000     -0.000000      0.000000
     2   1 0 1      0.000000      0.000000      0.000000      0.000000
     2   0 2 0     -4.377961     -2.188981     -2.188981      0.000000
     2   0 1 1     -0.000000     -0.000000     -0.000000      0.000000
     2   0 0 2     -2.802648     -2.747845     -2.747845      2.693041


 Parallel integral file used      13 records with       0 large values


 Task  times  cpu:        2.4s     wall:        2.6s


                                NWChem Input Module
                                -------------------


 Summary of allocated global arrays
-----------------------------------
  No active global arrays



                         GA Statistics for process    0
                         ------------------------------

       create   destroy   get      put      acc     scatter   gather  read&inc
calls:  156      156     4462     2376     1141        0        0      220     
number of processes/call 1.00e+00 1.00e+00 1.00e+00 0.00e+00 0.00e+00
bytes total:             2.68e+07 4.89e+06 1.22e+07 0.00e+00 0.00e+00 1.76e+03
bytes remote:            0.00e+00 0.00e+00 0.00e+00 0.00e+00 0.00e+00 0.00e+00
Max memory consumed for GA by this process: 1277952 bytes

MA_summarize_allocated_blocks: starting scan ...
MA_summarize_allocated_blocks: scan completed: 0 heap blocks, 0 stack blocks
MA usage statistics:

	allocation statistics:
					      heap	     stack
					      ----	     -----
	current number of blocks	         0	         0
	maximum number of blocks	        23	        51
	current total bytes		         0	         0
	maximum total bytes		  38293416	  22512296
	maximum total K-bytes		     38294	     22513
	maximum total M-bytes		        39	        23


                                     CITATION
                                     --------
                Please cite the following reference when publishing
                           results obtained with NWChem:

                 M. Valiev, E.J. Bylaska, N. Govind, K. Kowalski,
              T.P. Straatsma, H.J.J. van Dam, D. Wang, J. Nieplocha,
                        E. Apra, T.L. Windus, W.A. de Jong
                 "NWChem: a comprehensive and scalable open-source
                  solution for large scale molecular simulations"
                      Comput. Phys. Commun. 181, 1477 (2010)
                           doi:10.1016/j.cpc.2010.04.018

                                      AUTHORS
                                      -------
          E. Apra, E. J. Bylaska, W. A. de Jong, N. Govind, K. Kowalski,
       T. P. Straatsma, M. Valiev, H. J. J. van Dam, D. Wang, T. L. Windus,
        J. Hammond, J. Autschbach, K. Bhaskaran-Nair, J. Brabec, K. Lopata,
       S. A. Fischer, S. Krishnamoorthy, W. Ma, M. Klemm, O. Villa, Y. Chen,
    V. Anisimov, F. Aquino, S. Hirata, M. T. Hackler, T. Risthaus, M. Malagoli,
       A. Marenich, A. Otero-de-la-Roza, J. Mullin, P. Nichols, R. Peverati,
     J. Pittner, Y. Zhao, P.-D. Fan, A. Fonari, M. Williamson, R. J. Harrison,
       J. R. Rehr, M. Dupuis, D. Silverstein, D. M. A. Smith, J. Nieplocha,
        V. Tipparaju, M. Krishnan, B. E. Van Kuiken, A. Vazquez-Mayagoitia,
        L. Jensen, M. Swart, Q. Wu, T. Van Voorhis, A. A. Auer, M. Nooijen,
      L. D. Crosby, E. Brown, G. Cisneros, G. I. Fann, H. Fruchtl, J. Garza,
        K. Hirao, R. A. Kendall, J. A. Nichols, K. Tsemekhman, K. Wolinski,
     J. Anchell, D. E. Bernholdt, P. Borowski, T. Clark, D. Clerc, H. Dachsel,
   M. J. O. Deegan, K. Dyall, D. Elwood, E. Glendening, M. Gutowski, A. C. Hess,
         J. Jaffe, B. G. Johnson, J. Ju, R. Kobayashi, R. Kutteh, Z. Lin,
   R. Littlefield, X. Long, B. Meng, T. Nakajima, S. Niu, L. Pollack, M. Rosing,
   K. Glaesemann, G. Sandrone, M. Stave, H. Taylor, G. Thomas, J. H. van Lenthe,
                               A. T. Wong, Z. Zhang.

 Total times  cpu:        2.4s     wall:        2.8s
